<?xml version="1.0" encoding="ISO-8859-1"?>
<modeling>
 <generator>
  <i name="program" type="string">vasp </i>
  <i name="version" type="string">5.3.5  </i>
  <i name="subversion" type="string">31Mar14 (build Nov 02 2014 15:17:37) complex                          parallel </i>
  <i name="platform" type="string">ion-Intel-MKL </i>
  <i name="date" type="string">2016 10 18 </i>
  <i name="time" type="string">17:38:45 </i>
 </generator>
 <incar>
  <i type="string" name="SYSTEM">graphite</i>
  <i type="string" name="PREC">accurate</i>
  <i type="int" name="NELM">   200</i>
  <i type="int" name="IBRION">     2</i>
  <i name="EDIFF">      0.00000001</i>
  <i name="EDIFFG">      0.00100000</i>
  <i type="int" name="NSW">   200</i>
  <i type="int" name="ISIF">     2</i>
  <i name="ENCUT">    800.00000000</i>
  <i type="int" name="ISMEAR">    -5</i>
  <i type="logical" name="LWAVE"> F  </i>
  <i type="logical" name="LCHARG"> F  </i>
  <i type="int" name="NELM">   200</i>
  <i type="string" name="GGA">PE</i>
 </incar>
 <kpoints>
  <generation param="Gamma">
   <v type="int" name="divisions">      12       12        8 </v>
   <v name="usershift">      0.00000000       0.00000000       0.00000000 </v>
   <v name="genvec1">      0.08333333      -0.00000000       0.00000000 </v>
   <v name="genvec2">      0.00000000       0.08333333       0.00000000 </v>
   <v name="genvec3">      0.00000000       0.00000000       0.12500000 </v>
   <v name="shift">      0.00000000       0.00000000       0.00000000 </v>
  </generation>
  <varray name="kpointlist" >
   <v>       0.00000000       0.00000000       0.00000000 </v>
   <v>       0.08333333      -0.00000000       0.00000000 </v>
   <v>       0.16666667      -0.00000000       0.00000000 </v>
   <v>       0.25000000       0.00000000       0.00000000 </v>
   <v>       0.33333333      -0.00000000       0.00000000 </v>
   <v>       0.41666667       0.00000000       0.00000000 </v>
   <v>       0.50000000       0.00000000       0.00000000 </v>
   <v>       0.08333333       0.08333333       0.00000000 </v>
   <v>       0.16666667       0.08333333       0.00000000 </v>
   <v>       0.25000000       0.08333333       0.00000000 </v>
   <v>       0.33333333       0.08333333       0.00000000 </v>
   <v>       0.41666667       0.08333333       0.00000000 </v>
   <v>       0.50000000       0.08333333       0.00000000 </v>
   <v>      -0.41666667       0.08333333       0.00000000 </v>
   <v>      -0.33333333       0.08333333       0.00000000 </v>
   <v>      -0.25000000       0.08333333       0.00000000 </v>
   <v>      -0.16666667       0.08333333       0.00000000 </v>
   <v>      -0.08333333       0.08333333       0.00000000 </v>
   <v>       0.16666667       0.16666667       0.00000000 </v>
   <v>       0.25000000       0.16666667       0.00000000 </v>
   <v>       0.33333333       0.16666667       0.00000000 </v>
   <v>       0.41666667       0.16666667       0.00000000 </v>
   <v>       0.50000000       0.16666667       0.00000000 </v>
   <v>      -0.41666667       0.16666667       0.00000000 </v>
   <v>      -0.33333333       0.16666667       0.00000000 </v>
   <v>      -0.25000000       0.16666667       0.00000000 </v>
   <v>      -0.16666667       0.16666667       0.00000000 </v>
   <v>       0.25000000       0.25000000       0.00000000 </v>
   <v>       0.33333333       0.25000000       0.00000000 </v>
   <v>       0.41666667       0.25000000       0.00000000 </v>
   <v>       0.50000000       0.25000000       0.00000000 </v>
   <v>      -0.41666667       0.25000000       0.00000000 </v>
   <v>      -0.33333333       0.25000000       0.00000000 </v>
   <v>      -0.25000000       0.25000000       0.00000000 </v>
   <v>       0.33333333       0.33333333       0.00000000 </v>
   <v>       0.41666667       0.33333333       0.00000000 </v>
   <v>       0.50000000       0.33333333       0.00000000 </v>
   <v>      -0.41666667       0.33333333       0.00000000 </v>
   <v>      -0.33333333       0.33333333       0.00000000 </v>
   <v>       0.41666667       0.41666667       0.00000000 </v>
   <v>       0.50000000       0.41666667       0.00000000 </v>
   <v>      -0.41666667       0.41666667       0.00000000 </v>
   <v>       0.50000000       0.50000000       0.00000000 </v>
   <v>       0.00000000       0.00000000       0.12500000 </v>
   <v>       0.08333333      -0.00000000       0.12500000 </v>
   <v>       0.16666667      -0.00000000       0.12500000 </v>
   <v>       0.25000000       0.00000000       0.12500000 </v>
   <v>       0.33333333      -0.00000000       0.12500000 </v>
   <v>       0.41666667       0.00000000       0.12500000 </v>
   <v>       0.50000000       0.00000000       0.12500000 </v>
   <v>       0.08333333       0.08333333       0.12500000 </v>
   <v>       0.16666667       0.08333333       0.12500000 </v>
   <v>       0.25000000       0.08333333       0.12500000 </v>
   <v>       0.33333333       0.08333333       0.12500000 </v>
   <v>       0.41666667       0.08333333       0.12500000 </v>
   <v>       0.50000000       0.08333333       0.12500000 </v>
   <v>      -0.41666667       0.08333333       0.12500000 </v>
   <v>      -0.33333333       0.08333333       0.12500000 </v>
   <v>      -0.25000000       0.08333333       0.12500000 </v>
   <v>      -0.16666667       0.08333333       0.12500000 </v>
   <v>      -0.08333333       0.08333333       0.12500000 </v>
   <v>       0.16666667       0.16666667       0.12500000 </v>
   <v>       0.25000000       0.16666667       0.12500000 </v>
   <v>       0.33333333       0.16666667       0.12500000 </v>
   <v>       0.41666667       0.16666667       0.12500000 </v>
   <v>       0.50000000       0.16666667       0.12500000 </v>
   <v>      -0.41666667       0.16666667       0.12500000 </v>
   <v>      -0.33333333       0.16666667       0.12500000 </v>
   <v>      -0.25000000       0.16666667       0.12500000 </v>
   <v>      -0.16666667       0.16666667       0.12500000 </v>
   <v>       0.25000000       0.25000000       0.12500000 </v>
   <v>       0.33333333       0.25000000       0.12500000 </v>
   <v>       0.41666667       0.25000000       0.12500000 </v>
   <v>       0.50000000       0.25000000       0.12500000 </v>
   <v>      -0.41666667       0.25000000       0.12500000 </v>
   <v>      -0.33333333       0.25000000       0.12500000 </v>
   <v>      -0.25000000       0.25000000       0.12500000 </v>
   <v>       0.33333333       0.33333333       0.12500000 </v>
   <v>       0.41666667       0.33333333       0.12500000 </v>
   <v>       0.50000000       0.33333333       0.12500000 </v>
   <v>      -0.41666667       0.33333333       0.12500000 </v>
   <v>      -0.33333333       0.33333333       0.12500000 </v>
   <v>       0.41666667       0.41666667       0.12500000 </v>
   <v>       0.50000000       0.41666667       0.12500000 </v>
   <v>      -0.41666667       0.41666667       0.12500000 </v>
   <v>       0.50000000       0.50000000       0.12500000 </v>
   <v>       0.00000000       0.00000000       0.25000000 </v>
   <v>       0.08333333      -0.00000000       0.25000000 </v>
   <v>       0.16666667      -0.00000000       0.25000000 </v>
   <v>       0.25000000       0.00000000       0.25000000 </v>
   <v>       0.33333333      -0.00000000       0.25000000 </v>
   <v>       0.41666667       0.00000000       0.25000000 </v>
   <v>       0.50000000       0.00000000       0.25000000 </v>
   <v>       0.08333333       0.08333333       0.25000000 </v>
   <v>       0.16666667       0.08333333       0.25000000 </v>
   <v>       0.25000000       0.08333333       0.25000000 </v>
   <v>       0.33333333       0.08333333       0.25000000 </v>
   <v>       0.41666667       0.08333333       0.25000000 </v>
   <v>       0.50000000       0.08333333       0.25000000 </v>
   <v>      -0.41666667       0.08333333       0.25000000 </v>
   <v>      -0.33333333       0.08333333       0.25000000 </v>
   <v>      -0.25000000       0.08333333       0.25000000 </v>
   <v>      -0.16666667       0.08333333       0.25000000 </v>
   <v>      -0.08333333       0.08333333       0.25000000 </v>
   <v>       0.16666667       0.16666667       0.25000000 </v>
   <v>       0.25000000       0.16666667       0.25000000 </v>
   <v>       0.33333333       0.16666667       0.25000000 </v>
   <v>       0.41666667       0.16666667       0.25000000 </v>
   <v>       0.50000000       0.16666667       0.25000000 </v>
   <v>      -0.41666667       0.16666667       0.25000000 </v>
   <v>      -0.33333333       0.16666667       0.25000000 </v>
   <v>      -0.25000000       0.16666667       0.25000000 </v>
   <v>      -0.16666667       0.16666667       0.25000000 </v>
   <v>       0.25000000       0.25000000       0.25000000 </v>
   <v>       0.33333333       0.25000000       0.25000000 </v>
   <v>       0.41666667       0.25000000       0.25000000 </v>
   <v>       0.50000000       0.25000000       0.25000000 </v>
   <v>      -0.41666667       0.25000000       0.25000000 </v>
   <v>      -0.33333333       0.25000000       0.25000000 </v>
   <v>      -0.25000000       0.25000000       0.25000000 </v>
   <v>       0.33333333       0.33333333       0.25000000 </v>
   <v>       0.41666667       0.33333333       0.25000000 </v>
   <v>       0.50000000       0.33333333       0.25000000 </v>
   <v>      -0.41666667       0.33333333       0.25000000 </v>
   <v>      -0.33333333       0.33333333       0.25000000 </v>
   <v>       0.41666667       0.41666667       0.25000000 </v>
   <v>       0.50000000       0.41666667       0.25000000 </v>
   <v>      -0.41666667       0.41666667       0.25000000 </v>
   <v>       0.50000000       0.50000000       0.25000000 </v>
   <v>       0.00000000       0.00000000       0.37500000 </v>
   <v>       0.08333333      -0.00000000       0.37500000 </v>
   <v>       0.16666667      -0.00000000       0.37500000 </v>
   <v>       0.25000000       0.00000000       0.37500000 </v>
   <v>       0.33333333      -0.00000000       0.37500000 </v>
   <v>       0.41666667       0.00000000       0.37500000 </v>
   <v>       0.50000000       0.00000000       0.37500000 </v>
   <v>       0.08333333       0.08333333       0.37500000 </v>
   <v>       0.16666667       0.08333333       0.37500000 </v>
   <v>       0.25000000       0.08333333       0.37500000 </v>
   <v>       0.33333333       0.08333333       0.37500000 </v>
   <v>       0.41666667       0.08333333       0.37500000 </v>
   <v>       0.50000000       0.08333333       0.37500000 </v>
   <v>      -0.41666667       0.08333333       0.37500000 </v>
   <v>      -0.33333333       0.08333333       0.37500000 </v>
   <v>      -0.25000000       0.08333333       0.37500000 </v>
   <v>      -0.16666667       0.08333333       0.37500000 </v>
   <v>      -0.08333333       0.08333333       0.37500000 </v>
   <v>       0.16666667       0.16666667       0.37500000 </v>
   <v>       0.25000000       0.16666667       0.37500000 </v>
   <v>       0.33333333       0.16666667       0.37500000 </v>
   <v>       0.41666667       0.16666667       0.37500000 </v>
   <v>       0.50000000       0.16666667       0.37500000 </v>
   <v>      -0.41666667       0.16666667       0.37500000 </v>
   <v>      -0.33333333       0.16666667       0.37500000 </v>
   <v>      -0.25000000       0.16666667       0.37500000 </v>
   <v>      -0.16666667       0.16666667       0.37500000 </v>
   <v>       0.25000000       0.25000000       0.37500000 </v>
   <v>       0.33333333       0.25000000       0.37500000 </v>
   <v>       0.41666667       0.25000000       0.37500000 </v>
   <v>       0.50000000       0.25000000       0.37500000 </v>
   <v>      -0.41666667       0.25000000       0.37500000 </v>
   <v>      -0.33333333       0.25000000       0.37500000 </v>
   <v>      -0.25000000       0.25000000       0.37500000 </v>
   <v>       0.33333333       0.33333333       0.37500000 </v>
   <v>       0.41666667       0.33333333       0.37500000 </v>
   <v>       0.50000000       0.33333333       0.37500000 </v>
   <v>      -0.41666667       0.33333333       0.37500000 </v>
   <v>      -0.33333333       0.33333333       0.37500000 </v>
   <v>       0.41666667       0.41666667       0.37500000 </v>
   <v>       0.50000000       0.41666667       0.37500000 </v>
   <v>      -0.41666667       0.41666667       0.37500000 </v>
   <v>       0.50000000       0.50000000       0.37500000 </v>
   <v>       0.00000000       0.00000000       0.50000000 </v>
   <v>       0.08333333      -0.00000000       0.50000000 </v>
   <v>       0.16666667      -0.00000000       0.50000000 </v>
   <v>       0.25000000       0.00000000       0.50000000 </v>
   <v>       0.33333333      -0.00000000       0.50000000 </v>
   <v>       0.41666667       0.00000000       0.50000000 </v>
   <v>       0.50000000       0.00000000       0.50000000 </v>
   <v>       0.08333333       0.08333333       0.50000000 </v>
   <v>       0.16666667       0.08333333       0.50000000 </v>
   <v>       0.25000000       0.08333333       0.50000000 </v>
   <v>       0.33333333       0.08333333       0.50000000 </v>
   <v>       0.41666667       0.08333333       0.50000000 </v>
   <v>       0.50000000       0.08333333       0.50000000 </v>
   <v>      -0.41666667       0.08333333       0.50000000 </v>
   <v>      -0.33333333       0.08333333       0.50000000 </v>
   <v>      -0.25000000       0.08333333       0.50000000 </v>
   <v>      -0.16666667       0.08333333       0.50000000 </v>
   <v>      -0.08333333       0.08333333       0.50000000 </v>
   <v>       0.16666667       0.16666667       0.50000000 </v>
   <v>       0.25000000       0.16666667       0.50000000 </v>
   <v>       0.33333333       0.16666667       0.50000000 </v>
   <v>       0.41666667       0.16666667       0.50000000 </v>
   <v>       0.50000000       0.16666667       0.50000000 </v>
   <v>      -0.41666667       0.16666667       0.50000000 </v>
   <v>      -0.33333333       0.16666667       0.50000000 </v>
   <v>      -0.25000000       0.16666667       0.50000000 </v>
   <v>      -0.16666667       0.16666667       0.50000000 </v>
   <v>       0.25000000       0.25000000       0.50000000 </v>
   <v>       0.33333333       0.25000000       0.50000000 </v>
   <v>       0.41666667       0.25000000       0.50000000 </v>
   <v>       0.50000000       0.25000000       0.50000000 </v>
   <v>      -0.41666667       0.25000000       0.50000000 </v>
   <v>      -0.33333333       0.25000000       0.50000000 </v>
   <v>      -0.25000000       0.25000000       0.50000000 </v>
   <v>       0.33333333       0.33333333       0.50000000 </v>
   <v>       0.41666667       0.33333333       0.50000000 </v>
   <v>       0.50000000       0.33333333       0.50000000 </v>
   <v>      -0.41666667       0.33333333       0.50000000 </v>
   <v>      -0.33333333       0.33333333       0.50000000 </v>
   <v>       0.41666667       0.41666667       0.50000000 </v>
   <v>       0.50000000       0.41666667       0.50000000 </v>
   <v>      -0.41666667       0.41666667       0.50000000 </v>
   <v>       0.50000000       0.50000000       0.50000000 </v>
  </varray>
  <varray name="weights" >
   <v>       0.00086806 </v>
   <v>       0.00347222 </v>
   <v>       0.00347222 </v>
   <v>       0.00347222 </v>
   <v>       0.00347222 </v>
   <v>       0.00347222 </v>
   <v>       0.00173611 </v>
   <v>       0.00173611 </v>
   <v>       0.00347222 </v>
   <v>       0.00347222 </v>
   <v>       0.00347222 </v>
   <v>       0.00347222 </v>
   <v>       0.00347222 </v>
   <v>       0.00347222 </v>
   <v>       0.00347222 </v>
   <v>       0.00347222 </v>
   <v>       0.00347222 </v>
   <v>       0.00173611 </v>
   <v>       0.00173611 </v>
   <v>       0.00347222 </v>
   <v>       0.00347222 </v>
   <v>       0.00347222 </v>
   <v>       0.00347222 </v>
   <v>       0.00347222 </v>
   <v>       0.00347222 </v>
   <v>       0.00347222 </v>
   <v>       0.00173611 </v>
   <v>       0.00173611 </v>
   <v>       0.00347222 </v>
   <v>       0.00347222 </v>
   <v>       0.00347222 </v>
   <v>       0.00347222 </v>
   <v>       0.00347222 </v>
   <v>       0.00173611 </v>
   <v>       0.00173611 </v>
   <v>       0.00347222 </v>
   <v>       0.00347222 </v>
   <v>       0.00347222 </v>
   <v>       0.00173611 </v>
   <v>       0.00173611 </v>
   <v>       0.00347222 </v>
   <v>       0.00173611 </v>
   <v>       0.00086806 </v>
   <v>       0.00173611 </v>
   <v>       0.00694444 </v>
   <v>       0.00694444 </v>
   <v>       0.00694444 </v>
   <v>       0.00694444 </v>
   <v>       0.00694444 </v>
   <v>       0.00347222 </v>
   <v>       0.00347222 </v>
   <v>       0.00694444 </v>
   <v>       0.00694444 </v>
   <v>       0.00694444 </v>
   <v>       0.00694444 </v>
   <v>       0.00694444 </v>
   <v>       0.00694444 </v>
   <v>       0.00694444 </v>
   <v>       0.00694444 </v>
   <v>       0.00694444 </v>
   <v>       0.00347222 </v>
   <v>       0.00347222 </v>
   <v>       0.00694444 </v>
   <v>       0.00694444 </v>
   <v>       0.00694444 </v>
   <v>       0.00694444 </v>
   <v>       0.00694444 </v>
   <v>       0.00694444 </v>
   <v>       0.00694444 </v>
   <v>       0.00347222 </v>
   <v>       0.00347222 </v>
   <v>       0.00694444 </v>
   <v>       0.00694444 </v>
   <v>       0.00694444 </v>
   <v>       0.00694444 </v>
   <v>       0.00694444 </v>
   <v>       0.00347222 </v>
   <v>       0.00347222 </v>
   <v>       0.00694444 </v>
   <v>       0.00694444 </v>
   <v>       0.00694444 </v>
   <v>       0.00347222 </v>
   <v>       0.00347222 </v>
   <v>       0.00694444 </v>
   <v>       0.00347222 </v>
   <v>       0.00173611 </v>
   <v>       0.00173611 </v>
   <v>       0.00694444 </v>
   <v>       0.00694444 </v>
   <v>       0.00694444 </v>
   <v>       0.00694444 </v>
   <v>       0.00694444 </v>
   <v>       0.00347222 </v>
   <v>       0.00347222 </v>
   <v>       0.00694444 </v>
   <v>       0.00694444 </v>
   <v>       0.00694444 </v>
   <v>       0.00694444 </v>
   <v>       0.00694444 </v>
   <v>       0.00694444 </v>
   <v>       0.00694444 </v>
   <v>       0.00694444 </v>
   <v>       0.00694444 </v>
   <v>       0.00347222 </v>
   <v>       0.00347222 </v>
   <v>       0.00694444 </v>
   <v>       0.00694444 </v>
   <v>       0.00694444 </v>
   <v>       0.00694444 </v>
   <v>       0.00694444 </v>
   <v>       0.00694444 </v>
   <v>       0.00694444 </v>
   <v>       0.00347222 </v>
   <v>       0.00347222 </v>
   <v>       0.00694444 </v>
   <v>       0.00694444 </v>
   <v>       0.00694444 </v>
   <v>       0.00694444 </v>
   <v>       0.00694444 </v>
   <v>       0.00347222 </v>
   <v>       0.00347222 </v>
   <v>       0.00694444 </v>
   <v>       0.00694444 </v>
   <v>       0.00694444 </v>
   <v>       0.00347222 </v>
   <v>       0.00347222 </v>
   <v>       0.00694444 </v>
   <v>       0.00347222 </v>
   <v>       0.00173611 </v>
   <v>       0.00173611 </v>
   <v>       0.00694444 </v>
   <v>       0.00694444 </v>
   <v>       0.00694444 </v>
   <v>       0.00694444 </v>
   <v>       0.00694444 </v>
   <v>       0.00347222 </v>
   <v>       0.00347222 </v>
   <v>       0.00694444 </v>
   <v>       0.00694444 </v>
   <v>       0.00694444 </v>
   <v>       0.00694444 </v>
   <v>       0.00694444 </v>
   <v>       0.00694444 </v>
   <v>       0.00694444 </v>
   <v>       0.00694444 </v>
   <v>       0.00694444 </v>
   <v>       0.00347222 </v>
   <v>       0.00347222 </v>
   <v>       0.00694444 </v>
   <v>       0.00694444 </v>
   <v>       0.00694444 </v>
   <v>       0.00694444 </v>
   <v>       0.00694444 </v>
   <v>       0.00694444 </v>
   <v>       0.00694444 </v>
   <v>       0.00347222 </v>
   <v>       0.00347222 </v>
   <v>       0.00694444 </v>
   <v>       0.00694444 </v>
   <v>       0.00694444 </v>
   <v>       0.00694444 </v>
   <v>       0.00694444 </v>
   <v>       0.00347222 </v>
   <v>       0.00347222 </v>
   <v>       0.00694444 </v>
   <v>       0.00694444 </v>
   <v>       0.00694444 </v>
   <v>       0.00347222 </v>
   <v>       0.00347222 </v>
   <v>       0.00694444 </v>
   <v>       0.00347222 </v>
   <v>       0.00173611 </v>
   <v>       0.00086806 </v>
   <v>       0.00347222 </v>
   <v>       0.00347222 </v>
   <v>       0.00347222 </v>
   <v>       0.00347222 </v>
   <v>       0.00347222 </v>
   <v>       0.00173611 </v>
   <v>       0.00173611 </v>
   <v>       0.00347222 </v>
   <v>       0.00347222 </v>
   <v>       0.00347222 </v>
   <v>       0.00347222 </v>
   <v>       0.00347222 </v>
   <v>       0.00347222 </v>
   <v>       0.00347222 </v>
   <v>       0.00347222 </v>
   <v>       0.00347222 </v>
   <v>       0.00173611 </v>
   <v>       0.00173611 </v>
   <v>       0.00347222 </v>
   <v>       0.00347222 </v>
   <v>       0.00347222 </v>
   <v>       0.00347222 </v>
   <v>       0.00347222 </v>
   <v>       0.00347222 </v>
   <v>       0.00347222 </v>
   <v>       0.00173611 </v>
   <v>       0.00173611 </v>
   <v>       0.00347222 </v>
   <v>       0.00347222 </v>
   <v>       0.00347222 </v>
   <v>       0.00347222 </v>
   <v>       0.00347222 </v>
   <v>       0.00173611 </v>
   <v>       0.00173611 </v>
   <v>       0.00347222 </v>
   <v>       0.00347222 </v>
   <v>       0.00347222 </v>
   <v>       0.00173611 </v>
   <v>       0.00173611 </v>
   <v>       0.00347222 </v>
   <v>       0.00173611 </v>
   <v>       0.00086806 </v>
  </varray>
  <varray name="tetrahedronlist"  type="int" >
   <v type="int" >        4        2        2        8       45 </v>
   <v type="int" >        4        1        2        2       45 </v>
   <v type="int" >        4        1        2       44       45 </v>
   <v type="int" >        4        2        8       45       51 </v>
   <v type="int" >        4        2       45       45       51 </v>
   <v type="int" >        4        2       44       45       45 </v>
   <v type="int" >        4        3        8        9       51 </v>
   <v type="int" >        4        2        3        8       51 </v>
   <v type="int" >        4        2        3       45       51 </v>
   <v type="int" >        4        3        9       51       52 </v>
   <v type="int" >        4        3       46       51       52 </v>
   <v type="int" >        4        3       45       46       51 </v>
   <v type="int" >        4        4        9       10       52 </v>
   <v type="int" >        4        3        4        9       52 </v>
   <v type="int" >        4        3        4       46       52 </v>
   <v type="int" >        4        4       10       52       53 </v>
   <v type="int" >        4        4       47       52       53 </v>
   <v type="int" >        4        4       46       47       52 </v>
   <v type="int" >        4        5       10       11       53 </v>
   <v type="int" >        4        4        5       10       53 </v>
   <v type="int" >        4        4        5       47       53 </v>
   <v type="int" >        4        5       11       53       54 </v>
   <v type="int" >        4        5       48       53       54 </v>
   <v type="int" >        4        5       47       48       53 </v>
   <v type="int" >        4        6       11       12       54 </v>
   <v type="int" >        4        5        6       11       54 </v>
   <v type="int" >        4        5        6       48       54 </v>
   <v type="int" >        4        6       12       54       55 </v>
   <v type="int" >        4        6       49       54       55 </v>
   <v type="int" >        4        6       48       49       54 </v>
   <v type="int" >        4        7       12       13       55 </v>
   <v type="int" >        4        6        7       12       55 </v>
   <v type="int" >        4        6        7       49       55 </v>
   <v type="int" >        4        7       13       55       56 </v>
   <v type="int" >        4        7       50       55       56 </v>
   <v type="int" >        4        7       49       50       55 </v>
   <v type="int" >        4        6       13       14       56 </v>
   <v type="int" >        4        6        7       13       56 </v>
   <v type="int" >        4        6        7       50       56 </v>
   <v type="int" >        4        6       14       56       57 </v>
   <v type="int" >        4        6       49       56       57 </v>
   <v type="int" >        4        6       49       50       56 </v>
   <v type="int" >        4        5       14       15       57 </v>
   <v type="int" >        4        5        6       14       57 </v>
   <v type="int" >        4        5        6       49       57 </v>
   <v type="int" >        4        5       15       57       58 </v>
   <v type="int" >        4        5       48       57       58 </v>
   <v type="int" >        4        5       48       49       57 </v>
   <v type="int" >        4        4       15       16       58 </v>
   <v type="int" >        4        4        5       15       58 </v>
   <v type="int" >        4        4        5       48       58 </v>
   <v type="int" >        4        4       16       58       59 </v>
   <v type="int" >        4        4       47       58       59 </v>
   <v type="int" >        4        4       47       48       58 </v>
   <v type="int" >        4        3       16       17       59 </v>
   <v type="int" >        4        3        4       16       59 </v>
   <v type="int" >        4        3        4       47       59 </v>
   <v type="int" >        4        3       17       59       60 </v>
   <v type="int" >        4        3       46       59       60 </v>
   <v type="int" >        4        3       46       47       59 </v>
   <v type="int" >        4        2       17       18       60 </v>
   <v type="int" >        4        2        3       17       60 </v>
   <v type="int" >        4        2        3       46       60 </v>
   <v type="int" >        4        2       18       60       61 </v>
   <v type="int" >        4        2       45       60       61 </v>
   <v type="int" >        4        2       45       46       60 </v>
   <v type="int" >        4        1        2       18       61 </v>
   <v type="int" >        4        1        2       45       61 </v>
   <v type="int" >        4        1       44       45       61 </v>
   <v type="int" >        4        3        8        9       46 </v>
   <v type="int" >        4        2        3        8       46 </v>
   <v type="int" >        4        2        8       45       46 </v>
   <v type="int" >        4        8        9       46       52 </v>
   <v type="int" >        4        8       46       51       52 </v>
   <v type="int" >        4        8       45       46       51 </v>
   <v type="int" >        4        9        9       19       52 </v>
   <v type="int" >        4        8        9        9       52 </v>
   <v type="int" >        4        8        9       51       52 </v>
   <v type="int" >        4        9       19       52       62 </v>
   <v type="int" >        4        9       52       52       62 </v>
   <v type="int" >        4        9       51       52       52 </v>
   <v type="int" >        4       10       19       20       62 </v>
   <v type="int" >        4        9       10       19       62 </v>
   <v type="int" >        4        9       10       52       62 </v>
   <v type="int" >        4       10       20       62       63 </v>
   <v type="int" >        4       10       53       62       63 </v>
   <v type="int" >        4       10       52       53       62 </v>
   <v type="int" >        4       11       20       21       63 </v>
   <v type="int" >        4       10       11       20       63 </v>
   <v type="int" >        4       10       11       53       63 </v>
   <v type="int" >        4       11       21       63       64 </v>
   <v type="int" >        4       11       54       63       64 </v>
   <v type="int" >        4       11       53       54       63 </v>
   <v type="int" >        4       12       21       22       64 </v>
   <v type="int" >        4       11       12       21       64 </v>
   <v type="int" >        4       11       12       54       64 </v>
   <v type="int" >        4       12       22       64       65 </v>
   <v type="int" >        4       12       55       64       65 </v>
   <v type="int" >        4       12       54       55       64 </v>
   <v type="int" >        4       13       22       23       65 </v>
   <v type="int" >        4       12       13       22       65 </v>
   <v type="int" >        4       12       13       55       65 </v>
   <v type="int" >        4       13       23       65       66 </v>
   <v type="int" >        4       13       56       65       66 </v>
   <v type="int" >        4       13       55       56       65 </v>
   <v type="int" >        4       14       23       24       66 </v>
   <v type="int" >        4       13       14       23       66 </v>
   <v type="int" >        4       13       14       56       66 </v>
   <v type="int" >        4       14       24       66       67 </v>
   <v type="int" >        4       14       57       66       67 </v>
   <v type="int" >        4       14       56       57       66 </v>
   <v type="int" >        4       15       24       25       67 </v>
   <v type="int" >        4       14       15       24       67 </v>
   <v type="int" >        4       14       15       57       67 </v>
   <v type="int" >        4       15       25       67       68 </v>
   <v type="int" >        4       15       58       67       68 </v>
   <v type="int" >        4       15       57       58       67 </v>
   <v type="int" >        4       16       25       26       68 </v>
   <v type="int" >        4       15       16       25       68 </v>
   <v type="int" >        4       15       16       58       68 </v>
   <v type="int" >        4       16       26       68       69 </v>
   <v type="int" >        4       16       59       68       69 </v>
   <v type="int" >        4       16       58       59       68 </v>
   <v type="int" >        4       17       26       27       69 </v>
   <v type="int" >        4       16       17       26       69 </v>
   <v type="int" >        4       16       17       59       69 </v>
   <v type="int" >        4       17       27       69       70 </v>
   <v type="int" >        4       17       60       69       70 </v>
   <v type="int" >        4       17       59       60       69 </v>
   <v type="int" >        4       17       18       27       70 </v>
   <v type="int" >        4       17       18       60       70 </v>
   <v type="int" >        4       18       60       61       70 </v>
   <v type="int" >        4        4        9       10       47 </v>
   <v type="int" >        4        3        4        9       47 </v>
   <v type="int" >        4        3        9       46       47 </v>
   <v type="int" >        4        9       10       47       53 </v>
   <v type="int" >        4        9       47       52       53 </v>
   <v type="int" >        4        9       46       47       52 </v>
   <v type="int" >        4       10       19       20       53 </v>
   <v type="int" >        4        9       10       19       53 </v>
   <v type="int" >        4        9       19       52       53 </v>
   <v type="int" >        4       19       20       53       63 </v>
   <v type="int" >        4       19       53       62       63 </v>
   <v type="int" >        4       19       52       53       62 </v>
   <v type="int" >        4       20       20       28       63 </v>
   <v type="int" >        4       19       20       20       63 </v>
   <v type="int" >        4       19       20       62       63 </v>
   <v type="int" >        4       20       28       63       71 </v>
   <v type="int" >        4       20       63       63       71 </v>
   <v type="int" >        4       20       62       63       63 </v>
   <v type="int" >        4       21       28       29       71 </v>
   <v type="int" >        4       20       21       28       71 </v>
   <v type="int" >        4       20       21       63       71 </v>
   <v type="int" >        4       21       29       71       72 </v>
   <v type="int" >        4       21       64       71       72 </v>
   <v type="int" >        4       21       63       64       71 </v>
   <v type="int" >        4       22       29       30       72 </v>
   <v type="int" >        4       21       22       29       72 </v>
   <v type="int" >        4       21       22       64       72 </v>
   <v type="int" >        4       22       30       72       73 </v>
   <v type="int" >        4       22       65       72       73 </v>
   <v type="int" >        4       22       64       65       72 </v>
   <v type="int" >        4       23       30       31       73 </v>
   <v type="int" >        4       22       23       30       73 </v>
   <v type="int" >        4       22       23       65       73 </v>
   <v type="int" >        4       23       31       73       74 </v>
   <v type="int" >        4       23       66       73       74 </v>
   <v type="int" >        4       23       65       66       73 </v>
   <v type="int" >        4       24       31       32       74 </v>
   <v type="int" >        4       23       24       31       74 </v>
   <v type="int" >        4       23       24       66       74 </v>
   <v type="int" >        4       24       32       74       75 </v>
   <v type="int" >        4       24       67       74       75 </v>
   <v type="int" >        4       24       66       67       74 </v>
   <v type="int" >        4       25       32       33       75 </v>
   <v type="int" >        4       24       25       32       75 </v>
   <v type="int" >        4       24       25       67       75 </v>
   <v type="int" >        4       25       33       75       76 </v>
   <v type="int" >        4       25       68       75       76 </v>
   <v type="int" >        4       25       67       68       75 </v>
   <v type="int" >        4       26       33       34       76 </v>
   <v type="int" >        4       25       26       33       76 </v>
   <v type="int" >        4       25       26       68       76 </v>
   <v type="int" >        4       26       34       76       77 </v>
   <v type="int" >        4       26       69       76       77 </v>
   <v type="int" >        4       26       68       69       76 </v>
   <v type="int" >        4       26       27       34       77 </v>
   <v type="int" >        4       26       27       69       77 </v>
   <v type="int" >        4       27       69       70       77 </v>
   <v type="int" >        4        5       10       11       48 </v>
   <v type="int" >        4        4        5       10       48 </v>
   <v type="int" >        4        4       10       47       48 </v>
   <v type="int" >        4       10       11       48       54 </v>
   <v type="int" >        4       10       48       53       54 </v>
   <v type="int" >        4       10       47       48       53 </v>
   <v type="int" >        4       11       20       21       54 </v>
   <v type="int" >        4       10       11       20       54 </v>
   <v type="int" >        4       10       20       53       54 </v>
   <v type="int" >        4       20       21       54       64 </v>
   <v type="int" >        4       20       54       63       64 </v>
   <v type="int" >        4       20       53       54       63 </v>
   <v type="int" >        4       21       28       29       64 </v>
   <v type="int" >        4       20       21       28       64 </v>
   <v type="int" >        4       20       28       63       64 </v>
   <v type="int" >        4       28       29       64       72 </v>
   <v type="int" >        4       28       64       71       72 </v>
   <v type="int" >        4       28       63       64       71 </v>
   <v type="int" >        4       29       29       35       72 </v>
   <v type="int" >        4       28       29       29       72 </v>
   <v type="int" >        4       28       29       71       72 </v>
   <v type="int" >        4       29       35       72       78 </v>
   <v type="int" >        4       29       72       72       78 </v>
   <v type="int" >        4       29       71       72       72 </v>
   <v type="int" >        4       30       35       36       78 </v>
   <v type="int" >        4       29       30       35       78 </v>
   <v type="int" >        4       29       30       72       78 </v>
   <v type="int" >        4       30       36       78       79 </v>
   <v type="int" >        4       30       73       78       79 </v>
   <v type="int" >        4       30       72       73       78 </v>
   <v type="int" >        4       31       36       37       79 </v>
   <v type="int" >        4       30       31       36       79 </v>
   <v type="int" >        4       30       31       73       79 </v>
   <v type="int" >        4       31       37       79       80 </v>
   <v type="int" >        4       31       74       79       80 </v>
   <v type="int" >        4       31       73       74       79 </v>
   <v type="int" >        4       32       37       38       80 </v>
   <v type="int" >        4       31       32       37       80 </v>
   <v type="int" >        4       31       32       74       80 </v>
   <v type="int" >        4       32       38       80       81 </v>
   <v type="int" >        4       32       75       80       81 </v>
   <v type="int" >        4       32       74       75       80 </v>
   <v type="int" >        4       33       38       39       81 </v>
   <v type="int" >        4       32       33       38       81 </v>
   <v type="int" >        4       32       33       75       81 </v>
   <v type="int" >        4       33       39       81       82 </v>
   <v type="int" >        4       33       76       81       82 </v>
   <v type="int" >        4       33       75       76       81 </v>
   <v type="int" >        4       33       34       39       82 </v>
   <v type="int" >        4       33       34       76       82 </v>
   <v type="int" >        4       34       76       77       82 </v>
   <v type="int" >        4        6       11       12       49 </v>
   <v type="int" >        4        5        6       11       49 </v>
   <v type="int" >        4        5       11       48       49 </v>
   <v type="int" >        4       11       12       49       55 </v>
   <v type="int" >        4       11       49       54       55 </v>
   <v type="int" >        4       11       48       49       54 </v>
   <v type="int" >        4       12       21       22       55 </v>
   <v type="int" >        4       11       12       21       55 </v>
   <v type="int" >        4       11       21       54       55 </v>
   <v type="int" >        4       21       22       55       65 </v>
   <v type="int" >        4       21       55       64       65 </v>
   <v type="int" >        4       21       54       55       64 </v>
   <v type="int" >        4       22       29       30       65 </v>
   <v type="int" >        4       21       22       29       65 </v>
   <v type="int" >        4       21       29       64       65 </v>
   <v type="int" >        4       29       30       65       73 </v>
   <v type="int" >        4       29       65       72       73 </v>
   <v type="int" >        4       29       64       65       72 </v>
   <v type="int" >        4       30       35       36       73 </v>
   <v type="int" >        4       29       30       35       73 </v>
   <v type="int" >        4       29       35       72       73 </v>
   <v type="int" >        4       35       36       73       79 </v>
   <v type="int" >        4       35       73       78       79 </v>
   <v type="int" >        4       35       72       73       78 </v>
   <v type="int" >        4       36       36       40       79 </v>
   <v type="int" >        4       35       36       36       79 </v>
   <v type="int" >        4       35       36       78       79 </v>
   <v type="int" >        4       36       40       79       83 </v>
   <v type="int" >        4       36       79       79       83 </v>
   <v type="int" >        4       36       78       79       79 </v>
   <v type="int" >        4       37       40       41       83 </v>
   <v type="int" >        4       36       37       40       83 </v>
   <v type="int" >        4       36       37       79       83 </v>
   <v type="int" >        4       37       41       83       84 </v>
   <v type="int" >        4       37       80       83       84 </v>
   <v type="int" >        4       37       79       80       83 </v>
   <v type="int" >        4       38       41       42       84 </v>
   <v type="int" >        4       37       38       41       84 </v>
   <v type="int" >        4       37       38       80       84 </v>
   <v type="int" >        4       38       42       84       85 </v>
   <v type="int" >        4       38       81       84       85 </v>
   <v type="int" >        4       38       80       81       84 </v>
   <v type="int" >        4       38       39       42       85 </v>
   <v type="int" >        4       38       39       81       85 </v>
   <v type="int" >        4       39       81       82       85 </v>
   <v type="int" >        4        7       12       13       50 </v>
   <v type="int" >        4        6        7       12       50 </v>
   <v type="int" >        4        6       12       49       50 </v>
   <v type="int" >        4       12       13       50       56 </v>
   <v type="int" >        4       12       50       55       56 </v>
   <v type="int" >        4       12       49       50       55 </v>
   <v type="int" >        4       13       22       23       56 </v>
   <v type="int" >        4       12       13       22       56 </v>
   <v type="int" >        4       12       22       55       56 </v>
   <v type="int" >        4       22       23       56       66 </v>
   <v type="int" >        4       22       56       65       66 </v>
   <v type="int" >        4       22       55       56       65 </v>
   <v type="int" >        4       23       30       31       66 </v>
   <v type="int" >        4       22       23       30       66 </v>
   <v type="int" >        4       22       30       65       66 </v>
   <v type="int" >        4       30       31       66       74 </v>
   <v type="int" >        4       30       66       73       74 </v>
   <v type="int" >        4       30       65       66       73 </v>
   <v type="int" >        4       31       36       37       74 </v>
   <v type="int" >        4       30       31       36       74 </v>
   <v type="int" >        4       30       36       73       74 </v>
   <v type="int" >        4       36       37       74       80 </v>
   <v type="int" >        4       36       74       79       80 </v>
   <v type="int" >        4       36       73       74       79 </v>
   <v type="int" >        4       37       40       41       80 </v>
   <v type="int" >        4       36       37       40       80 </v>
   <v type="int" >        4       36       40       79       80 </v>
   <v type="int" >        4       40       41       80       84 </v>
   <v type="int" >        4       40       80       83       84 </v>
   <v type="int" >        4       40       79       80       83 </v>
   <v type="int" >        4       41       41       43       84 </v>
   <v type="int" >        4       40       41       41       84 </v>
   <v type="int" >        4       40       41       83       84 </v>
   <v type="int" >        4       41       43       84       86 </v>
   <v type="int" >        4       41       84       84       86 </v>
   <v type="int" >        4       41       83       84       84 </v>
   <v type="int" >        4       41       42       43       86 </v>
   <v type="int" >        4       41       42       84       86 </v>
   <v type="int" >        4       42       84       85       86 </v>
   <v type="int" >        4        6       13       14       49 </v>
   <v type="int" >        4        6        7       13       49 </v>
   <v type="int" >        4        7       13       49       50 </v>
   <v type="int" >        4       13       14       49       57 </v>
   <v type="int" >        4       13       49       56       57 </v>
   <v type="int" >        4       13       49       50       56 </v>
   <v type="int" >        4       14       23       24       57 </v>
   <v type="int" >        4       13       14       23       57 </v>
   <v type="int" >        4       13       23       56       57 </v>
   <v type="int" >        4       23       24       57       67 </v>
   <v type="int" >        4       23       57       66       67 </v>
   <v type="int" >        4       23       56       57       66 </v>
   <v type="int" >        4       24       31       32       67 </v>
   <v type="int" >        4       23       24       31       67 </v>
   <v type="int" >        4       23       31       66       67 </v>
   <v type="int" >        4       31       32       67       75 </v>
   <v type="int" >        4       31       67       74       75 </v>
   <v type="int" >        4       31       66       67       74 </v>
   <v type="int" >        4       32       37       38       75 </v>
   <v type="int" >        4       31       32       37       75 </v>
   <v type="int" >        4       31       37       74       75 </v>
   <v type="int" >        4       37       38       75       81 </v>
   <v type="int" >        4       37       75       80       81 </v>
   <v type="int" >        4       37       74       75       80 </v>
   <v type="int" >        4       38       41       42       81 </v>
   <v type="int" >        4       37       38       41       81 </v>
   <v type="int" >        4       37       41       80       81 </v>
   <v type="int" >        4       41       42       81       85 </v>
   <v type="int" >        4       41       81       84       85 </v>
   <v type="int" >        4       41       80       81       84 </v>
   <v type="int" >        4       41       42       43       85 </v>
   <v type="int" >        4       41       43       84       85 </v>
   <v type="int" >        4       43       84       85       86 </v>
   <v type="int" >        4        5       14       15       48 </v>
   <v type="int" >        4        5        6       14       48 </v>
   <v type="int" >        4        6       14       48       49 </v>
   <v type="int" >        4       14       15       48       58 </v>
   <v type="int" >        4       14       48       57       58 </v>
   <v type="int" >        4       14       48       49       57 </v>
   <v type="int" >        4       15       24       25       58 </v>
   <v type="int" >        4       14       15       24       58 </v>
   <v type="int" >        4       14       24       57       58 </v>
   <v type="int" >        4       24       25       58       68 </v>
   <v type="int" >        4       24       58       67       68 </v>
   <v type="int" >        4       24       57       58       67 </v>
   <v type="int" >        4       25       32       33       68 </v>
   <v type="int" >        4       24       25       32       68 </v>
   <v type="int" >        4       24       32       67       68 </v>
   <v type="int" >        4       32       33       68       76 </v>
   <v type="int" >        4       32       68       75       76 </v>
   <v type="int" >        4       32       67       68       75 </v>
   <v type="int" >        4       33       38       39       76 </v>
   <v type="int" >        4       32       33       38       76 </v>
   <v type="int" >        4       32       38       75       76 </v>
   <v type="int" >        4       38       39       76       82 </v>
   <v type="int" >        4       38       76       81       82 </v>
   <v type="int" >        4       38       75       76       81 </v>
   <v type="int" >        4       38       39       42       82 </v>
   <v type="int" >        4       38       42       81       82 </v>
   <v type="int" >        4       42       81       82       85 </v>
   <v type="int" >        4        4       15       16       47 </v>
   <v type="int" >        4        4        5       15       47 </v>
   <v type="int" >        4        5       15       47       48 </v>
   <v type="int" >        4       15       16       47       59 </v>
   <v type="int" >        4       15       47       58       59 </v>
   <v type="int" >        4       15       47       48       58 </v>
   <v type="int" >        4       16       25       26       59 </v>
   <v type="int" >        4       15       16       25       59 </v>
   <v type="int" >        4       15       25       58       59 </v>
   <v type="int" >        4       25       26       59       69 </v>
   <v type="int" >        4       25       59       68       69 </v>
   <v type="int" >        4       25       58       59       68 </v>
   <v type="int" >        4       26       33       34       69 </v>
   <v type="int" >        4       25       26       33       69 </v>
   <v type="int" >        4       25       33       68       69 </v>
   <v type="int" >        4       33       34       69       77 </v>
   <v type="int" >        4       33       69       76       77 </v>
   <v type="int" >        4       33       68       69       76 </v>
   <v type="int" >        4       33       34       39       77 </v>
   <v type="int" >        4       33       39       76       77 </v>
   <v type="int" >        4       39       76       77       82 </v>
   <v type="int" >        4        3       16       17       46 </v>
   <v type="int" >        4        3        4       16       46 </v>
   <v type="int" >        4        4       16       46       47 </v>
   <v type="int" >        4       16       17       46       60 </v>
   <v type="int" >        4       16       46       59       60 </v>
   <v type="int" >        4       16       46       47       59 </v>
   <v type="int" >        4       17       26       27       60 </v>
   <v type="int" >        4       16       17       26       60 </v>
   <v type="int" >        4       16       26       59       60 </v>
   <v type="int" >        4       26       27       60       70 </v>
   <v type="int" >        4       26       60       69       70 </v>
   <v type="int" >        4       26       59       60       69 </v>
   <v type="int" >        4       26       27       34       70 </v>
   <v type="int" >        4       26       34       69       70 </v>
   <v type="int" >        4       34       69       70       77 </v>
   <v type="int" >        4        2       17       18       45 </v>
   <v type="int" >        4        2        3       17       45 </v>
   <v type="int" >        4        3       17       45       46 </v>
   <v type="int" >        4       17       18       45       61 </v>
   <v type="int" >        4       17       45       60       61 </v>
   <v type="int" >        4       17       45       46       60 </v>
   <v type="int" >        4       17       18       27       61 </v>
   <v type="int" >        4       17       27       60       61 </v>
   <v type="int" >        4       27       60       61       70 </v>
   <v type="int" >        4        1        2       18       44 </v>
   <v type="int" >        4        2       18       44       45 </v>
   <v type="int" >        4       18       44       45       61 </v>
   <v type="int" >        4       45       45       51       88 </v>
   <v type="int" >        4       44       45       45       88 </v>
   <v type="int" >        4       44       45       87       88 </v>
   <v type="int" >        4       45       51       88       94 </v>
   <v type="int" >        4       45       88       88       94 </v>
   <v type="int" >        4       45       87       88       88 </v>
   <v type="int" >        4       46       51       52       94 </v>
   <v type="int" >        4       45       46       51       94 </v>
   <v type="int" >        4       45       46       88       94 </v>
   <v type="int" >        4       46       52       94       95 </v>
   <v type="int" >        4       46       89       94       95 </v>
   <v type="int" >        4       46       88       89       94 </v>
   <v type="int" >        4       47       52       53       95 </v>
   <v type="int" >        4       46       47       52       95 </v>
   <v type="int" >        4       46       47       89       95 </v>
   <v type="int" >        4       47       53       95       96 </v>
   <v type="int" >        4       47       90       95       96 </v>
   <v type="int" >        4       47       89       90       95 </v>
   <v type="int" >        4       48       53       54       96 </v>
   <v type="int" >        4       47       48       53       96 </v>
   <v type="int" >        4       47       48       90       96 </v>
   <v type="int" >        4       48       54       96       97 </v>
   <v type="int" >        4       48       91       96       97 </v>
   <v type="int" >        4       48       90       91       96 </v>
   <v type="int" >        4       49       54       55       97 </v>
   <v type="int" >        4       48       49       54       97 </v>
   <v type="int" >        4       48       49       91       97 </v>
   <v type="int" >        4       49       55       97       98 </v>
   <v type="int" >        4       49       92       97       98 </v>
   <v type="int" >        4       49       91       92       97 </v>
   <v type="int" >        4       50       55       56       98 </v>
   <v type="int" >        4       49       50       55       98 </v>
   <v type="int" >        4       49       50       92       98 </v>
   <v type="int" >        4       50       56       98       99 </v>
   <v type="int" >        4       50       93       98       99 </v>
   <v type="int" >        4       50       92       93       98 </v>
   <v type="int" >        4       49       56       57       99 </v>
   <v type="int" >        4       49       50       56       99 </v>
   <v type="int" >        4       49       50       93       99 </v>
   <v type="int" >        4       49       57       99      100 </v>
   <v type="int" >        4       49       92       99      100 </v>
   <v type="int" >        4       49       92       93       99 </v>
   <v type="int" >        4       48       57       58      100 </v>
   <v type="int" >        4       48       49       57      100 </v>
   <v type="int" >        4       48       49       92      100 </v>
   <v type="int" >        4       48       58      100      101 </v>
   <v type="int" >        4       48       91      100      101 </v>
   <v type="int" >        4       48       91       92      100 </v>
   <v type="int" >        4       47       58       59      101 </v>
   <v type="int" >        4       47       48       58      101 </v>
   <v type="int" >        4       47       48       91      101 </v>
   <v type="int" >        4       47       59      101      102 </v>
   <v type="int" >        4       47       90      101      102 </v>
   <v type="int" >        4       47       90       91      101 </v>
   <v type="int" >        4       46       59       60      102 </v>
   <v type="int" >        4       46       47       59      102 </v>
   <v type="int" >        4       46       47       90      102 </v>
   <v type="int" >        4       46       60      102      103 </v>
   <v type="int" >        4       46       89      102      103 </v>
   <v type="int" >        4       46       89       90      102 </v>
   <v type="int" >        4       45       60       61      103 </v>
   <v type="int" >        4       45       46       60      103 </v>
   <v type="int" >        4       45       46       89      103 </v>
   <v type="int" >        4       45       61      103      104 </v>
   <v type="int" >        4       45       88      103      104 </v>
   <v type="int" >        4       45       88       89      103 </v>
   <v type="int" >        4       44       45       61      104 </v>
   <v type="int" >        4       44       45       88      104 </v>
   <v type="int" >        4       44       87       88      104 </v>
   <v type="int" >        4       46       51       52       89 </v>
   <v type="int" >        4       45       46       51       89 </v>
   <v type="int" >        4       45       51       88       89 </v>
   <v type="int" >        4       51       52       89       95 </v>
   <v type="int" >        4       51       89       94       95 </v>
   <v type="int" >        4       51       88       89       94 </v>
   <v type="int" >        4       52       52       62       95 </v>
   <v type="int" >        4       51       52       52       95 </v>
   <v type="int" >        4       51       52       94       95 </v>
   <v type="int" >        4       52       62       95      105 </v>
   <v type="int" >        4       52       95       95      105 </v>
   <v type="int" >        4       52       94       95       95 </v>
   <v type="int" >        4       53       62       63      105 </v>
   <v type="int" >        4       52       53       62      105 </v>
   <v type="int" >        4       52       53       95      105 </v>
   <v type="int" >        4       53       63      105      106 </v>
   <v type="int" >        4       53       96      105      106 </v>
   <v type="int" >        4       53       95       96      105 </v>
   <v type="int" >        4       54       63       64      106 </v>
   <v type="int" >        4       53       54       63      106 </v>
   <v type="int" >        4       53       54       96      106 </v>
   <v type="int" >        4       54       64      106      107 </v>
   <v type="int" >        4       54       97      106      107 </v>
   <v type="int" >        4       54       96       97      106 </v>
   <v type="int" >        4       55       64       65      107 </v>
   <v type="int" >        4       54       55       64      107 </v>
   <v type="int" >        4       54       55       97      107 </v>
   <v type="int" >        4       55       65      107      108 </v>
   <v type="int" >        4       55       98      107      108 </v>
   <v type="int" >        4       55       97       98      107 </v>
   <v type="int" >        4       56       65       66      108 </v>
   <v type="int" >        4       55       56       65      108 </v>
   <v type="int" >        4       55       56       98      108 </v>
   <v type="int" >        4       56       66      108      109 </v>
   <v type="int" >        4       56       99      108      109 </v>
   <v type="int" >        4       56       98       99      108 </v>
   <v type="int" >        4       57       66       67      109 </v>
   <v type="int" >        4       56       57       66      109 </v>
   <v type="int" >        4       56       57       99      109 </v>
   <v type="int" >        4       57       67      109      110 </v>
   <v type="int" >        4       57      100      109      110 </v>
   <v type="int" >        4       57       99      100      109 </v>
   <v type="int" >        4       58       67       68      110 </v>
   <v type="int" >        4       57       58       67      110 </v>
   <v type="int" >        4       57       58      100      110 </v>
   <v type="int" >        4       58       68      110      111 </v>
   <v type="int" >        4       58      101      110      111 </v>
   <v type="int" >        4       58      100      101      110 </v>
   <v type="int" >        4       59       68       69      111 </v>
   <v type="int" >        4       58       59       68      111 </v>
   <v type="int" >        4       58       59      101      111 </v>
   <v type="int" >        4       59       69      111      112 </v>
   <v type="int" >        4       59      102      111      112 </v>
   <v type="int" >        4       59      101      102      111 </v>
   <v type="int" >        4       60       69       70      112 </v>
   <v type="int" >        4       59       60       69      112 </v>
   <v type="int" >        4       59       60      102      112 </v>
   <v type="int" >        4       60       70      112      113 </v>
   <v type="int" >        4       60      103      112      113 </v>
   <v type="int" >        4       60      102      103      112 </v>
   <v type="int" >        4       60       61       70      113 </v>
   <v type="int" >        4       60       61      103      113 </v>
   <v type="int" >        4       61      103      104      113 </v>
   <v type="int" >        4       47       52       53       90 </v>
   <v type="int" >        4       46       47       52       90 </v>
   <v type="int" >        4       46       52       89       90 </v>
   <v type="int" >        4       52       53       90       96 </v>
   <v type="int" >        4       52       90       95       96 </v>
   <v type="int" >        4       52       89       90       95 </v>
   <v type="int" >        4       53       62       63       96 </v>
   <v type="int" >        4       52       53       62       96 </v>
   <v type="int" >        4       52       62       95       96 </v>
   <v type="int" >        4       62       63       96      106 </v>
   <v type="int" >        4       62       96      105      106 </v>
   <v type="int" >        4       62       95       96      105 </v>
   <v type="int" >        4       63       63       71      106 </v>
   <v type="int" >        4       62       63       63      106 </v>
   <v type="int" >        4       62       63      105      106 </v>
   <v type="int" >        4       63       71      106      114 </v>
   <v type="int" >        4       63      106      106      114 </v>
   <v type="int" >        4       63      105      106      106 </v>
   <v type="int" >        4       64       71       72      114 </v>
   <v type="int" >        4       63       64       71      114 </v>
   <v type="int" >        4       63       64      106      114 </v>
   <v type="int" >        4       64       72      114      115 </v>
   <v type="int" >        4       64      107      114      115 </v>
   <v type="int" >        4       64      106      107      114 </v>
   <v type="int" >        4       65       72       73      115 </v>
   <v type="int" >        4       64       65       72      115 </v>
   <v type="int" >        4       64       65      107      115 </v>
   <v type="int" >        4       65       73      115      116 </v>
   <v type="int" >        4       65      108      115      116 </v>
   <v type="int" >        4       65      107      108      115 </v>
   <v type="int" >        4       66       73       74      116 </v>
   <v type="int" >        4       65       66       73      116 </v>
   <v type="int" >        4       65       66      108      116 </v>
   <v type="int" >        4       66       74      116      117 </v>
   <v type="int" >        4       66      109      116      117 </v>
   <v type="int" >        4       66      108      109      116 </v>
   <v type="int" >        4       67       74       75      117 </v>
   <v type="int" >        4       66       67       74      117 </v>
   <v type="int" >        4       66       67      109      117 </v>
   <v type="int" >        4       67       75      117      118 </v>
   <v type="int" >        4       67      110      117      118 </v>
   <v type="int" >        4       67      109      110      117 </v>
   <v type="int" >        4       68       75       76      118 </v>
   <v type="int" >        4       67       68       75      118 </v>
   <v type="int" >        4       67       68      110      118 </v>
   <v type="int" >        4       68       76      118      119 </v>
   <v type="int" >        4       68      111      118      119 </v>
   <v type="int" >        4       68      110      111      118 </v>
   <v type="int" >        4       69       76       77      119 </v>
   <v type="int" >        4       68       69       76      119 </v>
   <v type="int" >        4       68       69      111      119 </v>
   <v type="int" >        4       69       77      119      120 </v>
   <v type="int" >        4       69      112      119      120 </v>
   <v type="int" >        4       69      111      112      119 </v>
   <v type="int" >        4       69       70       77      120 </v>
   <v type="int" >        4       69       70      112      120 </v>
   <v type="int" >        4       70      112      113      120 </v>
   <v type="int" >        4       48       53       54       91 </v>
   <v type="int" >        4       47       48       53       91 </v>
   <v type="int" >        4       47       53       90       91 </v>
   <v type="int" >        4       53       54       91       97 </v>
   <v type="int" >        4       53       91       96       97 </v>
   <v type="int" >        4       53       90       91       96 </v>
   <v type="int" >        4       54       63       64       97 </v>
   <v type="int" >        4       53       54       63       97 </v>
   <v type="int" >        4       53       63       96       97 </v>
   <v type="int" >        4       63       64       97      107 </v>
   <v type="int" >        4       63       97      106      107 </v>
   <v type="int" >        4       63       96       97      106 </v>
   <v type="int" >        4       64       71       72      107 </v>
   <v type="int" >        4       63       64       71      107 </v>
   <v type="int" >        4       63       71      106      107 </v>
   <v type="int" >        4       71       72      107      115 </v>
   <v type="int" >        4       71      107      114      115 </v>
   <v type="int" >        4       71      106      107      114 </v>
   <v type="int" >        4       72       72       78      115 </v>
   <v type="int" >        4       71       72       72      115 </v>
   <v type="int" >        4       71       72      114      115 </v>
   <v type="int" >        4       72       78      115      121 </v>
   <v type="int" >        4       72      115      115      121 </v>
   <v type="int" >        4       72      114      115      115 </v>
   <v type="int" >        4       73       78       79      121 </v>
   <v type="int" >        4       72       73       78      121 </v>
   <v type="int" >        4       72       73      115      121 </v>
   <v type="int" >        4       73       79      121      122 </v>
   <v type="int" >        4       73      116      121      122 </v>
   <v type="int" >        4       73      115      116      121 </v>
   <v type="int" >        4       74       79       80      122 </v>
   <v type="int" >        4       73       74       79      122 </v>
   <v type="int" >        4       73       74      116      122 </v>
   <v type="int" >        4       74       80      122      123 </v>
   <v type="int" >        4       74      117      122      123 </v>
   <v type="int" >        4       74      116      117      122 </v>
   <v type="int" >        4       75       80       81      123 </v>
   <v type="int" >        4       74       75       80      123 </v>
   <v type="int" >        4       74       75      117      123 </v>
   <v type="int" >        4       75       81      123      124 </v>
   <v type="int" >        4       75      118      123      124 </v>
   <v type="int" >        4       75      117      118      123 </v>
   <v type="int" >        4       76       81       82      124 </v>
   <v type="int" >        4       75       76       81      124 </v>
   <v type="int" >        4       75       76      118      124 </v>
   <v type="int" >        4       76       82      124      125 </v>
   <v type="int" >        4       76      119      124      125 </v>
   <v type="int" >        4       76      118      119      124 </v>
   <v type="int" >        4       76       77       82      125 </v>
   <v type="int" >        4       76       77      119      125 </v>
   <v type="int" >        4       77      119      120      125 </v>
   <v type="int" >        4       49       54       55       92 </v>
   <v type="int" >        4       48       49       54       92 </v>
   <v type="int" >        4       48       54       91       92 </v>
   <v type="int" >        4       54       55       92       98 </v>
   <v type="int" >        4       54       92       97       98 </v>
   <v type="int" >        4       54       91       92       97 </v>
   <v type="int" >        4       55       64       65       98 </v>
   <v type="int" >        4       54       55       64       98 </v>
   <v type="int" >        4       54       64       97       98 </v>
   <v type="int" >        4       64       65       98      108 </v>
   <v type="int" >        4       64       98      107      108 </v>
   <v type="int" >        4       64       97       98      107 </v>
   <v type="int" >        4       65       72       73      108 </v>
   <v type="int" >        4       64       65       72      108 </v>
   <v type="int" >        4       64       72      107      108 </v>
   <v type="int" >        4       72       73      108      116 </v>
   <v type="int" >        4       72      108      115      116 </v>
   <v type="int" >        4       72      107      108      115 </v>
   <v type="int" >        4       73       78       79      116 </v>
   <v type="int" >        4       72       73       78      116 </v>
   <v type="int" >        4       72       78      115      116 </v>
   <v type="int" >        4       78       79      116      122 </v>
   <v type="int" >        4       78      116      121      122 </v>
   <v type="int" >        4       78      115      116      121 </v>
   <v type="int" >        4       79       79       83      122 </v>
   <v type="int" >        4       78       79       79      122 </v>
   <v type="int" >        4       78       79      121      122 </v>
   <v type="int" >        4       79       83      122      126 </v>
   <v type="int" >        4       79      122      122      126 </v>
   <v type="int" >        4       79      121      122      122 </v>
   <v type="int" >        4       80       83       84      126 </v>
   <v type="int" >        4       79       80       83      126 </v>
   <v type="int" >        4       79       80      122      126 </v>
   <v type="int" >        4       80       84      126      127 </v>
   <v type="int" >        4       80      123      126      127 </v>
   <v type="int" >        4       80      122      123      126 </v>
   <v type="int" >        4       81       84       85      127 </v>
   <v type="int" >        4       80       81       84      127 </v>
   <v type="int" >        4       80       81      123      127 </v>
   <v type="int" >        4       81       85      127      128 </v>
   <v type="int" >        4       81      124      127      128 </v>
   <v type="int" >        4       81      123      124      127 </v>
   <v type="int" >        4       81       82       85      128 </v>
   <v type="int" >        4       81       82      124      128 </v>
   <v type="int" >        4       82      124      125      128 </v>
   <v type="int" >        4       50       55       56       93 </v>
   <v type="int" >        4       49       50       55       93 </v>
   <v type="int" >        4       49       55       92       93 </v>
   <v type="int" >        4       55       56       93       99 </v>
   <v type="int" >        4       55       93       98       99 </v>
   <v type="int" >        4       55       92       93       98 </v>
   <v type="int" >        4       56       65       66       99 </v>
   <v type="int" >        4       55       56       65       99 </v>
   <v type="int" >        4       55       65       98       99 </v>
   <v type="int" >        4       65       66       99      109 </v>
   <v type="int" >        4       65       99      108      109 </v>
   <v type="int" >        4       65       98       99      108 </v>
   <v type="int" >        4       66       73       74      109 </v>
   <v type="int" >        4       65       66       73      109 </v>
   <v type="int" >        4       65       73      108      109 </v>
   <v type="int" >        4       73       74      109      117 </v>
   <v type="int" >        4       73      109      116      117 </v>
   <v type="int" >        4       73      108      109      116 </v>
   <v type="int" >        4       74       79       80      117 </v>
   <v type="int" >        4       73       74       79      117 </v>
   <v type="int" >        4       73       79      116      117 </v>
   <v type="int" >        4       79       80      117      123 </v>
   <v type="int" >        4       79      117      122      123 </v>
   <v type="int" >        4       79      116      117      122 </v>
   <v type="int" >        4       80       83       84      123 </v>
   <v type="int" >        4       79       80       83      123 </v>
   <v type="int" >        4       79       83      122      123 </v>
   <v type="int" >        4       83       84      123      127 </v>
   <v type="int" >        4       83      123      126      127 </v>
   <v type="int" >        4       83      122      123      126 </v>
   <v type="int" >        4       84       84       86      127 </v>
   <v type="int" >        4       83       84       84      127 </v>
   <v type="int" >        4       83       84      126      127 </v>
   <v type="int" >        4       84       86      127      129 </v>
   <v type="int" >        4       84      127      127      129 </v>
   <v type="int" >        4       84      126      127      127 </v>
   <v type="int" >        4       84       85       86      129 </v>
   <v type="int" >        4       84       85      127      129 </v>
   <v type="int" >        4       85      127      128      129 </v>
   <v type="int" >        4       49       56       57       92 </v>
   <v type="int" >        4       49       50       56       92 </v>
   <v type="int" >        4       50       56       92       93 </v>
   <v type="int" >        4       56       57       92      100 </v>
   <v type="int" >        4       56       92       99      100 </v>
   <v type="int" >        4       56       92       93       99 </v>
   <v type="int" >        4       57       66       67      100 </v>
   <v type="int" >        4       56       57       66      100 </v>
   <v type="int" >        4       56       66       99      100 </v>
   <v type="int" >        4       66       67      100      110 </v>
   <v type="int" >        4       66      100      109      110 </v>
   <v type="int" >        4       66       99      100      109 </v>
   <v type="int" >        4       67       74       75      110 </v>
   <v type="int" >        4       66       67       74      110 </v>
   <v type="int" >        4       66       74      109      110 </v>
   <v type="int" >        4       74       75      110      118 </v>
   <v type="int" >        4       74      110      117      118 </v>
   <v type="int" >        4       74      109      110      117 </v>
   <v type="int" >        4       75       80       81      118 </v>
   <v type="int" >        4       74       75       80      118 </v>
   <v type="int" >        4       74       80      117      118 </v>
   <v type="int" >        4       80       81      118      124 </v>
   <v type="int" >        4       80      118      123      124 </v>
   <v type="int" >        4       80      117      118      123 </v>
   <v type="int" >        4       81       84       85      124 </v>
   <v type="int" >        4       80       81       84      124 </v>
   <v type="int" >        4       80       84      123      124 </v>
   <v type="int" >        4       84       85      124      128 </v>
   <v type="int" >        4       84      124      127      128 </v>
   <v type="int" >        4       84      123      124      127 </v>
   <v type="int" >        4       84       85       86      128 </v>
   <v type="int" >        4       84       86      127      128 </v>
   <v type="int" >        4       86      127      128      129 </v>
   <v type="int" >        4       48       57       58       91 </v>
   <v type="int" >        4       48       49       57       91 </v>
   <v type="int" >        4       49       57       91       92 </v>
   <v type="int" >        4       57       58       91      101 </v>
   <v type="int" >        4       57       91      100      101 </v>
   <v type="int" >        4       57       91       92      100 </v>
   <v type="int" >        4       58       67       68      101 </v>
   <v type="int" >        4       57       58       67      101 </v>
   <v type="int" >        4       57       67      100      101 </v>
   <v type="int" >        4       67       68      101      111 </v>
   <v type="int" >        4       67      101      110      111 </v>
   <v type="int" >        4       67      100      101      110 </v>
   <v type="int" >        4       68       75       76      111 </v>
   <v type="int" >        4       67       68       75      111 </v>
   <v type="int" >        4       67       75      110      111 </v>
   <v type="int" >        4       75       76      111      119 </v>
   <v type="int" >        4       75      111      118      119 </v>
   <v type="int" >        4       75      110      111      118 </v>
   <v type="int" >        4       76       81       82      119 </v>
   <v type="int" >        4       75       76       81      119 </v>
   <v type="int" >        4       75       81      118      119 </v>
   <v type="int" >        4       81       82      119      125 </v>
   <v type="int" >        4       81      119      124      125 </v>
   <v type="int" >        4       81      118      119      124 </v>
   <v type="int" >        4       81       82       85      125 </v>
   <v type="int" >        4       81       85      124      125 </v>
   <v type="int" >        4       85      124      125      128 </v>
   <v type="int" >        4       47       58       59       90 </v>
   <v type="int" >        4       47       48       58       90 </v>
   <v type="int" >        4       48       58       90       91 </v>
   <v type="int" >        4       58       59       90      102 </v>
   <v type="int" >        4       58       90      101      102 </v>
   <v type="int" >        4       58       90       91      101 </v>
   <v type="int" >        4       59       68       69      102 </v>
   <v type="int" >        4       58       59       68      102 </v>
   <v type="int" >        4       58       68      101      102 </v>
   <v type="int" >        4       68       69      102      112 </v>
   <v type="int" >        4       68      102      111      112 </v>
   <v type="int" >        4       68      101      102      111 </v>
   <v type="int" >        4       69       76       77      112 </v>
   <v type="int" >        4       68       69       76      112 </v>
   <v type="int" >        4       68       76      111      112 </v>
   <v type="int" >        4       76       77      112      120 </v>
   <v type="int" >        4       76      112      119      120 </v>
   <v type="int" >        4       76      111      112      119 </v>
   <v type="int" >        4       76       77       82      120 </v>
   <v type="int" >        4       76       82      119      120 </v>
   <v type="int" >        4       82      119      120      125 </v>
   <v type="int" >        4       46       59       60       89 </v>
   <v type="int" >        4       46       47       59       89 </v>
   <v type="int" >        4       47       59       89       90 </v>
   <v type="int" >        4       59       60       89      103 </v>
   <v type="int" >        4       59       89      102      103 </v>
   <v type="int" >        4       59       89       90      102 </v>
   <v type="int" >        4       60       69       70      103 </v>
   <v type="int" >        4       59       60       69      103 </v>
   <v type="int" >        4       59       69      102      103 </v>
   <v type="int" >        4       69       70      103      113 </v>
   <v type="int" >        4       69      103      112      113 </v>
[...]
       <r>   -8.6239    1.0000 </r>
       <r>   -8.6239    1.0000 </r>
       <r>   -6.7553    1.0000 </r>
       <r>   -6.7553    1.0000 </r>
       <r>   -4.4561    1.0000 </r>
       <r>   -4.4561    1.0000 </r>
       <r>    3.7947    1.0000 </r>
       <r>    3.7947    1.0012 </r>
       <r>    6.4430    0.0000 </r>
       <r>    6.4430    0.0000 </r>
       <r>   15.6437    0.0000 </r>
       <r>   15.6437    0.0000 </r>
      </set>
      <set comment="kpoint 209">
       <r>   -9.8997    1.0000 </r>
       <r>   -9.8997    1.0000 </r>
       <r>   -6.2114    1.0000 </r>
       <r>   -6.2114    1.0000 </r>
       <r>   -2.8351    1.0000 </r>
       <r>   -2.8351    1.0000 </r>
       <r>    2.4947    1.0000 </r>
       <r>    2.4947    1.0000 </r>
       <r>    7.6535    0.0000 </r>
       <r>    7.6535    0.0000 </r>
       <r>   15.1363    0.0000 </r>
       <r>   15.1363    0.0000 </r>
      </set>
      <set comment="kpoint 210">
       <r>  -10.9640    1.0000 </r>
       <r>  -10.9640    1.0000 </r>
       <r>   -5.4398    1.0000 </r>
       <r>   -5.4398    1.0000 </r>
       <r>   -1.3562    1.0000 </r>
       <r>   -1.3562    1.0000 </r>
       <r>    1.3754    1.0000 </r>
       <r>    1.3754    1.0000 </r>
       <r>    8.8472    0.0000 </r>
       <r>    8.8472    0.0000 </r>
       <r>   13.4787    0.0000 </r>
       <r>   13.4787    0.0000 </r>
      </set>
      <set comment="kpoint 211">
       <r>  -11.7479    1.0000 </r>
       <r>  -11.7479    1.0000 </r>
       <r>   -4.4396    1.0000 </r>
       <r>   -4.4396    1.0000 </r>
       <r>   -0.5628    1.0000 </r>
       <r>   -0.5628    1.0000 </r>
       <r>    0.5266    1.0000 </r>
       <r>    0.5266    1.0000 </r>
       <r>   10.0332    0.0000 </r>
       <r>   10.0332    0.0000 </r>
       <r>   12.9021    0.0000 </r>
       <r>   12.9021    0.0000 </r>
      </set>
      <set comment="kpoint 212">
       <r>   -8.6690    1.0000 </r>
       <r>   -8.6690    1.0000 </r>
       <r>   -7.6431    1.0000 </r>
       <r>   -7.6431    1.0000 </r>
       <r>   -3.0195    1.0000 </r>
       <r>   -3.0195    1.0000 </r>
       <r>    3.3876    1.0000 </r>
       <r>    3.3876    1.0000 </r>
       <r>    6.5835    0.0000 </r>
       <r>    6.5835    0.0000 </r>
       <r>   15.0507    0.0000 </r>
       <r>   15.0507    0.0000 </r>
      </set>
      <set comment="kpoint 213">
       <r>   -9.4852    1.0000 </r>
       <r>   -9.4852    1.0000 </r>
       <r>   -7.3810    1.0000 </r>
       <r>   -7.3810    1.0000 </r>
       <r>   -1.6841    1.0000 </r>
       <r>   -1.6841    1.0000 </r>
       <r>    2.6834    1.0000 </r>
       <r>    2.6834    1.0000 </r>
       <r>    7.0761    0.0000 </r>
       <r>    7.0761    0.0000 </r>
       <r>   13.3142    0.0000 </r>
       <r>   13.3142    0.0000 </r>
      </set>
      <set comment="kpoint 214">
       <r>  -10.3516    1.0000 </r>
       <r>  -10.3516    1.0000 </r>
       <r>   -6.5408    1.0000 </r>
       <r>   -6.5408    1.0000 </r>
       <r>   -1.0349    1.0000 </r>
       <r>   -1.0349    1.0000 </r>
       <r>    1.9458    1.0000 </r>
       <r>    1.9458    1.0000 </r>
       <r>    7.8950    0.0000 </r>
       <r>    7.8950    0.0000 </r>
       <r>   12.6639    0.0000 </r>
       <r>   12.6639    0.0000 </r>
      </set>
      <set comment="kpoint 215">
       <r>   -9.0920    1.0000 </r>
       <r>   -9.0920    1.0000 </r>
       <r>   -8.0431    1.0000 </r>
       <r>   -8.0431    1.0000 </r>
       <r>   -1.1970    1.0000 </r>
       <r>   -1.1970    1.0000 </r>
       <r>    2.7911    1.0000 </r>
       <r>    2.7911    1.0000 </r>
       <r>    6.7949    0.0000 </r>
       <r>    6.7949    0.0000 </r>
       <r>   12.5783    0.0000 </r>
       <r>   12.5783    0.0000 </r>
      </set>
     </set>
    </set>
   </array>
  </eigenvalues>
  <separator name="orbital magnetization" >
   <v name="MAGDIPOLOUT">      0.00000000      0.00000000      0.00000000</v>
  </separator>
  <dos>
   <i name="efermi">      5.13179855 </i>
   <total>
    <array>
     <dimension dim="1">gridpoints</dimension>
     <dimension dim="2">spin</dimension>
     <field>energy</field>
     <field>total</field>
     <field>integrated</field>
     <set>
      <set comment="spin 1">
       <r>   -16.5459     0.0000     0.0000 </r>
       <r>   -16.4276     0.0000     0.0000 </r>
       <r>   -16.3093     0.0000     0.0000 </r>
       <r>   -16.1910     0.0000     0.0000 </r>
       <r>   -16.0727     0.0000     0.0000 </r>
       <r>   -15.9544     0.0000     0.0000 </r>
       <r>   -15.8361     0.0000     0.0000 </r>
       <r>   -15.7178     0.0000     0.0000 </r>
       <r>   -15.5995     0.0000     0.0000 </r>
       <r>   -15.4812     0.0000     0.0000 </r>
       <r>   -15.3629     0.0000     0.0000 </r>
       <r>   -15.2446     0.0000     0.0000 </r>
       <r>   -15.1263     0.0000     0.0000 </r>
       <r>   -15.0080     0.0000     0.0000 </r>
       <r>   -14.8897     0.0000     0.0000 </r>
       <r>   -14.7714     0.0000     0.0000 </r>
       <r>   -14.6531     0.0000     0.0000 </r>
       <r>   -14.5348     0.0030     0.0000 </r>
       <r>   -14.4165     0.1877     0.0094 </r>
       <r>   -14.2982     0.2924     0.0399 </r>
       <r>   -14.1799     0.4004     0.0805 </r>
       <r>   -14.0616     0.5809     0.1374 </r>
       <r>   -13.9433     0.6126     0.2126 </r>
       <r>   -13.8250     0.6075     0.2839 </r>
       <r>   -13.7067     0.6201     0.3565 </r>
       <r>   -13.5884     0.6171     0.4300 </r>
       <r>   -13.4701     0.6141     0.5026 </r>
       <r>   -13.3518     0.6250     0.5762 </r>
       <r>   -13.2335     0.6272     0.6503 </r>
       <r>   -13.1152     0.6268     0.7245 </r>
       <r>   -12.9969     0.6198     0.7983 </r>
       <r>   -12.8786     0.6151     0.8710 </r>
       <r>   -12.7603     0.6200     0.9441 </r>
       <r>   -12.6420     0.6287     1.0179 </r>
       <r>   -12.5237     0.6379     1.0929 </r>
       <r>   -12.4054     0.6365     1.1683 </r>
       <r>   -12.2871     0.6348     1.2435 </r>
       <r>   -12.1688     0.6307     1.3185 </r>
       <r>   -12.0505     0.6251     1.3927 </r>
       <r>   -11.9322     0.6275     1.4667 </r>
       <r>   -11.8139     0.6318     1.5412 </r>
       <r>   -11.6956     0.6371     1.6163 </r>
       <r>   -11.5773     0.6434     1.6920 </r>
       <r>   -11.4590     0.6509     1.7685 </r>
       <r>   -11.3407     0.6508     1.8455 </r>
       <r>   -11.2224     0.6507     1.9225 </r>
       <r>   -11.1041     0.6478     1.9994 </r>
       <r>   -10.9858     0.6464     2.0758 </r>
       <r>   -10.8675     0.6487     2.1524 </r>
       <r>   -10.7492     0.6532     2.2294 </r>
       <r>   -10.6309     0.6590     2.3070 </r>
       <r>   -10.5126     0.6648     2.3853 </r>
       <r>   -10.3943     0.6725     2.4644 </r>
       <r>   -10.2760     0.6820     2.5445 </r>
       <r>   -10.1577     0.6935     2.6258 </r>
       <r>   -10.0394     0.7049     2.7085 </r>
       <r>    -9.9211     0.7212     2.7928 </r>
       <r>    -9.8028     0.7417     2.8793 </r>
       <r>    -9.6845     0.7704     2.9687 </r>
       <r>    -9.5662     0.9492     3.0676 </r>
       <r>    -9.4479     1.0369     3.1861 </r>
       <r>    -9.3296     1.1446     3.3123 </r>
       <r>    -9.2112     0.8968     3.4347 </r>
       <r>    -9.0929     0.6572     3.5257 </r>
       <r>    -8.9746     0.5351     3.5945 </r>
       <r>    -8.8563     0.4781     3.6544 </r>
       <r>    -8.7380     0.8132     3.7207 </r>
       <r>    -8.6197     0.5436     3.7946 </r>
       <r>    -8.5014     0.4653     3.8601 </r>
       <r>    -8.3831     0.2296     3.8919 </r>
       <r>    -8.2648     0.2007     3.9173 </r>
       <r>    -8.1465     0.1717     3.9394 </r>
       <r>    -8.0282     0.1604     3.9584 </r>
       <r>    -7.9099     0.2058     3.9796 </r>
       <r>    -7.7916     0.2636     4.0074 </r>
       <r>    -7.6733     0.3253     4.0420 </r>
       <r>    -7.5550     0.7526     4.1029 </r>
       <r>    -7.4367     0.8685     4.2096 </r>
       <r>    -7.3184     0.8640     4.3114 </r>
       <r>    -7.2001     0.7890     4.4063 </r>
       <r>    -7.0818     0.9428     4.5087 </r>
       <r>    -6.9635     1.0966     4.6294 </r>
       <r>    -6.8452     1.2399     4.7682 </r>
       <r>    -6.7269     0.9520     4.8932 </r>
       <r>    -6.6086     0.7070     4.9882 </r>
       <r>    -6.4903     0.6869     5.0707 </r>
       <r>    -6.3720     0.6688     5.1509 </r>
       <r>    -6.2537     0.6518     5.2290 </r>
       <r>    -6.1354     0.6350     5.3051 </r>
       <r>    -6.0171     0.6164     5.3791 </r>
       <r>    -5.8988     0.5974     5.4509 </r>
       <r>    -5.7805     0.5784     5.5205 </r>
       <r>    -5.6622     0.5595     5.5878 </r>
       <r>    -5.5439     0.5405     5.6528 </r>
       <r>    -5.4256     0.5213     5.7156 </r>
       <r>    -5.3073     0.5249     5.7767 </r>
       <r>    -5.1890     0.5702     5.8414 </r>
       <r>    -5.0707     0.6166     5.9116 </r>
       <r>    -4.9524     0.6630     5.9873 </r>
       <r>    -4.8341     0.7094     6.0685 </r>
       <r>    -4.7158     0.7558     6.1552 </r>
       <r>    -4.5975     0.8022     6.2473 </r>
       <r>    -4.4792     0.8200     6.3440 </r>
       <r>    -4.3609     0.8179     6.4416 </r>
       <r>    -4.2426     0.7817     6.5360 </r>
       <r>    -4.1243     0.7647     6.6268 </r>
       <r>    -4.0060     0.7644     6.7173 </r>
       <r>    -3.8877     0.7641     6.8077 </r>
       <r>    -3.7694     0.7644     6.8981 </r>
       <r>    -3.6511     0.7768     6.9891 </r>
       <r>    -3.5328     0.8041     7.0822 </r>
       <r>    -3.4145     0.8899     7.1820 </r>
       <r>    -3.2962     0.9305     7.2904 </r>
       <r>    -3.1779     0.9783     7.4035 </r>
       <r>    -3.0596     1.0206     7.5216 </r>
       <r>    -2.9413     1.0851     7.6460 </r>
       <r>    -2.8230     1.1419     7.7780 </r>
       <r>    -2.7047     1.1776     7.9152 </r>
       <r>    -2.5864     1.2259     8.0573 </r>
       <r>    -2.4681     1.2907     8.2060 </r>
       <r>    -2.3498     1.3766     8.3635 </r>
       <r>    -2.2315     1.4107     8.5308 </r>
       <r>    -2.1132     1.2921     8.6921 </r>
       <r>    -1.9949     1.2409     8.8417 </r>
       <r>    -1.8766     1.2103     8.9864 </r>
       <r>    -1.7583     1.2051     9.1291 </r>
       <r>    -1.6400     1.4944     9.2875 </r>
       <r>    -1.5217     1.6838     9.4761 </r>
       <r>    -1.4034     1.8766     9.6865 </r>
       <r>    -1.2851     2.1843     9.9236 </r>
       <r>    -1.1668     2.6275    10.2346 </r>
       <r>    -1.0485     2.0315    10.5077 </r>
       <r>    -0.9302     1.7953    10.7317 </r>
       <r>    -0.8119     1.6112    10.9328 </r>
       <r>    -0.6936     1.4745    11.1159 </r>
       <r>    -0.5753     1.1107    11.2670 </r>
       <r>    -0.4570     1.0462    11.3942 </r>
       <r>    -0.3387     1.0217    11.5157 </r>
       <r>    -0.2204     1.0725    11.6393 </r>
       <r>    -0.1021     1.1869    11.7716 </r>
       <r>     0.0162     1.4366    11.9259 </r>
       <r>     0.1345     1.4980    12.1109 </r>
       <r>     0.2528     1.5927    12.2964 </r>
       <r>     0.3711     1.4563    12.4761 </r>
       <r>     0.4894     1.3581    12.6424 </r>
       <r>     0.6077     1.3044    12.7997 </r>
       <r>     0.7260     1.2527    12.9509 </r>
       <r>     0.8443     1.2079    13.0964 </r>
       <r>     0.9626     1.1691    13.2370 </r>
       <r>     1.0809     1.1661    13.3740 </r>
       <r>     1.1992     1.1965    13.5150 </r>
       <r>     1.3175     1.1715    13.6550 </r>
       <r>     1.4358     1.1486    13.7922 </r>
       <r>     1.5541     1.2134    13.9300 </r>
       <r>     1.6724     1.1501    14.0698 </r>
       <r>     1.7907     1.0923    14.2024 </r>
       <r>     1.9090     1.1853    14.3427 </r>
       <r>     2.0273     1.0781    14.4738 </r>
       <r>     2.1456     0.9143    14.5932 </r>
       <r>     2.2639     0.8240    14.6943 </r>
       <r>     2.3822     0.8081    14.7906 </r>
       <r>     2.5005     0.8046    14.8862 </r>
       <r>     2.6188     0.8024    14.9811 </r>
       <r>     2.7371     0.8047    15.0762 </r>
       <r>     2.8554     0.8085    15.1714 </r>
       <r>     2.9737     0.8688    15.2700 </r>
       <r>     3.0920     0.9088    15.3746 </r>
       <r>     3.2103     0.7993    15.4768 </r>
       <r>     3.3286     0.6481    15.5602 </r>
       <r>     3.4469     0.5720    15.6333 </r>
       <r>     3.5652     0.4676    15.6947 </r>
       <r>     3.6835     0.3803    15.7446 </r>
       <r>     3.8018     0.3418    15.7872 </r>
       <r>     3.9201     0.3070    15.8255 </r>
       <r>     4.0384     0.2709    15.8597 </r>
       <r>     4.1567     0.2360    15.8897 </r>
       <r>     4.2750     0.2020    15.9156 </r>
       <r>     4.3933     0.1771    15.9377 </r>
       <r>     4.5116     0.1461    15.9569 </r>
       <r>     4.6299     0.1153    15.9724 </r>
       <r>     4.7483     0.0858    15.9843 </r>
       <r>     4.8666     0.0576    15.9927 </r>
       <r>     4.9849     0.0303    15.9979 </r>
       <r>     5.1032     0.0040    15.9999 </r>
       <r>     5.2215     0.0116    16.0005 </r>
       <r>     5.3398     0.0287    16.0029 </r>
       <r>     5.4581     0.0470    16.0073 </r>
       <r>     5.5764     0.0667    16.0141 </r>
       <r>     5.6947     0.0881    16.0232 </r>
       <r>     5.8130     0.1113    16.0350 </r>
       <r>     5.9313     0.1370    16.0496 </r>
       <r>     6.0496     0.1661    16.0675 </r>
       <r>     6.1679     0.2035    16.0893 </r>
       <r>     6.2862     0.3100    16.1204 </r>
       <r>     6.4045     0.3889    16.1620 </r>
       <r>     6.5228     0.4389    16.2116 </r>
       <r>     6.6411     0.5254    16.2666 </r>
       <r>     6.7594     1.1115    16.3561 </r>
       <r>     6.8777     1.0970    16.5004 </r>
       <r>     6.9960     0.8849    16.6157 </r>
       <r>     7.1143     0.8482    16.7182 </r>
       <r>     7.2326     0.8157    16.8167 </r>
       <r>     7.3509     0.7899    16.9114 </r>
       <r>     7.4692     0.7782    17.0040 </r>
       <r>     7.5875     0.7861    17.0968 </r>
       <r>     7.7058     0.7587    17.1885 </r>
       <r>     7.8241     0.6382    17.2695 </r>
       <r>     7.9424     0.6066    17.3431 </r>
       <r>     8.0607     0.5782    17.4131 </r>
       <r>     8.1790     0.5527    17.4800 </r>
       <r>     8.2973     0.5301    17.5440 </r>
       <r>     8.4156     0.5139    17.6057 </r>
       <r>     8.5339     0.5014    17.6657 </r>
       <r>     8.6522     0.4899    17.7243 </r>
       <r>     8.7705     0.4797    17.7817 </r>
       <r>     8.8888     0.4697    17.8378 </r>
       <r>     9.0071     0.4598    17.8928 </r>
       <r>     9.1254     0.4498    17.9466 </r>
       <r>     9.2437     0.4361    17.9990 </r>
       <r>     9.3620     0.4251    18.0500 </r>
       <r>     9.4803     0.4153    18.0996 </r>
       <r>     9.5986     0.4061    18.1482 </r>
       <r>     9.7169     0.3978    18.1958 </r>
       <r>     9.8352     0.3900    18.2424 </r>
       <r>     9.9535     0.3827    18.2881 </r>
       <r>    10.0718     0.3935    18.3336 </r>
       <r>    10.1901     0.4283    18.3823 </r>
       <r>    10.3084     0.4423    18.4340 </r>
       <r>    10.4267     0.4465    18.4864 </r>
       <r>    10.5450     0.4591    18.5400 </r>
       <r>    10.6633     0.4704    18.5950 </r>
       <r>    10.7816     0.4918    18.6518 </r>
       <r>    10.8999     0.5174    18.7115 </r>
       <r>    11.0182     0.5428    18.7742 </r>
       <r>    11.1365     0.5694    18.8400 </r>
       <r>    11.2548     0.6078    18.9093 </r>
       <r>    11.3731     0.6056    18.9822 </r>
       <r>    11.4914     0.5471    19.0506 </r>
       <r>    11.6097     0.5037    19.1122 </r>
       <r>    11.7280     0.4700    19.1698 </r>
       <r>    11.8463     0.4444    19.2238 </r>
       <r>    11.9646     0.4169    19.2748 </r>
       <r>    12.0829     0.3848    19.3222 </r>
       <r>    12.2012     0.3651    19.3663 </r>
       <r>    12.3195     0.3827    19.4095 </r>
       <r>    12.4378     0.5325    19.4632 </r>
       <r>    12.5561     0.7536    19.5376 </r>
       <r>    12.6744     1.2354    19.6499 </r>
       <r>    12.7927     1.3158    19.8017 </r>
       <r>    12.9110     1.5497    19.9694 </r>
       <r>    13.0293     1.8151    20.1691 </r>
       <r>    13.1476     1.9537    20.3935 </r>
       <r>    13.2659     2.0724    20.6340 </r>
       <r>    13.3842     2.0909    20.8813 </r>
       <r>    13.5025     2.7533    21.1369 </r>
       <r>    13.6208     2.6525    21.4618 </r>
       <r>    13.7391     2.0283    21.7409 </r>
       <r>    13.8574     1.4617    21.9433 </r>
       <r>    13.9757     1.2095    22.1041 </r>
       <r>    14.0940     1.1264    22.2402 </r>
       <r>    14.2123     1.1206    22.3715 </r>
       <r>    14.3306     1.1468    22.5080 </r>
       <r>    14.4489     1.0391    22.6380 </r>
       <r>    14.5672     0.9075    22.7530 </r>
       <r>    14.6855     0.7844    22.8530 </r>
       <r>    14.8038     0.6726    22.9390 </r>
       <r>    14.9221     0.6272    23.0146 </r>
       <r>    15.0404     0.6706    23.0910 </r>
       <r>    15.1587     0.8867    23.1922 </r>
       <r>    15.2770     0.7124    23.2847 </r>
       <r>    15.3953     0.7403    23.3703 </r>
       <r>    15.5136     0.8114    23.4617 </r>
       <r>    15.6319     0.9334    23.5642 </r>
       <r>    15.7502     0.7021    23.6639 </r>
       <r>    15.8685     0.5068    23.7350 </r>
       <r>    15.9868     0.4125    23.7884 </r>
       <r>    16.1051     0.3470    23.8333 </r>
       <r>    16.2234     0.2980    23.8711 </r>
       <r>    16.3417     0.2746    23.9049 </r>
       <r>    16.4600     0.2450    23.9355 </r>
       <r>    16.5783     0.2150    23.9631 </r>
       <r>    16.6966     0.1285    23.9825 </r>
       <r>    16.8149     0.0782    23.9950 </r>
       <r>    16.9332     0.0011    24.0000 </r>
       <r>    17.0515     0.0000    24.0000 </r>
       <r>    17.1698     0.0000    24.0000 </r>
       <r>    17.2881     0.0000    24.0000 </r>
       <r>    17.4064     0.0000    24.0000 </r>
       <r>    17.5247     0.0000    24.0000 </r>
       <r>    17.6430     0.0000    24.0000 </r>
       <r>    17.7613     0.0000    24.0000 </r>
       <r>    17.8796     0.0000    24.0000 </r>
       <r>    17.9979     0.0000    24.0000 </r>
       <r>    18.1162     0.0000    24.0000 </r>
       <r>    18.2345     0.0000    24.0000 </r>
       <r>    18.3528     0.0000    24.0000 </r>
       <r>    18.4711     0.0000    24.0000 </r>
       <r>    18.5894     0.0000    24.0000 </r>
       <r>    18.7078     0.0000    24.0000 </r>
       <r>    18.8261     0.0000    24.0000 </r>
       <r>    18.9444     0.0000    24.0000 </r>
      </set>
     </set>
    </array>
   </total>
  </dos>
 </calculation>
 <structure name="finalpos" >
  <crystal>
   <varray name="basis" >
    <v>       2.46643725      -0.00095964       0.00000000 </v>
    <v>      -1.23404970       2.13551749       0.00000000 </v>
    <v>       0.00000000       0.00000000       6.36648070 </v>
   </varray>
   <i name="volume">     33.52547764 </i>
   <varray name="rec_basis" >
    <v>       0.40553429       0.23434576       0.00000000 </v>
    <v>       0.00018224       0.46837588       0.00000000 </v>
    <v>       0.00000000       0.00000000       0.15707265 </v>
   </varray>
  </crystal>
  <varray name="positions" >
   <v>       0.99934661       0.00065344       0.25000000 </v>
   <v>       0.00065344       0.99934661       0.75000000 </v>
   <v>       0.33258492       0.66741506       0.25000000 </v>
   <v>       0.66741506       0.33258492       0.75000000 </v>
  </varray>
 </structure>
</modeling>
