   32   32    1    1
  0.8643287E+01  0.4932875E-09  0.4932875E-09  0.1313087E-08  0.5000000E-15
  1.000000000000000E-004
  CAR 
 graphite                                
    128     76     84
 
  0.0000000E+00  0.0000000E+00  0.0000000E+00  0.6944444E-02
    1      -14.785733
    2      -14.615717
    3      -14.614985
    4      -14.431266
    5       -9.449095
    6       -9.441198
    7       -9.437949
    8       -9.376050
    9       -9.375812
   10       -9.368042
   11       -9.364305
   12       -9.364293
   13       -9.362285
   14       -9.317498
   15       -9.306166
   16       -9.303816
   17       -8.364820
   18       -8.361655
   19       -8.360066
   20       -8.331052
   21       -8.327086
   22       -8.325238
   23       -8.324461
   24       -8.324455
   25       -8.320988
   26       -8.266097
   27       -8.261186
   28       -8.258576
   29       -3.727300
   30       -2.744653
   31       -2.742663
   32       -1.539555
   33       -1.536819
   34       -1.536063
   35       -1.517547
   36       -1.507501
   37       -1.503241
   38       -1.503233
   39       -1.502609
   40       -1.484534
   41       -1.482433
   42       -1.470807
   43       -1.468415
   44       -1.448989
   45        1.855662
   46        1.868249
   47        1.873803
   48        1.880001
   49        1.883492
   50        1.889944
   51        1.894305
   52        1.906300
   53        2.046729
   54        2.048801
   55        2.050532
   56        2.510377
   57        2.511935
   58        2.514216
   59        2.517966
   60        2.517983
   61        2.519192
   62        2.804544
   63        2.820753
   64        2.822432
   65        6.395231
   66        6.397199
   67        6.399537
   68        6.513021
   69        6.519464
   70        6.523496
   71        6.524723
   72        6.525171
   73        6.531140
   74        7.109498
   75        7.123289
   76        7.126517
   77        9.366365
   78       12.034757
   79       12.038704
   80       12.071987
   81       12.177380
   82       12.180839
   83       12.259785
   84       12.262929
 
  0.1666667E+00  0.1387779E-16  0.0000000E+00  0.1388889E-01
    1      -14.619829
    2      -14.451391
    3      -14.450667
    4      -14.268820
    5      -10.759189
    6      -10.629081
    7      -10.628399
    8      -10.490942
    9       -9.884466
   10       -9.877577
   11       -9.769694
   12       -9.768894
   13       -9.761969
   14       -9.761606
   15       -9.649731
   16       -9.642105
   17       -7.758786
   18       -7.750796
   19       -7.668290
   20       -7.665391
   21       -7.658732
   22       -7.658314
   23       -7.567056
   24       -7.558722
   25       -6.911792
   26       -6.817489
   27       -6.816111
   28       -6.716959
   29       -3.525897
   30       -2.549172
   31       -2.547186
   32       -2.030959
   33       -2.011881
   34       -1.989637
   35       -1.989032
   36       -1.971161
   37       -1.969056
   38       -1.946710
   39       -1.927519
   40       -1.376043
   41       -1.348954
   42       -1.344007
   43       -1.340880
   44       -1.308520
   45        0.939730
   46        1.214810
   47        1.233995
   48        1.238048
   49        1.257713
   50        1.517574
   51        1.533879
   52        1.539100
   53        1.554624
   54        1.668615
   55        1.670796
   56        1.813415
   57        1.815946
   58        2.402615
   59        2.403801
   60        2.408741
   61        2.409830
   62        2.456645
   63        2.922944
   64        2.935116
   65        6.547468
   66        6.549213
   67        6.794648
   68        6.800631
   69        6.804974
   70        6.807480
   71        7.199820
   72        7.389387
   73        7.399418
   74        7.626144
   75        7.630084
   76        8.299469
   77        9.564131
   78       12.128559
   79       12.337757
   80       12.341241
   81       12.345948
   82       12.347717
   83       12.567165
   84       12.775139
 
  0.3333333E+00  0.2775558E-16  0.0000000E+00  0.1388889E-01
    1      -14.123934
    2      -13.960226
    3      -13.959525
    4      -13.783240
    5      -12.172221
    6      -12.027142
    7      -12.026529
    8      -11.871880
    9      -10.309187
   10      -10.305555
   11      -10.184516
   12      -10.183153
   13      -10.180002
   14      -10.179536
   15      -10.051365
   16      -10.047563
   17       -6.584305
   18       -6.573558
   19       -6.499373
   20       -6.496459
   21       -6.487536
   22       -6.486780
   23       -6.407623
   24       -6.397122
   25       -4.792700
   26       -4.714393
   27       -4.712822
   28       -4.631685
   29       -3.190143
   30       -3.174172
   31       -3.136409
   32       -3.136218
   33       -3.121241
   34       -3.119022
   35       -3.080118
   36       -3.063902
   37       -2.925956
   38       -1.967935
   39       -1.965953
   40       -0.902010
   41       -0.871358
   42       -0.867917
   43       -0.837117
   44       -0.794537
   45       -0.615083
   46       -0.443873
   47       -0.406197
   48       -0.402926
   49       -0.364912
   50        0.246641
   51        0.248526
   52        0.718006
   53        0.741207
   54        0.745817
   55        0.768903
   56        1.270624
   57        1.498724
   58        1.501282
   59        2.213561
   60        2.214130
   61        2.217096
   62        2.219215
   63        2.990218
   64        2.996139
   65        7.015066
   66        7.020044
   67        7.372553
   68        7.377702
   69        7.380925
   70        7.382678
   71        7.849577
   72        7.853937
   73        9.329715
   74        9.765897
   75        9.769061
   76       10.158996
   77       10.341317
   78       12.303680
   79       12.527072
   80       12.580423
   81       12.582570
   82       12.759315
   83       12.763430
   84       12.945668
 
  0.5000000E+00  0.5551115E-16  0.0000000E+00  0.6944444E-02
    1      -13.305427
    2      -13.302595
    3      -13.150811
    4      -13.147500
    5      -13.147491
    6      -13.145071
    7      -12.981626
    8      -12.978734
    9      -10.458294
   10      -10.456524
   11      -10.331654
   12      -10.329334
   13      -10.329282
   14      -10.328037
   15      -10.195511
   16      -10.193713
   17       -5.666143
   18       -5.663707
   19       -5.620437
   20       -5.616258
   21       -5.615316
   22       -5.615313
   23       -5.572794
   24       -5.570973
   25       -4.067354
   26       -4.066272
   27       -4.038139
   28       -4.038136
   29       -4.037253
   30       -4.034428
   31       -3.999000
   32       -3.997237
   33       -2.567734
   34       -2.564923
   35       -2.509000
   36       -2.508063
   37       -2.508053
   38       -2.502741
   39       -2.447496
   40       -2.443956
   41       -1.943869
   42       -1.941570
   43       -1.021467
   44       -1.017963
   45       -1.017736
   46       -1.015454
   47       -0.170236
   48       -0.163573
   49       -0.142639
   50       -0.134424
   51       -0.134403
   52       -0.133460
   53       -0.107944
   54       -0.104143
   55        0.100692
   56        0.103315
   57        1.375837
   58        1.377818
   59        2.128952
   60        2.130402
   61        2.130746
   62        2.134010
   63        2.988841
   64        2.991239
   65        7.336022
   66        7.338854
   67        7.678866
   68        7.684262
   69        7.684443
   70        7.684498
   71        8.028301
   72        8.030904
   73       11.141563
   74       11.142693
   75       11.771128
   76       11.774268
   77       12.046168
   78       12.049575
   79       12.050935
   80       12.057596
   81       12.493603
   82       12.497100
   83       12.788425
   84       12.791564
 
  0.0000000E+00  0.1666667E+00  0.0000000E+00  0.1388889E-01
    1      -14.619833
    2      -14.451397
    3      -14.450668
    4      -14.268824
    5      -10.759196
    6      -10.629087
    7      -10.628398
    8      -10.490942
    9       -9.884553
   10       -9.877655
   11       -9.769973
   12       -9.768903
   13       -9.761976
   14       -9.761630
   15       -9.649768
   16       -9.642234
   17       -7.758952
   18       -7.749616
   19       -7.668711
   20       -7.665392
   21       -7.658370
   22       -7.656084
   23       -7.567170
   24       -7.557448
   25       -6.912681
   26       -6.817978
   27       -6.817429
   28       -6.717879
   29       -3.525886
   30       -2.549156
   31       -2.547176
   32       -2.032255
   33       -2.011896
   34       -1.992022
   35       -1.989039
   36       -1.971162
   37       -1.969239
   38       -1.947912
   39       -1.927646
   40       -1.374568
   41       -1.348938
   42       -1.341353
   43       -1.340873
   44       -1.307299
   45        0.940367
   46        1.212727
   47        1.232971
   48        1.233995
   49        1.254292
   50        1.521461
   51        1.538902
   52        1.539104
   53        1.556603
   54        1.669839
   55        1.671066
   56        1.812967
   57        1.815283
   58        2.402507
   59        2.403362
   60        2.407552
   61        2.409090
   62        2.457621
   63        2.922922
   64        2.933928
   65        6.548008
   66        6.550610
   67        6.795147
   68        6.800565
   69        6.805843
   70        6.810424
   71        7.198134
   72        7.389553
   73        7.401462
   74        7.625048
   75        7.628066
   76        8.297938
   77        9.564144
   78       12.129092
   79       12.337925
   80       12.341348
   81       12.346897
   82       12.347772
   83       12.567677
   84       12.772479
 
  0.1666667E+00  0.1666667E+00  0.0000000E+00  0.1388889E-01
    1      -14.288703
    2      -14.123413
    3      -14.122706
    4      -13.944577
    5      -11.382552
    6      -11.379554
    7      -11.246812
    8      -11.243299
    9      -11.243279
   10      -11.240765
   11      -11.099090
   12      -11.096044
   13       -9.022819
   14       -8.953118
   15       -8.952085
   16       -8.896618
   17       -7.960413
   18       -7.931111
   19       -7.927418
   20       -7.873406
   21       -5.801559
   22       -5.798155
   23       -5.717361
   24       -5.714152
   25       -5.714132
   26       -5.710377
   27       -5.626478
   28       -5.622869
   29       -3.361492
   30       -3.305686
   31       -3.303999
   32       -3.246092
   33       -3.124880
   34       -2.160435
   35       -2.158456
   36       -1.703772
   37       -1.700620
   38       -1.665734
   39       -1.661263
   40       -1.661255
   41       -1.659918
   42       -1.622450
   43       -1.619699
   44       -0.977829
   45        0.180408
   46        0.199366
   47        0.203003
   48        0.220829
   49        0.289551
   50        0.292444
   51        0.842222
   52        0.855320
   53        0.860202
   54        0.873972
   55        1.094259
   56        1.097473
   57        1.097579
   58        1.099684
   59        2.026857
   60        2.029335
   61        2.647321
   62        3.107409
   63        3.109626
   64        3.386411
   65        6.301828
   66        6.307280
   67        6.335482
   68        6.636110
   69        8.135671
   70        8.138078
   71        8.576542
   72        8.578807
   73        8.579511
   74        8.583185
   75        9.155956
   76        9.158637
   77        9.962444
   78       12.665627
   79       12.669336
   80       12.933220
   81       12.937646
   82       13.156911
   83       13.162224
   84       13.165392
 
  0.3333333E+00  0.1666667E+00  0.0000000E+00  0.1388889E-01
    1      -13.630539
    2      -13.471510
    3      -13.470833
    4      -13.300041
    5      -12.655996
    6      -12.506257
    7      -12.505609
    8      -12.345641
    9      -11.698677
   10      -11.558343
   11      -11.557617
   12      -11.408381
   13       -9.013928
   14       -8.908192
   15       -8.907868
   16       -8.798890
   17       -7.113368
   18       -7.043463
   19       -7.040308
   20       -6.967032
   21       -4.794820
   22       -4.741262
   23       -4.739435
   24       -4.679567
   25       -4.637803
   26       -4.576376
   27       -4.574337
   28       -4.512334
   29       -3.653461
   30       -3.588511
   31       -3.586983
   32       -3.520254
   33       -2.600620
   34       -2.559367
   35       -2.558111
   36       -2.513381
   37       -2.332248
   38       -1.555160
   39       -1.517891
   40       -1.514407
   41       -1.471605
   42       -1.391097
   43       -1.389589
   44       -1.173581
   45       -1.063952
   46       -1.029558
   47       -1.026427
   48       -0.991155
   49       -0.281756
   50       -0.279872
   51       -0.250155
   52       -0.166370
   53       -0.141738
   54       -0.136733
   55       -0.111015
   56       -0.048668
   57        0.789253
   58        0.790906
   59        0.793224
   60        1.782483
   61        2.927802
   62        3.514942
   63        3.516845
   64        4.047020
   65        5.920759
   66        6.161755
   67        6.165724
   68        6.538427
   69        8.947613
   70        9.292253
   71        9.294832
   72        9.660530
   73       10.434852
   74       10.756938
   75       10.787942
   76       10.791347
   77       11.221449
   78       11.933692
   79       12.710808
   80       12.878858
   81       12.886451
   82       13.116890
   83       13.223530
   84       13.298020
 
  0.5000000E+00  0.1666667E+00  0.0000000E+00  0.1388889E-01
    1      -13.631771
    2      -13.472757
    3      -13.472051
    4      -13.301266
    5      -12.654268
    6      -12.504511
    7      -12.503902
    8      -12.343917
    9      -11.699916
   10      -11.559599
   11      -11.558849
   12      -11.409631
   13       -9.011493
   14       -8.905561
   15       -8.905056
   16       -8.795792
   17       -7.107004
   18       -7.036197
   19       -7.034787
   20       -6.960773
   21       -4.804298
   22       -4.750455
   23       -4.750114
   24       -4.689897
   25       -4.648597
   26       -4.587362
   27       -4.584017
   28       -4.522137
   29       -3.656463
   30       -3.591868
   31       -3.589634
   32       -3.523255
   33       -2.588107
   34       -2.547191
   35       -2.544361
   36       -2.500016
   37       -2.333427
   38       -1.555075
   39       -1.517023
   40       -1.515500
   41       -1.471932
   42       -1.392218
   43       -1.390772
   44       -1.172019
   45       -1.061328
   46       -1.027234
   47       -1.023294
   48       -0.988383
   49       -0.280297
   50       -0.278311
   51       -0.251260
   52       -0.165842
   53       -0.140842
   54       -0.137960
   55       -0.111517
   56       -0.049672
   57        0.788905
   58        0.790469
   59        0.793098
   60        1.781014
   61        2.927519
   62        3.517735
   63        3.518527
   64        4.055144
   65        5.918940
   66        6.164233
   67        6.166483
   68        6.538858
   69        8.942657
   70        9.288080
   71        9.291374
   72        9.659222
   73       10.436404
   74       10.755402
   75       10.787280
   76       10.791285
   77       11.219459
   78       11.935877
   79       12.706822
   80       12.879269
   81       12.886808
   82       13.115495
   83       13.224982
   84       13.291737
 
 -0.3333333E+00  0.1666667E+00  0.0000000E+00  0.1388889E-01
    1      -14.289440
    2      -14.124157
    3      -14.123432
    4      -13.945310
    5      -11.384755
    6      -11.378786
    7      -11.247678
    8      -11.246944
    9      -11.241621
   10      -11.241021
   11      -11.101422
   12      -11.095410
   13       -9.014059
   14       -8.942743
   15       -8.942182
   16       -8.884898
   17       -7.958237
   18       -7.926457
   19       -7.925944
   20       -7.869503
   21       -5.812193
   22       -5.802668
   23       -5.727571
   24       -5.725038
   25       -5.717676
   26       -5.716131
   27       -5.636931
   28       -5.627674
   29       -3.377070
   30       -3.320752
   31       -3.320223
   32       -3.261789
   33       -3.125614
   34       -2.161139
   35       -2.159178
   36       -1.700638
   37       -1.682266
   38       -1.662191
   39       -1.658891
   40       -1.643339
   41       -1.641088
   42       -1.619629
   43       -1.601301
   44       -0.978472
   45        0.170368
   46        0.190750
   47        0.191730
   48        0.210627
   49        0.288317
   50        0.292522
   51        0.853723
   52        0.867335
   53        0.867743
   54        0.883280
   55        1.093203
   56        1.094860
   57        1.097775
   58        1.099738
   59        2.023938
   60        2.029120
   61        2.646055
   62        3.113754
   63        3.114273
   64        3.402972
   65        6.307754
   66        6.310324
   67        6.330536
   68        6.643009
   69        8.128189
   70        8.137764
   71        8.568304
   72        8.572550
   73        8.577486
   74        8.580806
   75        9.150493
   76        9.155598
   77        9.961426
   78       12.665146
   79       12.668780
   80       12.931998
   81       12.966131
   82       13.157620
   83       13.162971
   84       13.194736
 
 -0.1666667E+00  0.1666667E+00  0.0000000E+00  0.1388889E-01
    1      -14.620078
    2      -14.451645
    3      -14.450910
    4      -14.269067
    5      -10.765467
    6      -10.635425
    7      -10.634774
    8      -10.497387
    9       -9.876470
   10       -9.874369
   11       -9.762294
   12       -9.759498
   13       -9.759464
   14       -9.758060
   15       -9.641126
   16       -9.639028
   17       -7.753904
   18       -7.752119
   19       -7.662452
   20       -7.661207
   21       -7.661183
   22       -7.658734
   23       -7.562071
   24       -7.560170
   25       -6.921709
   26       -6.827845
   27       -6.825528
   28       -6.726786
   29       -3.526132
   30       -2.549397
   31       -2.547423
   32       -2.032076
   33       -2.029544
   34       -1.992314
   35       -1.988203
   36       -1.988193
   37       -1.987639
   38       -1.947608
   39       -1.945414
   40       -1.354917
   41       -1.349174
   42       -1.322464
   43       -1.320352
   44       -1.287503
   45        0.936372
   46        1.196669
   47        1.216063
   48        1.221354
   49        1.240234
   50        1.536007
   51        1.551860
   52        1.556031
   53        1.572640
   54        1.664375
   55        1.666085
   56        1.815155
   57        1.817646
   58        2.405983
   59        2.410030
   60        2.410209
   61        2.410930
   62        2.449667
   63        2.933640
   64        2.935718
   65        6.548909
   66        6.551203
   67        6.802889
   68        6.804919
   69        6.805288
   70        6.810668
   71        7.192511
   72        7.396929
   73        7.399939
   74        7.615611
   75        7.620317
   76        8.289566
   77        9.563789
   78       12.163151
   79       12.337685
   80       12.341113
   81       12.380933
   82       12.381742
   83       12.601604
   84       12.767190
 
  0.2710505E-19  0.3333333E+00  0.0000000E+00  0.1388889E-01
    1      -14.123948
    2      -13.960249
    3      -13.959529
    4      -13.783254
    5      -12.172275
    6      -12.027236
    7      -12.026543
    8      -11.871936
    9      -10.309478
   10      -10.305276
   11      -10.185285
   12      -10.183161
   13      -10.179935
   14      -10.178769
   15      -10.051602
   16      -10.047261
   17       -6.584330
   18       -6.572390
   19       -6.499532
   20       -6.496459
   21       -6.486808
   22       -6.484779
   23       -6.407537
   24       -6.395777
   25       -4.793690
   26       -4.714913
   27       -4.714354
   28       -4.632750
   29       -3.191510
   30       -3.174443
   31       -3.138954
   32       -3.136269
   33       -3.121243
   34       -3.119579
   35       -3.081371
   36       -3.064198
   37       -2.925910
   38       -1.967866
   39       -1.965911
   40       -0.900363
   41       -0.868460
   42       -0.867911
   43       -0.835807
   44       -0.794457
   45       -0.614824
   46       -0.445547
   47       -0.406691
   48       -0.406192
   49       -0.367058
   50        0.247089
   51        0.248729
   52        0.720647
   53        0.745338
   54        0.745821
   55        0.770648
   56        1.271046
   57        1.497976
   58        1.501096
   59        2.212056
   60        2.214056
   61        2.217159
   62        2.218587
   63        2.989797
   64        2.995289
   65        7.015481
   66        7.021896
   67        7.373238
   68        7.377670
   69        7.381925
   70        7.385360
   71        7.849763
   72        7.855828
   73        9.328510
   74        9.764942
   75        9.767946
   76       10.159023
   77       10.340319
   78       12.304159
   79       12.527610
   80       12.581881
   81       12.582587
   82       12.760004
   83       12.763922
   84       12.946113
 
  0.1666667E+00  0.3333333E+00  0.0000000E+00  0.1388889E-01
    1      -13.630546
    2      -13.471522
    3      -13.470835
    4      -13.300047
    5      -12.656057
    6      -12.506363
    7      -12.505624
    8      -12.345702
    9      -11.698619
   10      -11.558239
   11      -11.557604
   12      -11.408321
   13       -9.013976
   14       -8.908253
   15       -8.907917
   16       -8.798952
   17       -7.112946
   18       -7.042629
   19       -7.040305
   20       -6.966609
   21       -4.795216
   22       -4.741267
   23       -4.740250
   24       -4.679998
   25       -4.636350
   26       -4.574350
   27       -4.573460
   28       -4.510882
   29       -3.654789
   30       -3.589745
   31       -3.588495
   32       -3.521677
   33       -2.602331
   34       -2.561535
   35       -2.559362
   36       -2.515084
   37       -2.332208
   38       -1.556075
   39       -1.517914
   40       -1.516444
   41       -1.472816
   42       -1.391058
   43       -1.389584
   44       -1.173382
   45       -1.062050
   46       -1.026435
   47       -1.026000
   48       -0.989482
   49       -0.281362
   50       -0.279675
   51       -0.250202
   52       -0.164813
   53       -0.139529
   54       -0.136732
   55       -0.110117
   56       -0.048958
   57        0.788900
   58        0.790903
   59        0.793153
   60        1.782004
   61        2.927339
   62        3.514896
   63        3.515930
   64        4.046629
   65        5.921268
   66        6.163128
   67        6.165763
   68        6.539201
   69        8.948976
   70        9.294144
   71        9.295309
   72        9.661544
   73       10.433664
   74       10.756812
   75       10.787479
   76       10.789937
   77       11.220516
   78       11.933774
   79       12.710435
   80       12.878884
   81       12.886424
   82       13.116817
   83       13.223368
   84       13.300694
 
  0.3333333E+00  0.3333333E+00  0.0000000E+00  0.1388889E-01
    1      -12.820745
    2      -12.818034
    3      -12.815416
    4      -12.671285
    5      -12.667174
    6      -12.667149
    7      -12.666361
    8      -12.664260
    9      -12.662369
   10      -12.506970
   11      -12.504294
   12      -12.501604
   13       -7.801138
   14       -7.692293
   15       -7.691973
   16       -7.685306
   17       -7.683121
   18       -7.679716
   19       -7.678055
   20       -7.572559
   21       -5.642329
   22       -5.641855
   23       -5.635879
   24       -5.634444
   25       -2.888790
   26       -2.884935
   27       -2.881671
   28       -2.856740
   29       -2.850910
   30       -2.850579
   31       -2.850565
   32       -2.849715
   33       -2.844942
   34       -2.820514
   35       -2.818162
   36       -2.814499
   37       -1.525031
   38       -1.519216
   39       -1.516265
   40       -1.504558
   41       -1.498737
   42       -1.497520
   43       -1.496251
   44       -1.496233
   45       -1.490370
   46       -1.474583
   47       -1.470385
   48       -1.465310
   49       -1.363744
   50       -1.361580
   51       -1.359261
   52       -0.463823
   53       -0.460141
   54       -0.459859
   55       -0.458728
   56       -0.457338
   57       -0.454808
   58        0.626346
   59        0.628804
   60        0.630998
   61        4.151761
   62        4.835829
   63        4.846087
   64        4.859816
   65        4.860301
   66        4.883982
   67        4.884576
   68        5.682231
   69       10.963068
   70       10.965916
   71       10.973306
   72       11.229863
   73       11.235249
   74       11.235644
   75       11.235837
   76       11.237071
   77       11.239739
   78       11.516109
   79       11.519527
   80       11.522328
   81       11.752495
   82       11.754030
   83       11.758036
   84       14.118728
 
  0.5000000E+00  0.3333333E+00  0.0000000E+00  0.1388889E-01
    1      -13.632515
    2      -13.473512
    3      -13.472773
    4      -13.302008
    5      -12.657997
    6      -12.508308
    7      -12.507556
    8      -12.347639
    9      -11.694705
   10      -11.554305
   11      -11.553715
   12      -11.404411
   13       -9.004349
   14       -8.898617
   15       -8.897890
   16       -8.788883
   17       -7.113564
   18       -7.042823
   19       -7.042398
   20       -6.968438
   21       -4.804171
   22       -4.750883
   23       -4.749534
   24       -4.689863
   25       -4.641363
   26       -4.580212
   27       -4.577808
   28       -4.516064
   29       -3.668615
   30       -3.604315
   31       -3.601042
   32       -3.534962
   33       -2.600115
   34       -2.560053
   35       -2.556171
   36       -2.512694
   37       -2.334098
   38       -1.568273
   39       -1.529970
   40       -1.527346
   41       -1.484092
   42       -1.393192
   43       -1.391725
   44       -1.175155
   45       -1.044338
   46       -1.009761
   47       -1.006891
   48       -0.971380
   49       -0.283233
   50       -0.281570
   51       -0.251926
   52       -0.151586
   53       -0.125679
   54       -0.123936
   55       -0.096679
   56       -0.045566
   57        0.789831
   58        0.792801
   59        0.794713
   60        1.784974
   61        2.931119
   62        3.520312
   63        3.521880
   64        4.055705
   65        5.926204
   66        6.163321
   67        6.164755
   68        6.530144
   69        8.953023
   70        9.293304
   71        9.295379
   72        9.656201
   73       10.425183
   74       10.753858
   75       10.780763
   76       10.783192
   77       11.216890
   78       11.931628
   79       12.701292
   80       12.875188
   81       12.882786
   82       13.122034
   83       13.223646
   84       13.320297
 
 -0.3333333E+00  0.3333333E+00  0.0000000E+00  0.1388889E-01
    1      -14.124930
    2      -13.961241
    3      -13.960495
    4      -13.784230
    5      -12.176192
    6      -12.031185
    7      -12.030436
    8      -11.875863
    9      -10.301926
   10      -10.300110
   11      -10.177525
   12      -10.175197
   13      -10.175154
   14      -10.173822
   15      -10.043982
   16      -10.042135
   17       -6.580033
   18       -6.578195
   19       -6.494419
   20       -6.493283
   21       -6.493259
   22       -6.490560
   23       -6.403890
   24       -6.401888
   25       -4.805679
   26       -4.727762
   27       -4.725175
   28       -4.644430
   29       -3.189814
   30       -3.187719
   31       -3.137876
   32       -3.133983
   33       -3.133842
   34       -3.133804
   35       -3.079665
   36       -3.077794
   37       -2.926877
   38       -1.968810
   39       -1.966874
   40       -0.881415
   41       -0.850325
   42       -0.847985
   43       -0.816656
   44       -0.795408
   45       -0.618238
   46       -0.461131
   47       -0.423682
   48       -0.419506
   49       -0.381826
   50        0.243502
   51        0.245148
   52        0.736969
   53        0.760358
   54        0.763929
   55        0.787659
   56        1.267063
   57        1.502709
   58        1.504880
   59        2.216588
   60        2.220590
   61        2.220817
   62        2.221722
   63        2.996232
   64        2.998576
   65        7.021461
   66        7.024022
   67        7.378008
   68        7.379520
   69        7.379701
   70        7.384407
   71        7.847606
   72        7.850315
   73        9.318914
   74        9.755654
   75        9.759748
   76       10.157704
   77       10.334277
   78       12.320258
   79       12.548349
   80       12.613258
   81       12.614274
   82       12.762261
   83       12.766223
   84       12.969238
 
 -0.1666667E+00  0.3333333E+00  0.0000000E+00  0.1388889E-01
    1      -14.289451
    2      -14.124176
    3      -14.123435
    4      -13.945321
    5      -11.385125
    6      -11.378498
    7      -11.248821
    8      -11.246986
    9      -11.241154
   10      -11.240297
   11      -11.101720
   12      -11.095032
   13       -9.014848
   14       -8.944246
   15       -8.942198
   16       -8.885576
   17       -7.956830
   18       -7.925952
   19       -7.923127
   20       -7.867731
   21       -5.812485
   22       -5.803301
   23       -5.728388
   24       -5.725038
   25       -5.717683
   26       -5.716866
   27       -5.637056
   28       -5.628207
   29       -3.378230
   30       -3.322951
   31       -3.320238
   32       -3.262853
   33       -3.125581
   34       -2.161093
   35       -2.159148
   36       -1.699432
   37       -1.682471
   38       -1.659999
   39       -1.658888
   40       -1.643339
   41       -1.641126
   42       -1.618426
   43       -1.601273
   44       -0.978421
   45        0.167150
   46        0.186427
   47        0.191728
   48        0.208999
   49        0.288042