  32  32   0   0
  0.8643287E+01  0.4932875E-09  0.4932875E-09  0.1313087E-08  0.5000000E-15
  1.000000000000000E-004
  CAR 
 graphite                                
     16.11905740    -16.78473863  301      4.86300296      1.00000000
    -16.785  0.0000E+00  0.0000E+00
    -16.675  0.0000E+00  0.0000E+00
    -16.565  0.0000E+00  0.0000E+00
    -16.456  0.0000E+00  0.0000E+00
    -16.346  0.0000E+00  0.0000E+00
    -16.236  0.0000E+00  0.0000E+00
    -16.127  0.0000E+00  0.0000E+00
    -16.017  0.0000E+00  0.0000E+00
    -15.907  0.0000E+00  0.0000E+00
    -15.798  0.0000E+00  0.0000E+00
    -15.688  0.0000E+00  0.0000E+00
    -15.578  0.0000E+00  0.0000E+00
    -15.469  0.0000E+00  0.0000E+00
    -15.359  0.0000E+00  0.0000E+00
    -15.249  0.0000E+00  0.0000E+00
    -15.140  0.0000E+00  0.0000E+00
    -15.030  0.0000E+00  0.0000E+00
    -14.920  0.0000E+00  0.0000E+00
    -14.811  0.0000E+00  0.0000E+00
    -14.701  0.1482E+01  0.6095E-01
    -14.591  0.2478E+01  0.2728E+00
    -14.481  0.3517E+01  0.6051E+00
    -14.372  0.5092E+01  0.1082E+01
    -14.262  0.5028E+01  0.1621E+01
    -14.152  0.4850E+01  0.2164E+01
    -14.043  0.4939E+01  0.2700E+01
    -13.933  0.4961E+01  0.3245E+01
    -13.823  0.4934E+01  0.3788E+01
    -13.714  0.4966E+01  0.4330E+01
    -13.604  0.5178E+01  0.4880E+01
    -13.494  0.5631E+01  0.5477E+01
    -13.385  0.6315E+01  0.6112E+01
    -13.275  0.6907E+01  0.6858E+01
    -13.165  0.4317E+01  0.7397E+01
    -13.056  0.1967E+01  0.7740E+01
    -12.946  0.3694E+01  0.8039E+01
    -12.836  0.4157E+01  0.8459E+01
    -12.727  0.9629E+01  0.9040E+01
    -12.617  0.5528E+01  0.9743E+01
    -12.507  0.6295E+01  0.1040E+02
    -12.398  0.4411E+01  0.1097E+02
    -12.288  0.4640E+01  0.1147E+02
    -12.178  0.4806E+01  0.1199E+02
    -12.069  0.4985E+01  0.1252E+02
    -11.959  0.5122E+01  0.1307E+02
    -11.849  0.5394E+01  0.1365E+02
    -11.739  0.5703E+01  0.1428E+02
    -11.630  0.5155E+01  0.1487E+02
    -11.520  0.5051E+01  0.1543E+02
    -11.410  0.4981E+01  0.1598E+02
    -11.301  0.5022E+01  0.1653E+02
    -11.191  0.5111E+01  0.1708E+02
    -11.081  0.5164E+01  0.1765E+02
    -10.972  0.5400E+01  0.1823E+02
    -10.862  0.5592E+01  0.1883E+02
    -10.752  0.5927E+01  0.1946E+02
    -10.643  0.5852E+01  0.2011E+02
    -10.533  0.5866E+01  0.2075E+02
    -10.423  0.5754E+01  0.2139E+02
    -10.314  0.4590E+01  0.2197E+02
    -10.204  0.4415E+01  0.2245E+02
    -10.094  0.5140E+01  0.2298E+02
     -9.985  0.5343E+01  0.2356E+02
     -9.875  0.5513E+01  0.2415E+02
     -9.765  0.5745E+01  0.2477E+02
     -9.656  0.6673E+01  0.2543E+02
     -9.546  0.8208E+01  0.2623E+02
     -9.436  0.9197E+01  0.2726E+02
     -9.327  0.6087E+01  0.2809E+02
     -9.217  0.5790E+01  0.2881E+02
     -9.107  0.6060E+01  0.2943E+02
     -8.998  0.3425E+01  0.2984E+02
     -8.888  0.3047E+01  0.3019E+02
     -8.778  0.2669E+01  0.3051E+02
     -8.668  0.2353E+01  0.3078E+02
     -8.559  0.3289E+01  0.3108E+02
     -8.449  0.2353E+01  0.3138E+02
     -8.339  0.1436E+01  0.3158E+02
     -8.230  0.2222E+01  0.3178E+02
     -8.120  0.4752E+01  0.3211E+02
     -8.010  0.5594E+01  0.3285E+02
     -7.901  0.4111E+01  0.3333E+02
     -7.791  0.4145E+01  0.3377E+02
     -7.681  0.6570E+01  0.3433E+02
     -7.572  0.7797E+01  0.3510E+02
     -7.462  0.6986E+01  0.3583E+02
     -7.352  0.8131E+01  0.3666E+02
     -7.243  0.8434E+01  0.3761E+02
     -7.133  0.6360E+01  0.3844E+02
     -7.023  0.6086E+01  0.3912E+02
     -6.914  0.5817E+01  0.3977E+02
     -6.804  0.5580E+01  0.4040E+02
     -6.694  0.5379E+01  0.4100E+02
     -6.585  0.5198E+01  0.4158E+02
     -6.475  0.5004E+01  0.4214E+02
     -6.365  0.4857E+01  0.4268E+02
     -6.256  0.4825E+01  0.4321E+02
     -6.146  0.4795E+01  0.4374E+02
     -6.036  0.4639E+01  0.4426E+02
     -5.926  0.4483E+01  0.4476E+02
     -5.817  0.4172E+01  0.4524E+02
     -5.707  0.3859E+01  0.4564E+02
     -5.597  0.4306E+01  0.4610E+02
     -5.488  0.4958E+01  0.4660E+02
     -5.378  0.5743E+01  0.4719E+02
     -5.268  0.6779E+01  0.4787E+02
     -5.159  0.9669E+01  0.4879E+02
     -5.049  0.8722E+01  0.4986E+02
     -4.939  0.6300E+01  0.5069E+02
     -4.830  0.3878E+01  0.5124E+02
     -4.720  0.2504E+01  0.5157E+02
     -4.610  0.3068E+01  0.5186E+02
     -4.501  0.4356E+01  0.5227E+02
     -4.391  0.5766E+01  0.5282E+02
     -4.281  0.7528E+01  0.5355E+02
     -4.172  0.8008E+01  0.5442E+02
     -4.062  0.6733E+01  0.5523E+02
     -3.952  0.5679E+01  0.5590E+02
     -3.843  0.7396E+01  0.5655E+02
     -3.733  0.7274E+01  0.5738E+02
     -3.623  0.7294E+01  0.5817E+02
     -3.514  0.6971E+01  0.5895E+02
     -3.404  0.7215E+01  0.5971E+02
     -3.294  0.8879E+01  0.6060E+02
     -3.185  0.1147E+02  0.6175E+02
     -3.075  0.8853E+01  0.6266E+02
     -2.965  0.8202E+01  0.6362E+02
     -2.855  0.6985E+01  0.6445E+02
     -2.746  0.7165E+01  0.6521E+02
     -2.636  0.8099E+01  0.6604E+02
     -2.526  0.9513E+01  0.6700E+02
     -2.417  0.1221E+02  0.6820E+02
     -2.307  0.1429E+02  0.6967E+02
     -2.197  0.1076E+02  0.7100E+02
     -2.088  0.1167E+02  0.7223E+02
     -1.978  0.1217E+02  0.7357E+02
     -1.868  0.1510E+02  0.7509E+02
     -1.759  0.1360E+02  0.7660E+02
     -1.649  0.1623E+02  0.7833E+02
     -1.539  0.1011E+02  0.7964E+02
     -1.430  0.1979E+02  0.8132E+02
     -1.320  0.1867E+02  0.8340E+02
     -1.210  0.1587E+02  0.8542E+02
     -1.101  0.1353E+02  0.8701E+02
     -0.991  0.1248E+02  0.8841E+02
     -0.881  0.9704E+01  0.8967E+02
     -0.772  0.7688E+01  0.9056E+02
     -0.662  0.9188E+01  0.9148E+02
     -0.552  0.1354E+02  0.9267E+02
     -0.443  0.1436E+02  0.9423E+02
     -0.333  0.1066E+02  0.9588E+02
     -0.223  0.8728E+01  0.9684E+02
     -0.113  0.9756E+01  0.9785E+02
     -0.004  0.1090E+02  0.9895E+02
      0.106  0.1105E+02  0.1001E+03
      0.216  0.1023E+02  0.1014E+03
      0.325  0.9450E+01  0.1024E+03
      0.435  0.9602E+01  0.1035E+03
      0.545  0.9672E+01  0.1045E+03
      0.654  0.9757E+01  0.1056E+03
      0.764  0.9288E+01  0.1067E+03
      0.874  0.9372E+01  0.1077E+03
      0.983  0.9264E+01  0.1087E+03
      1.093  0.9260E+01  0.1097E+03
      1.203  0.9286E+01  0.1107E+03
      1.312  0.9410E+01  0.1117E+03
      1.422  0.9704E+01  0.1128E+03
      1.532  0.8965E+01  0.1138E+03
      1.641  0.9582E+01  0.1148E+03
      1.751  0.9920E+01  0.1159E+03
      1.861  0.7450E+01  0.1169E+03
      1.970  0.6490E+01  0.1176E+03
      2.080  0.5987E+01  0.1183E+03
      2.190  0.4987E+01  0.1189E+03
      2.299  0.3807E+01  0.1194E+03
      2.409  0.4523E+01  0.1199E+03
      2.519  0.7514E+01  0.1206E+03
      2.629  0.8499E+01  0.1215E+03
      2.738  0.6057E+01  0.1223E+03
      2.848  0.7042E+01  0.1229E+03
      2.958  0.7374E+01  0.1236E+03
      3.067  0.5806E+01  0.1244E+03
      3.177  0.4613E+01  0.1249E+03
      3.287  0.3890E+01  0.1254E+03
      3.396  0.3409E+01  0.1258E+03
      3.506  0.3073E+01  0.1262E+03
      3.616  0.2771E+01  0.1265E+03
      3.725  0.2410E+01  0.1268E+03
      3.835  0.2012E+01  0.1270E+03
      3.945  0.1767E+01  0.1272E+03
      4.054  0.1521E+01  0.1274E+03
      4.164  0.1273E+01  0.1275E+03
      4.274  0.1065E+01  0.1277E+03
      4.383  0.9227E+00  0.1278E+03
      4.493  0.7082E+00  0.1279E+03
      4.603  0.4838E+00  0.1279E+03
      4.712  0.2688E+00  0.1280E+03
      4.822  0.6237E-01  0.1280E+03
      4.932  0.6635E-01  0.1280E+03
      5.041  0.2035E+00  0.1280E+03
      5.151  0.3505E+00  0.1280E+03
      5.261  0.5099E+00  0.1281E+03
      5.370  0.6848E+00  0.1282E+03
      5.480  0.8774E+00  0.1282E+03
      5.590  0.1132E+01  0.1284E+03
      5.700  0.1465E+01  0.1285E+03
      5.809  0.1831E+01  0.1287E+03
      5.919  0.2191E+01  0.1289E+03
      6.029  0.2609E+01  0.1292E+03
      6.138  0.3795E+01  0.1295E+03
      6.248  0.4110E+01  0.1299E+03
      6.358  0.7420E+01  0.1305E+03
      6.467  0.8358E+01  0.1315E+03
      6.577  0.8218E+01  0.1324E+03
      6.687  0.7449E+01  0.1333E+03
      6.796  0.7511E+01  0.1341E+03
      6.906  0.7151E+01  0.1350E+03
      7.016  0.5981E+01  0.1357E+03
      7.125  0.5637E+01  0.1363E+03
      7.235  0.5205E+01  0.1369E+03
      7.345  0.4218E+01  0.1374E+03
      7.454  0.3628E+01  0.1378E+03
      7.564  0.3485E+01  0.1382E+03
      7.674  0.3793E+01  0.1386E+03
      7.783  0.4196E+01  0.1391E+03
      7.893  0.4542E+01  0.1395E+03
      8.003  0.4858E+01  0.1401E+03
      8.112  0.4715E+01  0.1406E+03
      8.222  0.4511E+01  0.1411E+03
      8.332  0.4325E+01  0.1416E+03
      8.442  0.4109E+01  0.1420E+03
      8.551  0.3904E+01  0.1425E+03
      8.661  0.3784E+01  0.1429E+03
      8.771  0.3644E+01  0.1433E+03
      8.880  0.3556E+01  0.1437E+03
      8.990  0.3471E+01  0.1441E+03
      9.100  0.3332E+01  0.1445E+03
      9.209  0.3220E+01  0.1448E+03
      9.319  0.3178E+01  0.1452E+03
      9.429  0.3279E+01  0.1455E+03
      9.538  0.3635E+01  0.1459E+03
      9.648  0.3860E+01  0.1463E+03
      9.758  0.3714E+01  0.1467E+03
      9.867  0.3697E+01  0.1471E+03
      9.977  0.3762E+01  0.1475E+03
     10.087  0.3816E+01  0.1480E+03
     10.196  0.3883E+01  0.1484E+03
     10.306  0.3872E+01  0.1488E+03
     10.416  0.3832E+01  0.1492E+03
     10.525  0.3820E+01  0.1496E+03
     10.635  0.3813E+01  0.1501E+03
     10.745  0.4261E+01  0.1505E+03
     10.854  0.4756E+01  0.1510E+03
     10.964  0.4985E+01  0.1515E+03
     11.074  0.4933E+01  0.1521E+03
     11.183  0.4751E+01  0.1526E+03
     11.293  0.5250E+01  0.1532E+03
     11.403  0.3606E+01  0.1537E+03
     11.513  0.3492E+01  0.1541E+03
     11.622  0.3073E+01  0.1544E+03
     11.732  0.3126E+01  0.1547E+03
     11.842  0.3635E+01  0.1551E+03
     11.951  0.3746E+01  0.1555E+03
     12.061  0.2841E+01  0.1559E+03
     12.171  0.6550E+01  0.1564E+03
     12.280  0.7345E+01  0.1571E+03
     12.390  0.1047E+02  0.1581E+03
     12.500  0.1352E+02  0.1594E+03
     12.609  0.1364E+02  0.1609E+03
     12.719  0.1269E+02  0.1624E+03
     12.829  0.1135E+02  0.1637E+03
     12.938  0.8998E+01  0.1649E+03
     13.048  0.6521E+01  0.1657E+03
     13.158  0.5769E+01  0.1664E+03
     13.267  0.5700E+01  0.1670E+03
     13.377  0.3460E+01  0.1675E+03
     13.487  0.1935E+01  0.1678E+03
     13.596  0.6456E+00  0.1680E+03
     13.706  0.4680E-01  0.1680E+03
     13.816  0.2524E-01  0.1680E+03
     13.925  0.1029E-01  0.1680E+03
     14.035  0.1932E-02  0.1680E+03
     14.145  0.0000E+00  0.1680E+03
     14.255  0.0000E+00  0.1680E+03
     14.364  0.0000E+00  0.1680E+03
     14.474  0.0000E+00  0.1680E+03
     14.584  0.0000E+00  0.1680E+03
     14.693  0.0000E+00  0.1680E+03
     14.803  0.0000E+00  0.1680E+03
     14.913  0.0000E+00  0.1680E+03
     15.022  0.0000E+00  0.1680E+03
     15.132  0.0000E+00  0.1680E+03
     15.242  0.0000E+00  0.1680E+03
     15.351  0.0000E+00  0.1680E+03
     15.461  0.0000E+00  0.1680E+03
     15.571  0.0000E+00  0.1680E+03
     15.680  0.0000E+00  0.1680E+03
     15.790  0.0000E+00  0.1680E+03
     15.900  0.0000E+00  0.1680E+03
     16.009  0.0000E+00  0.1680E+03
     16.119  0.0000E+00  0.1680E+03
