  32  32   0   0
  0.8817899E+01  0.4932875E-09  0.4932875E-09  0.1339614E-08  0.5000000E-15
  1.000000000000000E-004
  CAR 
 graphite                                
     15.69361008    -16.94034693  301      4.68846670      1.00000000
    -16.940  0.0000E+00  0.0000E+00
    -16.832  0.0000E+00  0.0000E+00
    -16.723  0.0000E+00  0.0000E+00
    -16.614  0.0000E+00  0.0000E+00
    -16.505  0.0000E+00  0.0000E+00
    -16.396  0.0000E+00  0.0000E+00
    -16.288  0.0000E+00  0.0000E+00
    -16.179  0.0000E+00  0.0000E+00
    -16.070  0.0000E+00  0.0000E+00
    -15.961  0.0000E+00  0.0000E+00
    -15.853  0.0000E+00  0.0000E+00
    -15.744  0.0000E+00  0.0000E+00
    -15.635  0.0000E+00  0.0000E+00
    -15.526  0.0000E+00  0.0000E+00
    -15.417  0.0000E+00  0.0000E+00
    -15.309  0.0000E+00  0.0000E+00
    -15.200  0.0000E+00  0.0000E+00
    -15.091  0.0000E+00  0.0000E+00
    -14.982  0.0000E+00  0.0000E+00
    -14.874  0.1479E+01  0.3826E-01
    -14.765  0.2511E+01  0.2505E+00
    -14.656  0.3864E+01  0.5977E+00
    -14.547  0.4766E+01  0.1103E+01
    -14.438  0.5055E+01  0.1640E+01
    -14.330  0.4882E+01  0.2176E+01
    -14.221  0.4947E+01  0.2711E+01
    -14.112  0.4920E+01  0.3249E+01
    -14.003  0.4960E+01  0.3788E+01
    -13.895  0.4974E+01  0.4328E+01
    -13.786  0.5021E+01  0.4871E+01
    -13.677  0.5641E+01  0.5453E+01
    -13.568  0.5875E+01  0.6083E+01
    -13.459  0.6826E+01  0.6813E+01
    -13.351  0.4518E+01  0.7379E+01
    -13.242  0.1846E+01  0.7732E+01
    -13.133  0.3643E+01  0.7995E+01
    -13.024  0.4215E+01  0.8435E+01
    -12.915  0.5254E+01  0.8926E+01
    -12.807  0.5748E+01  0.9689E+01
    -12.698  0.6529E+01  0.1037E+02
    -12.589  0.4375E+01  0.1093E+02
    -12.480  0.4569E+01  0.1141E+02
    -12.372  0.4713E+01  0.1192E+02
    -12.263  0.4834E+01  0.1244E+02
    -12.154  0.5146E+01  0.1299E+02
    -12.045  0.5452E+01  0.1356E+02
    -11.936  0.5673E+01  0.1419E+02
    -11.828  0.5367E+01  0.1479E+02
    -11.719  0.5095E+01  0.1535E+02
    -11.610  0.4952E+01  0.1590E+02
    -11.501  0.4963E+01  0.1643E+02
    -11.393  0.5056E+01  0.1698E+02
    -11.284  0.5113E+01  0.1753E+02
    -11.175  0.5310E+01  0.1809E+02
    -11.066  0.5536E+01  0.1868E+02
    -10.957  0.5907E+01  0.1930E+02
    -10.849  0.5804E+01  0.1994E+02
    -10.740  0.5784E+01  0.2057E+02
    -10.631  0.5865E+01  0.2120E+02
    -10.522  0.5035E+01  0.2181E+02
    -10.414  0.4530E+01  0.2231E+02
    -10.305  0.5146E+01  0.2284E+02
    -10.196  0.5327E+01  0.2341E+02
    -10.087  0.5466E+01  0.2400E+02
     -9.978  0.5677E+01  0.2460E+02
     -9.870  0.5932E+01  0.2523E+02
     -9.761  0.7489E+01  0.2598E+02
     -9.652  0.1004E+02  0.2697E+02
     -9.543  0.6703E+01  0.2787E+02
     -9.435  0.7179E+01  0.2857E+02
     -9.326  0.5982E+01  0.2922E+02
     -9.217  0.3550E+01  0.2971E+02
     -9.108  0.3177E+01  0.3007E+02
     -8.999  0.2803E+01  0.3040E+02
     -8.891  0.2430E+01  0.3068E+02
     -8.782  0.2690E+01  0.3095E+02
     -8.673  0.2698E+01  0.3127E+02
     -8.564  0.1591E+01  0.3152E+02
     -8.456  0.1813E+01  0.3168E+02
     -8.347  0.2769E+01  0.3193E+02
     -8.238  0.9010E+01  0.3250E+02
     -8.129  0.4290E+01  0.3314E+02
     -8.020  0.3988E+01  0.3357E+02
     -7.912  0.4342E+01  0.3402E+02
     -7.803  0.7256E+01  0.3472E+02
     -7.694  0.6498E+01  0.3549E+02
     -7.585  0.7572E+01  0.3625E+02
     -7.476  0.8736E+01  0.3714E+02
     -7.368  0.7640E+01  0.3806E+02
     -7.259  0.6224E+01  0.3878E+02
     -7.150  0.5958E+01  0.3945E+02
     -7.041  0.5702E+01  0.4008E+02
     -6.933  0.5485E+01  0.4069E+02
     -6.824  0.5298E+01  0.4127E+02
     -6.715  0.5116E+01  0.4184E+02
     -6.606  0.4919E+01  0.4239E+02
     -6.497  0.4840E+01  0.4292E+02
     -6.389  0.4813E+01  0.4344E+02
     -6.280  0.4780E+01  0.4396E+02
     -6.171  0.4573E+01  0.4447E+02
     -6.062  0.4416E+01  0.4496E+02
     -5.954  0.3556E+01  0.4542E+02
     -5.845  0.4066E+01  0.4583E+02
     -5.736  0.4530E+01  0.4629E+02
     -5.627  0.5233E+01  0.4682E+02
     -5.518  0.6058E+01  0.4743E+02
     -5.410  0.8095E+01  0.4815E+02
     -5.301  0.1018E+02  0.4919E+02
     -5.192  0.7838E+01  0.5017E+02
     -5.083  0.5497E+01  0.5090E+02
     -4.975  0.3157E+01  0.5137E+02
     -4.866  0.2595E+01  0.5166E+02
     -4.757  0.3440E+01  0.5198E+02
     -4.648  0.4790E+01  0.5243E+02
     -4.539  0.6190E+01  0.5302E+02
     -4.431  0.7921E+01  0.5379E+02
     -4.322  0.7611E+01  0.5466E+02
     -4.213  0.6352E+01  0.5542E+02
     -4.104  0.5664E+01  0.5606E+02
     -3.996  0.7627E+01  0.5678E+02
     -3.887  0.7099E+01  0.5758E+02
     -3.778  0.6671E+01  0.5833E+02
     -3.669  0.6692E+01  0.5906E+02
     -3.560  0.6489E+01  0.5978E+02
     -3.452  0.1193E+02  0.6070E+02
     -3.343  0.8479E+01  0.6188E+02
     -3.234  0.8379E+01  0.6280E+02
     -3.125  0.7897E+01  0.6369E+02
     -3.017  0.6766E+01  0.6449E+02
     -2.908  0.7220E+01  0.6524E+02
     -2.799  0.8194E+01  0.6607E+02
     -2.690  0.9377E+01  0.6703E+02
     -2.581  0.1282E+02  0.6823E+02
     -2.473  0.1515E+02  0.6975E+02
     -2.364  0.1120E+02  0.7108E+02
     -2.255  0.1215E+02  0.7234E+02
     -2.146  0.1172E+02  0.7368E+02
     -2.038  0.1503E+02  0.7524E+02
     -1.929  0.1435E+02  0.7668E+02
     -1.820  0.1634E+02  0.7849E+02
     -1.711  0.1063E+02  0.7982E+02
     -1.602  0.2063E+02  0.8160E+02
     -1.494  0.1846E+02  0.8359E+02
     -1.385  0.1572E+02  0.8557E+02
     -1.276  0.1332E+02  0.8713E+02
     -1.167  0.1146E+02  0.8847E+02
     -1.058  0.9982E+01  0.8967E+02
     -0.950  0.8221E+01  0.9061E+02
     -0.841  0.9191E+01  0.9149E+02
     -0.732  0.1375E+02  0.9272E+02
     -0.623  0.1380E+02  0.9422E+02
     -0.515  0.9703E+01  0.9585E+02
     -0.406  0.8844E+01  0.9681E+02
     -0.297  0.9843E+01  0.9787E+02
     -0.188  0.1040E+02  0.9901E+02
     -0.079  0.1105E+02  0.1002E+03
      0.029  0.9869E+01  0.1013E+03
      0.138  0.9347E+01  0.1024E+03
      0.247  0.9926E+01  0.1034E+03
      0.356  0.9522E+01  0.1045E+03
      0.464  0.9627E+01  0.1056E+03
      0.573  0.9237E+01  0.1066E+03
      0.682  0.9376E+01  0.1076E+03
      0.791  0.9316E+01  0.1086E+03
      0.900  0.9303E+01  0.1096E+03
      1.008  0.9206E+01  0.1106E+03
      1.117  0.9294E+01  0.1116E+03
      1.226  0.9521E+01  0.1127E+03
      1.335  0.9416E+01  0.1137E+03
      1.443  0.9751E+01  0.1147E+03
      1.552  0.1017E+02  0.1158E+03
      1.661  0.7986E+01  0.1168E+03
      1.770  0.6407E+01  0.1175E+03
      1.879  0.6517E+01  0.1182E+03
      1.987  0.4933E+01  0.1188E+03
      2.096  0.3914E+01  0.1193E+03
      2.205  0.4325E+01  0.1198E+03
      2.314  0.7346E+01  0.1204E+03
      2.422  0.8193E+01  0.1212E+03
      2.531  0.6375E+01  0.1221E+03
      2.640  0.7923E+01  0.1227E+03
      2.749  0.7907E+01  0.1236E+03
      2.858  0.5657E+01  0.1243E+03
      2.966  0.4602E+01  0.1249E+03
      3.075  0.3886E+01  0.1253E+03
      3.184  0.3386E+01  0.1257E+03
      3.293  0.3198E+01  0.1261E+03
      3.401  0.2864E+01  0.1264E+03
      3.510  0.2494E+01  0.1267E+03
      3.619  0.2100E+01  0.1269E+03
      3.728  0.1846E+01  0.1272E+03
      3.837  0.1607E+01  0.1274E+03
      3.945  0.1365E+01  0.1275E+03
      4.054  0.1129E+01  0.1276E+03
      4.163  0.9341E+00  0.1278E+03
      4.272  0.7427E+00  0.1279E+03
      4.381  0.5309E+00  0.1279E+03
      4.489  0.3314E+00  0.1280E+03
      4.598  0.1418E+00  0.1280E+03
      4.707  0.8471E-02  0.1280E+03
      4.816  0.1354E+00  0.1280E+03
      4.924  0.2734E+00  0.1280E+03
      5.033  0.4236E+00  0.1281E+03
      5.142  0.5899E+00  0.1281E+03
      5.251  0.7748E+00  0.1282E+03
      5.360  0.9912E+00  0.1283E+03
      5.468  0.1347E+01  0.1284E+03
      5.577  0.1725E+01  0.1286E+03
      5.686  0.2061E+01  0.1288E+03
      5.795  0.2424E+01  0.1290E+03
      5.903  0.3290E+01  0.1293E+03
      6.012  0.3500E+01  0.1297E+03
      6.121  0.4520E+01  0.1301E+03
      6.230  0.8337E+01  0.1308E+03
      6.339  0.8285E+01  0.1319E+03
      6.447  0.8100E+01  0.1328E+03
      6.556  0.7912E+01  0.1336E+03
      6.665  0.7978E+01  0.1345E+03
      6.774  0.6248E+01  0.1353E+03
      6.882  0.5926E+01  0.1359E+03
      6.991  0.5660E+01  0.1366E+03
      7.100  0.4776E+01  0.1371E+03
      7.209  0.4051E+01  0.1376E+03
      7.318  0.3556E+01  0.1380E+03
      7.426  0.3570E+01  0.1384E+03
      7.535  0.3977E+01  0.1388E+03
      7.644  0.4381E+01  0.1393E+03
      7.753  0.4674E+01  0.1398E+03
      7.861  0.4735E+01  0.1403E+03
      7.970  0.4558E+01  0.1408E+03
      8.079  0.4393E+01  0.1413E+03
      8.188  0.4221E+01  0.1417E+03
      8.297  0.4028E+01  0.1422E+03
      8.405  0.3853E+01  0.1426E+03
      8.514  0.3705E+01  0.1430E+03
      8.623  0.3596E+01  0.1434E+03
      8.732  0.3520E+01  0.1438E+03
      8.840  0.3424E+01  0.1442E+03
      8.949  0.3307E+01  0.1446E+03
      9.058  0.3274E+01  0.1449E+03
      9.167  0.3536E+01  0.1453E+03
      9.276  0.3800E+01  0.1457E+03
      9.384  0.4001E+01  0.1461E+03
      9.493  0.4081E+01  0.1465E+03
      9.602  0.3904E+01  0.1470E+03
      9.711  0.3893E+01  0.1474E+03
      9.819  0.3902E+01  0.1478E+03
      9.928  0.3906E+01  0.1482E+03
     10.037  0.3927E+01  0.1487E+03
     10.146  0.3915E+01  0.1491E+03
     10.255  0.3939E+01  0.1495E+03
     10.363  0.3971E+01  0.1500E+03
     10.472  0.4045E+01  0.1504E+03
     10.581  0.4357E+01  0.1508E+03
     10.690  0.5127E+01  0.1514E+03
     10.799  0.5207E+01  0.1520E+03
     10.907  0.5137E+01  0.1525E+03
     11.016  0.4620E+01  0.1531E+03
     11.125  0.4624E+01  0.1536E+03
     11.234  0.3636E+01  0.1540E+03
     11.342  0.3498E+01  0.1544E+03
     11.451  0.3469E+01  0.1548E+03
     11.560  0.3940E+01  0.1552E+03
     11.669  0.4233E+01  0.1556E+03
     11.778  0.1918E+01  0.1560E+03
     11.886  0.4000E+01  0.1562E+03
     11.995  0.6507E+01  0.1568E+03
     12.104  0.7438E+01  0.1576E+03
     12.213  0.1168E+02  0.1586E+03
     12.321  0.1317E+02  0.1600E+03
     12.430  0.1431E+02  0.1615E+03
     12.539  0.1329E+02  0.1630E+03
     12.648  0.1037E+02  0.1643E+03
     12.757  0.7131E+01  0.1652E+03
     12.865  0.6043E+01  0.1659E+03
     12.974  0.5482E+01  0.1666E+03
     13.083  0.5368E+01  0.1672E+03
     13.192  0.3039E+01  0.1676E+03
     13.300  0.1650E+01  0.1679E+03
     13.409  0.4916E+00  0.1680E+03
     13.518  0.1140E-01  0.1680E+03
     13.627  0.1290E-02  0.1680E+03
     13.736  0.0000E+00  0.1680E+03
     13.844  0.0000E+00  0.1680E+03
     13.953  0.0000E+00  0.1680E+03
     14.062  0.0000E+00  0.1680E+03
     14.171  0.0000E+00  0.1680E+03
     14.279  0.0000E+00  0.1680E+03
     14.388  0.0000E+00  0.1680E+03
     14.497  0.0000E+00  0.1680E+03
     14.606  0.0000E+00  0.1680E+03
     14.715  0.0000E+00  0.1680E+03
     14.823  0.0000E+00  0.1680E+03
     14.932  0.0000E+00  0.1680E+03
     15.041  0.0000E+00  0.1680E+03
     15.150  0.0000E+00  0.1680E+03
     15.258  0.0000E+00  0.1680E+03
     15.367  0.0000E+00  0.1680E+03
     15.476  0.0000E+00  0.1680E+03
     15.585  0.0000E+00  0.1680E+03
     15.694  0.0000E+00  0.1680E+03
