   32   32    1    1
  0.8817899E+01  0.4932875E-09  0.4932875E-09  0.1339614E-08  0.5000000E-15
  1.000000000000000E-004
  CAR 
 graphite                                
    128    163     84
 
  0.0000000E+00  0.0000000E+00  0.0000000E+00  0.3086420E-02
    1      -14.940347
    2      -14.793709
    3      -14.793093
    4      -14.636140
    5       -9.616575
    6       -9.606093
    7       -9.603751
    8       -9.556090
    9       -9.554528
   10       -9.544115
   11       -9.542818
   12       -9.542770
   13       -9.538739
   14       -9.504479
   15       -9.491674
   16       -9.488444
   17       -8.537591
   18       -8.535813
   19       -8.534167
   20       -8.505445
   21       -8.504752
   22       -8.502556
   23       -8.502204
   24       -8.502130
   25       -8.499442
   26       -8.450951
   27       -8.450511
   28       -8.448522
   29       -3.814931
   30       -2.921493
   31       -2.919758
   32       -1.831818
   33       -1.709853
   34       -1.707528
   35       -1.691965
   36       -1.681827
   37       -1.681071
   38       -1.681061
   39       -1.676930
   40       -1.664268
   41       -1.662384
   42       -1.652888
   43       -1.650113
   44       -1.634809
   45        1.687820
   46        1.695067
   47        1.695990
   48        1.701440
   49        1.707319
   50        1.712092
   51        1.713453
   52        1.720343
   53        1.926586
   54        1.929081
   55        1.930603
   56        2.332046
   57        2.335296
   58        2.342202
   59        2.342653
   60        2.342820
   61        2.347429
   62        2.608291
   63        2.626526
   64        2.629161
   65        6.205559
   66        6.208749
   67        6.215359
   68        6.345799
   69        6.347858
   70        6.350210
   71        6.352290
   72        6.352523
   73        6.355202
   74        6.880165
   75        6.887391
   76        6.889881
   77        9.012134
   78       11.661173
   79       11.665051
   80       11.888384
   81       11.892754
   82       11.924513
   83       12.085239
   84       12.086730
 
  0.1111111E+00 -0.1387779E-16  0.0000000E+00  0.6172840E-02
    1      -14.866681
    2      -14.720594
    3      -14.719982
    4      -14.563769
    5      -10.403806
    6      -10.299182
    7      -10.298473
    8      -10.189683
    9       -9.865396
   10       -9.856557
   11       -9.775477
   12       -9.774674
   13       -9.765921
   14       -9.764909
   15       -9.684160
   16       -9.674016
   17       -8.234957
   18       -8.230954
   19       -8.164446
   20       -8.162094
   21       -8.159014
   22       -8.157903
   23       -8.082904
   24       -8.078117
   25       -7.720624
   26       -7.638935
   27       -7.637515
   28       -7.551445
   29       -3.725451
   30       -2.834410
   31       -2.832675
   32       -1.936157
   33       -1.919137
   34       -1.904852
   35       -1.904507
   36       -1.888347
   37       -1.886523
   38       -1.872827
   39       -1.855685
   40       -1.748198
   41       -1.635463
   42       -1.608732
   43       -1.605694
   44       -1.578872
   45        1.335841
   46        1.392910
   47        1.405773
   48        1.409706
   49        1.421449
   50        1.533446
   51        1.543770
   52        1.548503
   53        1.560382
   54        1.808626
   55        1.812507
   56        1.915450
   57        1.918472
   58        2.280600
   59        2.283735
   60        2.290103
   61        2.291697
   62        2.487187
   63        2.664267
   64        2.680315
   65        6.282329
   66        6.287389
   67        6.477659
   68        6.481147
   69        6.483279
   70        6.486210
   71        6.567590
   72        6.889869
   73        6.893554
   74        7.015885
   75        7.023904
   76        7.487582
   77        9.100835
   78       11.737399
   79       11.741194
   80       11.931492
   81       12.123271
   82       12.124794
   83       12.224388
   84       12.258893
 
  0.2222222E+00 -0.2775558E-16  0.0000000E+00  0.6172840E-02
    1      -14.645904
    2      -14.501691
    3      -14.501091
    4      -14.347013
    5      -11.415964
    6      -11.299309
    7      -11.298782
    8      -11.176238
    9      -10.212624
   10      -10.206695
   11      -10.110097
   12      -10.109649
   13      -10.104021
   14      -10.102920
   15      -10.002763
   16       -9.996366
   17       -7.555305
   18       -7.548023
   19       -7.476792
   20       -7.474576
   21       -7.468582
   22       -7.467614
   23       -7.391609
   24       -7.384131
   25       -6.394521
   26       -6.318134
   27       -6.316801
   28       -6.237466
   29       -3.457880
   30       -2.574249
   31       -2.572522
   32       -2.543537
   33       -2.527476
   34       -2.505149
   35       -2.504931
   36       -2.489680
   37       -2.487920
   38       -2.465345
   39       -2.449208
   40       -1.498547
   41       -1.420200
   42       -1.394162
   43       -1.391040
   44       -1.364784
   45        0.313719
   46        0.566689
   47        0.587313
   48        0.591181
   49        0.611719
   50        1.025564
   51        1.027936
   52        1.112745
   53        1.127553
   54        1.132344
   55        1.147919
   56        1.585707
   57        1.589862
   58        1.834391
   59        2.159760
   60        2.162734
   61        2.167571
   62        2.169044
   63        2.727289
   64        2.738723
   65        6.524506
   66        6.526720
   67        6.812284
   68        6.815286
   69        6.817976
   70        6.820983
   71        7.323963
   72        7.329454
   73        7.693067
   74        8.113415
   75        8.116401
   76        8.699863
   77        9.367647
   78       11.964529
   79       11.968060
   80       12.048180
   81       12.232991
   82       12.234757
   83       12.403314
   84       13.075735
 
  0.3333333E+00  0.2775558E-16  0.0000000E+00  0.6172840E-02
    1      -14.279176
    2      -14.138068
    3      -14.137488
    4      -13.986963
    5      -12.329475
    6      -12.204875
    7      -12.204354
    8      -12.072369
    9      -10.469049
   10      -10.465365
   11      -10.361835
   12      -10.361364
   13      -10.358164
   14      -10.356840
   15      -10.249096
   16      -10.245225
   17       -6.746874
   18       -6.737885
   19       -6.674603
   20       -6.672290
   21       -6.664970
   22       -6.663694
   23       -6.597161
   24       -6.588277
   25       -4.960155
   26       -4.894078
   27       -4.892507
   28       -4.824278
   29       -3.359834
   30       -3.345865
   31       -3.314688
   32       -3.314411
   33       -3.301284
   34       -3.299418
   35       -3.267450
   36       -3.253314
   37       -3.014777
   38       -2.144166
   39       -2.142434
   40       -1.086926
   41       -1.070943
   42       -1.046116
   43       -1.042826
   44       -1.017330
   45       -0.709262
   46       -0.618791
   47       -0.587391
   48       -0.584327
   49       -0.552819
   50        0.071713
   51        0.073733
   52        0.549165
   53        0.567786
   54        0.572225
   55        0.591471
   56        0.993880
   57        1.393198
   58        1.396457
   59        2.036140
   60        2.039088
   61        2.042005
   62        2.043334
   63        2.738125
   64        2.745097
   65        6.877740
   66        6.880677
   67        7.204165
   68        7.206442
   69        7.208863
   70        7.212377
   71        7.630036
   72        7.633433
   73        9.199526
   74        9.591887
   75        9.594778
   76        9.812800
   77       10.106562
   78       12.069968
   79       12.316142
   80       12.318243
   81       12.320861
   82       12.401082
   83       12.403188
   84       12.707549
 
  0.4444444E+00 -0.5551115E-16  0.0000000E+00  0.6172840E-02
    1      -13.768466
    2      -13.631668
    3      -13.631123
    4      -13.485511
    5      -13.116834
    6      -12.985537
    7      -12.984981
    8      -12.845587
    9      -10.601021
   10      -10.599005
   11      -10.492321
   12      -10.491477
   13      -10.490430
   14      -10.488611
   15      -10.377196
   16      -10.375099
   17       -5.994900
   18       -5.988056
   19       -5.942770
   20       -5.940238
   21       -5.936010
   22       -5.933334
   23       -5.888204
   24       -5.882032
   25       -4.107987
   26       -4.100301
   27       -4.071532
   28       -4.069966
   29       -4.063618
   30       -4.061412
   31       -4.028825
   32       -4.020386
   33       -3.478611
   34       -3.424149
   35       -3.422199
   36       -3.366046
   37       -2.401271
   38       -2.005713
   39       -1.963407
   40       -1.960864
   41       -1.916591
   42       -1.626812
   43       -1.549634
   44       -1.547744
   45       -0.804012
   46       -0.802149
   47       -0.604456
   48       -0.580771
   49       -0.577241
   50       -0.553195
   51       -0.521206
   52       -0.048578
   53       -0.026937
   54       -0.022875
   55       -0.000792
   56        0.182912
   57        1.286965
   58        1.289145
   59        1.961899
   60        1.965144
   61        1.966199
   62        1.967531
   63        2.728430
   64        2.731679
   65        7.161154
   66        7.163906
   67        7.472249
   68        7.473507
   69        7.474620
   70        7.479150
   71        7.798999
   72        7.801805
   73       10.433016
   74       10.825160
   75       11.131101
   76       11.134765
   77       11.220373
   78       11.560769
   79       12.421105
   80       12.469051
   81       12.479381
   82       12.507244
   83       12.596885
   84       12.602476
 
 -0.6776264E-20  0.1111111E+00  0.0000000E+00  0.6172840E-02
    1      -14.866680
    2      -14.720593
    3      -14.719979
    4      -14.563767
    5      -10.403910
    6      -10.299200
    7      -10.298703
    8      -10.189832
    9       -9.865403
   10       -9.856226
   11       -9.775413
   12       -9.774678
   13       -9.765917
   14       -9.764211
   15       -9.684122
   16       -9.673627
   17       -8.235306
   18       -8.231993
   19       -8.164460
   20       -8.163650
   21       -8.159066
   22       -8.158745
   23       -8.083211
   24       -8.078908
   25       -7.719598
   26       -7.637550
   27       -7.636949
   28       -7.550507
   29       -3.725455
   30       -2.834414
   31       -2.832682
   32       -1.934942
   33       -1.919029
   34       -1.904843
   35       -1.902000
   36       -1.888477
   37       -1.886523
   38       -1.871558
   39       -1.855765
   40       -1.748205
   41       -1.636559
   42       -1.608737
   43       -1.608151
   44       -1.580287
   45        1.335154
   46        1.396834
   47        1.409708
   48        1.410336
   49        1.423139
   50        1.531800
   51        1.543764
   52        1.544096
   53        1.556043
   54        1.808741
   55        1.813416
   56        1.915100
   57        1.916860
   58        2.281017
   59        2.283690
   60        2.290253
   61        2.293712
   62        2.485907
   63        2.664365
   64        2.681692
   65        6.280324
   66        6.287176
   67        6.477347
   68        6.479491
   69        6.482757
   70        6.484472
   71        6.569692
   72        6.892554
   73        6.894387
   74        7.015687
   75        7.022088
   76        7.489223
   77        9.100830
   78       11.737367
   79       11.741159
   80       11.930848
   81       12.123167
   82       12.123682
   83       12.225174
   84       12.261929
 
  0.1111111E+00  0.1111111E+00  0.0000000E+00  0.6172840E-02
    1      -14.719353
    2      -14.574497
    3      -14.573893
    4      -14.419091
    5      -10.869719
    6      -10.866710
    7      -10.759714
    8      -10.757179
    9      -10.757150
   10      -10.753642
   11      -10.641655
   12      -10.638570
   13       -9.427309
   14       -9.367535
   15       -9.366519
   16       -9.317283
   17       -8.350886
   18       -8.321906
   19       -8.318203
   20       -8.270062
   21       -7.037245
   22       -7.033917
   23       -6.958728
   24       -6.955126
   25       -6.955099
   26       -6.952214
   27       -6.873024
   28       -6.869792
   29       -3.546820
   30       -2.660716
   31       -2.658982
   32       -2.602916
   33       -2.564699
   34       -2.562854
   35       -2.523911
   36       -1.791413
   37       -1.788979
   38       -1.760981
   39       -1.759991
   40       -1.759981
   41       -1.755674
   42       -1.729215
   43       -1.726212
   44       -1.581500
   45        0.862733
   46        0.875945
   47        0.880745
   48        0.891340
   49        0.900574
   50        0.901643
   51        1.219489
   52        1.227850
   53        1.232629
   54        1.243980
   55        1.555026
   56        1.556793
   57        1.556904
   58        1.560696
   59        2.193715
   60        2.267088
   61        2.269628
   62        2.598640
   63        2.601400
   64        2.869402
   65        6.198290
   66        6.273813
   67        6.278750
   68        6.704632
   69        7.046451
   70        7.049337
   71        7.432072
   72        7.436185
   73        7.436516
   74        7.438203
   75        8.014465
   76        8.017046
   77        9.278931
   78       11.890812
   79       11.894458
   80       12.303347
   81       12.307791
   82       12.493925
   83       12.496664
   84       12.501905
 
  0.2222222E+00  0.1111111E+00  0.0000000E+00  0.6172840E-02
    1      -14.425503
    2      -14.283125
    3      -14.282538
    4      -14.130602
    5      -11.835725
    6      -11.715485
    7      -11.714969
    8      -11.588113
    9      -11.210793
   10      -11.096267
   11      -11.095632
   12      -10.975012
   13       -9.479286
   14       -9.392579
   15       -9.392172
   16       -9.305090
   17       -7.887525
   18       -7.822092
   19       -7.818980
   20       -7.745984
   21       -6.250492
   22       -6.177219
   23       -6.176440
   24       -6.100417
   25       -5.653405
   26       -5.582801
   27       -5.581469
   28       -5.508433
   29       -3.511742
   30       -3.465195
   31       -3.463412
   32       -3.415422
   33       -3.191343
   34       -2.318475
   35       -2.315348
   36       -2.313600
   37       -2.281203
   38       -2.281037
   39       -2.242998
   40       -1.503160
   41       -1.474604
   42       -1.471552
   43       -1.442616
   44       -1.250617
   45       -0.144571
   46       -0.090983
   47       -0.069721
   48       -0.065520
   49       -0.045210
   50        0.563064
   51        0.604977
   52        0.607038
   53        0.674668
   54        0.688328
   55        0.693749
   56        0.709272
   57        1.268107
   58        1.269740
   59        1.477133
   60        2.068878
   61        2.328279
   62        2.801027
   63        2.803682
   64        3.183192
   65        6.168930
   66        6.282558
   67        6.287231
   68        6.648983
   69        7.621690
   70        8.006175
   71        8.008194
   72        8.398525
   73        8.502317
   74        8.804995
   75        8.807565
   76        9.335056
   77        9.636007
   78       12.194463
   79       12.197715
   80       12.431018
   81       12.636299
   82       12.638022
   83       12.680446
   84       13.059289
 
  0.3333333E+00  0.1111111E+00  0.0000000E+00  0.6172840E-02
    1      -13.986667
    2      -13.848014
    3      -13.847454
    4      -13.699753
    5      -12.686821
    6      -12.559103
    7      -12.558561
    8      -12.423322
    9      -11.419865
   10      -11.303214
   11      -11.302568
   12      -11.179874
   13       -9.623495
   14       -9.526500
   15       -9.526167
   16       -9.425465
   17       -7.121994
   18       -7.055847
   19       -7.052908
   20       -6.983901
   21       -5.449528
   22       -5.389383
   23       -5.387887
   24       -5.326291
   25       -4.450364
   26       -4.402111
   27       -4.400145
   28       -4.348987
   29       -4.202945
   30       -4.143524
   31       -4.141960
   32       -4.081017
   33       -3.017973
   34       -2.978295
   35       -2.977573
   36       -2.935499
   37       -2.662671
   38       -1.803252
   39       -1.801559
   40       -1.338143
   41       -1.303549
   42       -1.299981
   43       -1.266332
   44       -1.120473
   45       -1.086535
   46       -1.059526
   47       -1.056357
   48       -1.029062
   49       -0.761346
   50       -0.318784
   51       -0.316903
   52        0.049067
   53        0.068888
   54        0.073680
   55        0.094372
   56        0.352758
   57        0.636486
   58        1.083879
   59        1.085497
   60        1.932358
   61        2.324904
   62        2.891658
   63        2.893925
   64        3.460849
   65        6.151350
   66        6.402069
   67        6.406040
   68        6.749610
   69        8.130473
   70        8.461395
   71        8.463735
   72        8.827816
   73        9.965286
   74       10.170368
   75       10.312231
   76       10.314592
   77       10.754791
   78       11.743665
   79       12.591188
   80       12.594610
   81       12.706975
   82       12.813758
   83       12.816190
   84       13.065842
 
  0.4444444E+00  0.1111111E+00  0.0000000E+00  0.6172840E-02
    1      -13.407373
    2      -13.404391
    3      -13.274513
    4      -13.272503
    5      -13.271553
    6      -13.268737
    7      -13.130901
    8      -13.127864
    9      -11.490432
   10      -11.373325
   11      -11.372669
   12      -11.249260
   13       -9.678349
   14       -9.579384
   15       -9.578918
   16       -9.475791
   17       -6.610826
   18       -6.568482
   19       -6.565727
   20       -6.525558
   21       -4.974328
   22       -4.971065
   23       -4.946300
   24       -4.944362
   25       -4.939176
   26       -4.935797
   27       -4.911753
   28       -4.902741
   29       -3.432846
   30       -3.409855
   31       -3.407259
   32       -3.379265
   33       -2.743866
   34       -2.739700
   35       -2.698039
   36       -2.693576
   37       -2.691623
   38       -2.691483
   39       -2.646067
   40       -2.642528
   41       -1.969508
   42       -1.967020
   43       -1.133809
   44       -1.131896
   45       -1.131129
   46       -1.127876
   47       -0.560053
   48       -0.555639
   49       -0.534496
   50       -0.534331
   51       -0.532129
   52       -0.525143
   53       -0.507667
   54       -0.500406
   55       -0.126637
   56       -0.123801
   57        0.280694
   58        1.020051
   59        1.021687
   60        1.883258
   61        2.312990
   62        2.915378
   63        2.917247
   64        3.565591
   65        6.156086
   66        6.469625
   67        6.472720
   68        6.804566
   69        8.350218
   70        8.638739
   71        8.641542
   72        8.928889
   73       10.877196
   74       10.878908
   75       11.560083
   76       11.563701
   77       11.802905
   78       11.807955
   79       11.808889
   80       11.812012
   81       12.166776
   82       12.170387
   83       12.935009
   84       12.941674
 
 -0.4444444E+00  0.1111111E+00  0.0000000E+00  0.6172840E-02
    1      -13.987411
    2      -13.848763
    3      -13.848188
    4      -13.700492
    5      -12.685639
    6      -12.557920
    7      -12.557394
    8      -12.422136
    9      -11.421630
   10      -11.305026
   11      -11.304375
   12      -11.181666
   13       -9.620585
   14       -9.523454
   15       -9.522932
   16       -9.422142
   17       -7.115444
   18       -7.048383
   19       -7.047193
   20       -6.977416
   21       -5.459402
   22       -5.399760
   23       -5.396747
   24       -5.335602
   25       -4.460848
   26       -4.411996
   27       -4.411698
   28       -4.359864
   29       -4.205491
   30       -4.146269
   31       -4.144347
   32       -4.083605
   33       -3.005347
   34       -2.966327
   35       -2.963802
   36       -2.922451
   37       -2.663480
   38       -1.804038
   39       -1.802372
   40       -1.336650
   41       -1.301526
   42       -1.299344
   43       -1.265114
   44       -1.119276
   45       -1.083939
   46       -1.057240
   47       -1.053618
   48       -1.026520
   49       -0.762144
   50       -0.317648
   51       -0.315701
   52        0.047570
   53        0.067881
   54        0.071205
   55        0.092156
   56        0.351026
   57        0.637608
   58        1.081736
   59        1.083426
   60        1.929559
   61        2.326441
   62        2.895585
   63        2.897247
   64        3.468767
   65        6.149630
   66        6.403912
   67        6.406250
   68        6.749915
   69        8.126458
   70        8.457362
   71        8.460624
   72        8.826352
   73        9.965282
   74       10.169270
   75       10.311124
   76       10.313755
   77       10.752982
   78       11.745294
   79       12.590683
   80       12.594012
   81       12.704354
   82       12.811198
   83       12.814045
   84       13.062157
 
 -0.3333333E+00  0.1111111E+00  0.0000000E+00  0.6172840E-02
    1      -14.426024
    2      -14.283659
    3      -14.283061
    4      -14.131123
    5      -11.834333
    6      -11.714088
    7      -11.713578
    8      -11.586721
    9      -11.214368
   10      -11.099881
   11      -11.099260
   12      -10.978657
   13       -9.472824
   14       -9.385557
   15       -9.385030
   16       -9.297233
   17       -7.883371
   18       -7.816158
   19       -7.815497
   20       -7.740888
   21       -6.260344
   22       -6.187853
   23       -6.185324
   24       -6.110054
   25       -5.655894
   26       -5.585398
   27       -5.583868
   28       -5.510956
   29       -3.525506
   30       -3.478321
   31       -3.477944
   32       -3.429293
   33       -3.191929
   34       -2.315938
   35       -2.314229
   36       -2.302402
   37       -2.266168
   38       -2.263987
   39       -2.226850
   40       -1.501204
   41       -1.472760
   42       -1.469500
   43       -1.440675
   44       -1.251200
   45       -0.143285
   46       -0.091845
   47       -0.069904
   48       -0.068427
   49       -0.047081
   50        0.559773
   51        0.606189
   52        0.608297
   53        0.676670
   54        0.690958
   55        0.693812
   56        0.709049
   57        1.263900
   58        1.265684
   59        1.478262
   60        2.063159
   61        2.330339
   62        2.808247
   63        2.809929
   64        3.197846
   65        6.163876
   66        6.285489
   67        6.287450
   68        6.652195
   69        7.617219
   70        7.999880
   71        8.003499
   72        8.398057
   73        8.498301
   74        8.803563
   75        8.806503
   76        9.333112
   77        9.635201
   78       12.193566
   79       12.196800
   80       12.429393
   81       12.634213
   82       12.636408
   83       12.680499
   84       13.058792
 
 -0.2222222E+00  0.1111111E+00  0.0000000E+00  0.6172840E-02
    1      -14.719644
    2      -14.574823
    3      -14.574212
    4      -14.419415
    5      -10.873619
    6      -10.866593
    7      -10.762733
    8      -10.762190
    9      -10.755628
   10      -10.755055
   11      -10.645801
   12      -10.638596
   13       -9.416433
   14       -9.355159
   15       -9.354663
   16       -9.303833
   17       -8.351179
   18       -8.319803
   19       -8.319300
   20       -8.268805
   21       -7.043157
   22       -7.038210
   23       -6.964078
   24       -6.961702
   25       -6.958644
   26       -6.957272
   27       -6.879076
   28       -6.874209
   29       -3.547174
   30       -2.661067
   31       -2.659341
   32       -2.618391
   33       -2.579564
   34       -2.579049
   35       -2.539476
   36       -1.788278
   37       -1.773585
   38       -1.758789
   39       -1.755725
   40       -1.743632
   41       -1.741535
   42       -1.725908
   43       -1.711320
   44       -1.581816
   45        0.857174
   46        0.870387
   47        0.870829
   48        0.883176
   49        0.896150
   50        0.902765
   51        1.227823
   52        1.237657
   53        1.238018
   54        1.248877
   55        1.549847
   56        1.551796
   57        1.557670
   58        1.560335
   59        2.195750
   60        2.258974
   61        2.269753
   62        2.607700
   63        2.609485
   64        2.887676
   65        6.191221
   66        6.277471
   67        6.279362
   68        6.711134
   69        7.046276
   70        7.046553
   71        7.428699
   72        7.432230
   73        7.432654
   74        7.435640
   75        8.010735
   76        8.013130
   77        9.278430
   78       11.890185
   79       11.893827
   80       12.304305
   81       12.337412
   82       12.495505
   83       12.498125
   84       12.529900
 
 -0.1111111E+00  0.1111111E+00  0.0000000E+00  0.6172840E-02
    1      -14.866786
    2      -14.720700
    3      -14.720083
    4      -14.563871
    5      -10.411461
    6      -10.306860
    7      -10.306489
    8      -10.197788
    9       -9.856147
   10       -9.854026
   11       -9.765990
   12       -9.764530
   13       -9.764485
   14       -9.761388
   15       -9.673896
   16       -9.671413
   17       -8.234378
   18       -8.232339
   19       -8.163214
   20       -8.160649
   21       -8.160616
   22       -8.159458
   23       -8.081387
   24       -8.079633
   25       -7.725271
   26       -7.644197
   27       -7.641711
   28       -7.556336
   29       -3.725574
   30       -2.834531
   31       -2.832802
   32       -1.936227
   33       -1.934033
   34       -1.905144
   35       -1.904449
   36       -1.904437
   37       -1.900324
   38       -1.873132
   39       -1.870404
   40       -1.748324
   41       -1.619409
   42       -1.592175
   43       -1.590149
   44       -1.562962
   45        1.329969
   46        1.386130
   47        1.397611
   48        1.402621
   49        1.415506
   50        1.539637
   51        1.551815
   52        1.555896
   53        1.566458
   54        1.812772
   55        1.814524
   56        1.907177
   57        1.909363
   58        2.289907
   59        2.290877
   60        2.291041
   61        2.295495
   62        2.473579
   63        2.679742
   64        2.682389
   65        6.279953
   66        6.283186
   67        6.478221
   68        6.483163
   69        6.483384
   70        6.484755
   71        6.570384
   72        6.886622
   73        6.890931
   74        7.020404
   75        7.022937
   76        7.482728
   77        9.100659
   78       11.737142
   79       11.740937
   80       11.964204
   81       12.156472
   82       12.157323
   83       12.222601
   84       12.227436
 
 -0.1355253E-19  0.2222222E+00  0.0000000E+00  0.6172840E-02
    1      -14.645897
    2      -14.501689
    3      -14.501078
    4      -14.347005
    5      -11.415945
    6      -11.299305
    7      -11.298754
    8      -11.176227
    9      -10.212802
   10      -10.206467
   11      -10.110509
   12      -10.109686
   13      -10.104016
   14      -10.102245
   15      -10.002868
   16       -9.996083
   17       -7.555676
   18       -7.548885
   19       -7.476803
   20       -7.475887
   21       -7.468659
   22       -7.468393
   23       -7.391898
   24       -7.384804
   25       -6.393580
   26       -6.316834
   27       -6.316271
   28       -6.236572
   29       -3.457898
   30       -2.574266
   31       -2.572545
   32       -2.542376
   33       -2.527365
   34       -2.505128
   35       -2.502529
   36       -2.489569
   37       -2.487919
   38       -2.464059
   39       -2.449163
   40       -1.498575
   41       -1.421356
   42       -1.394167
   43       -1.393636
   44       -1.366286
   45        0.313272
   46        0.569581
   47        0.591179
   48        0.591651
   49        0.613497
   50        1.025311
   51        1.027042
   52        1.111034
   53        1.127547
   54        1.127969
   55        1.144519
   56        1.585766
   57        1.590747
   58        1.833608
   59        2.160159
   60        2.162672
   61        2.167682
   62        2.170927
   63        2.727460
   64        2.739980
   65        6.522858
   66        6.526212
   67        6.811725
   68        6.813392
   69        6.817826
   70        6.819396
   71        7.323135
   72        7.328129
   73        7.694650
   74        8.115340
   75        8.117138
   76        8.701119
   77        9.367631
   78       11.964411
   79       11.967942
   80       12.047503
   81       12.232853
   82       12.233509
   83       12.402613
   84       13.073492
 
  0.1111111E+00  0.2222222E+00  0.0000000E+00  0.6172840E-02
    1      -14.425498
    2      -14.283123
    3      -14.282529
    4      -14.130597
    5      -11.835685
    6      -11.715477
    7      -11.714899
    8      -11.588074
    9      -11.210822
   10      -11.096271
   11      -11.095681
   12      -10.975035
   13       -9.479276
   14       -9.392559
   15       -9.392169
   16       -9.305078
   17       -7.887590
   18       -7.822092
   19       -7.819146
   20       -7.746086
   21       -6.251520
   22       -6.178483
   23       -6.177194
   24       -6.101413
   25       -5.652380
   26       -5.581493
   27       -5.580768
   28       -5.507443
   29       -3.511647
   30       -3.465037
   31       -3.463411
   32       -3.415355
   33       -3.191357
   34       -2.317234
   35       -2.315355
   36       -2.313623
   37       -2.281176
   38       -2.278424
   39       -2.241579
   40       -1.504417
   41       -1.474614
   42       -1.474305
   43       -1.444167
   44       -1.250639
   45       -0.144909
   46       -0.089332
   47       -0.067711
   48       -0.065518
   49       -0.044541