 running on    6 total cores
 distrk:  each k-point on    6 cores,    1 groups
 distr:  one band on    1 cores,    6 groups
 using from now: INCAR     
 vasp.5.3.5 31Mar14 (build Nov 02 2014 15:17:37) complex                        
  
 POSCAR found :  1 types and      32 ions
 scaLAPACK will be used

 ----------------------------------------------------------------------------- 
|                                                                             |
|           W    W    AA    RRRRR   N    N  II  N    N   GGGG   !!!           |
|           W    W   A  A   R    R  NN   N  II  NN   N  G    G  !!!           |
|           W    W  A    A  R    R  N N  N  II  N N  N  G       !!!           |
|           W WW W  AAAAAA  RRRRR   N  N N  II  N  N N  G  GGG   !            |
|           WW  WW  A    A  R   R   N   NN  II  N   NN  G    G                |
|           W    W  A    A  R    R  N    N  II  N    N   GGGG   !!!           |
|                                                                             |
|      For optimal performance we recommend to set                            |
|        NCORE= 4 - approx SQRT( number of cores)                             |
|      NCORE specifies how many cores store one orbital (NPAR=cpu/NCORE).     |
|      This setting can  greatly improve the performance of VASP for DFT.     |
|      The default, NPAR=number of cores might be grossly inefficient         |
|      on modern multi-core architectures or massively parallel machines.     |
|      Do your own testing !!!!                                               |
|      Unfortunately you need to use the default for GW and RPA calculations. |
|      (for HF NCORE is supported but not extensively tested yet)             |
|                                                                             |
 ----------------------------------------------------------------------------- 


 ----------------------------------------------------------------------------- 
|                                                                             |
|  ADVICE TO THIS USER RUNNING 'VASP/VAMP'   (HEAR YOUR MASTER'S VOICE ...):  |
|                                                                             |
|      You have a (more or less) 'large supercell' and for larger cells       |
|      it might be more efficient to use real space projection operators      |
|      So try LREAL= Auto  in the INCAR   file.                               |
|      Mind: If you want to do a very accurate calculations keep the          |
|      reciprocal projection scheme          (i.e. LREAL=.FALSE.)             |
|                                                                             |
 ----------------------------------------------------------------------------- 

 LDA part: xc-table for Pade appr. of Perdew
 POSCAR, INCAR and KPOINTS ok, starting setup
 WARNING: small aliasing (wrap around) errors must be expected
 FFT: planning ...
 WAVECAR not read
 WARNING: random wavefunctions but no delay for mixing, default for NELMDL
 entering main loop
       N       E                     dE             d eps       ncg     rms          rms(c)
DAV:   1     0.592127655116E+03    0.59213E+03   -0.71765E+04 27384   0.160E+03
DAV:   2    -0.263100404772E+03   -0.85523E+03   -0.82408E+03 33972   0.311E+02
DAV:   3    -0.312644574154E+03   -0.49544E+02   -0.49066E+02 33288   0.753E+01
DAV:   4    -0.313583015689E+03   -0.93844E+00   -0.93660E+00 34836   0.112E+01
DAV:   5    -0.313610128141E+03   -0.27112E-01   -0.27101E-01 34884   0.179E+00    0.221E+01
DAV:   6    -0.299164292051E+03    0.14446E+02   -0.14907E+01 31296   0.107E+01    0.116E+01
DAV:   7    -0.294591297078E+03    0.45730E+01   -0.15621E+01 30984   0.110E+01    0.193E+00
DAV:   8    -0.294654494742E+03   -0.63198E-01   -0.40093E-01 30912   0.183E+00    0.311E-01
DAV:   9    -0.294655443252E+03   -0.94851E-03   -0.24654E-02 32868   0.489E-01    0.151E-01
DAV:  10    -0.294655808293E+03   -0.36504E-03   -0.37588E-03 32304   0.205E-01    0.966E-02
DAV:  11    -0.294656505542E+03   -0.69725E-03   -0.34401E-03 33492   0.153E-01    0.739E-02
DAV:  12    -0.294656685488E+03   -0.17995E-03   -0.83529E-04 31104   0.913E-02    0.464E-02
DAV:  13    -0.294656805413E+03   -0.11992E-03   -0.29923E-03 42708   0.129E-01    0.520E-02
DAV:  14    -0.294656710540E+03    0.94873E-04   -0.82665E-04 35676   0.892E-02    0.799E-03
DAV:  15    -0.294656713796E+03   -0.32555E-05   -0.56826E-05 31272   0.248E-02    0.405E-03
DAV:  16    -0.294656713991E+03   -0.19537E-06   -0.35274E-06 27276   0.641E-03
   1 F= -.29966968E+03 E0= -.29966968E+03  d E =0.000000E+00
