 running on    2 total cores
 distrk:  each k-point on    2 cores,    1 groups
 distr:  one band on    1 cores,    2 groups
 using from now: INCAR     
 vasp.5.3.5 31Mar14 (build Nov 02 2014 15:17:37) complex                        
  
 POSCAR found :  1 types and      32 ions
 scaLAPACK will be used

 ----------------------------------------------------------------------------- 
|                                                                             |
|  ADVICE TO THIS USER RUNNING 'VASP/VAMP'   (HEAR YOUR MASTER'S VOICE ...):  |
|                                                                             |
|      You have a (more or less) 'large supercell' and for larger cells       |
|      it might be more efficient to use real space projection operators      |
|      So try LREAL= Auto  in the INCAR   file.                               |
|      Mind: If you want to do a very accurate calculations keep the          |
|      reciprocal projection scheme          (i.e. LREAL=.FALSE.)             |
|                                                                             |
 ----------------------------------------------------------------------------- 

 LDA part: xc-table for Pade appr. of Perdew
 POSCAR, INCAR and KPOINTS ok, starting setup
 WARNING: small aliasing (wrap around) errors must be expected
 FFT: planning ...
 WAVECAR not read
 WARNING: random wavefunctions but no delay for mixing, default for NELMDL
 entering main loop
       N       E                     dE             d eps       ncg     rms          rms(c)
DAV:   1     0.618629126864E+03    0.61863E+03   -0.71484E+04 26764   0.164E+03
DAV:   2    -0.258128126230E+03   -0.87676E+03   -0.83187E+03 33474   0.322E+02
DAV:   3    -0.312348066902E+03   -0.54220E+02   -0.53508E+02 31636   0.804E+01
DAV:   4    -0.313568049498E+03   -0.12200E+01   -0.12167E+01 32984   0.129E+01
DAV:   5    -0.313609828597E+03   -0.41779E-01   -0.41758E-01 33752   0.217E+00    0.221E+01
DAV:   6    -0.299164851565E+03    0.14445E+02   -0.14947E+01 29918   0.110E+01    0.116E+01
DAV:   7    -0.294592272518E+03    0.45726E+01   -0.15664E+01 29532   0.112E+01    0.193E+00
DAV:   8    -0.294654445398E+03   -0.62173E-01   -0.36543E-01 29990   0.186E+00    0.312E-01
DAV:   9    -0.294655465014E+03   -0.10196E-02   -0.14943E-02 31466   0.503E-01    0.149E-01
DAV:  10    -0.294655820369E+03   -0.35535E-03   -0.20657E-03 31068   0.209E-01    0.954E-02
DAV:  11    -0.294656492670E+03   -0.67230E-03   -0.63561E-04 31528   0.154E-01    0.730E-02
DAV:  12    -0.294656680977E+03   -0.18831E-03   -0.33610E-04 29732   0.928E-02    0.459E-02
DAV:  13    -0.294656804323E+03   -0.12335E-03   -0.11309E-04 38960   0.130E-01    0.514E-02
DAV:  14    -0.294656709712E+03    0.94611E-04   -0.76995E-05 33108   0.885E-02    0.617E-03
DAV:  15    -0.294656713733E+03   -0.40203E-05   -0.35009E-05 30056   0.238E-02    0.384E-03
DAV:  16    -0.294656713859E+03   -0.12606E-06   -0.24482E-06 22624   0.603E-03
   1 F= -.29966968E+03 E0= -.29966968E+03  d E =0.000000E+00
