   4   4   0   0
  0.8206758E+01  0.2466437E-09  0.2466437E-09  0.6233846E-09  0.5000000E-15
  1.000000000000000E-004
  CAR 
 graphite                                
     19.12131054    -16.38144802  301      5.32481519      1.00000000
    -16.381  0.0000E+00  0.0000E+00
    -16.263  0.0000E+00  0.0000E+00
    -16.145  0.0000E+00  0.0000E+00
    -16.026  0.0000E+00  0.0000E+00
    -15.908  0.0000E+00  0.0000E+00
    -15.790  0.0000E+00  0.0000E+00
    -15.671  0.0000E+00  0.0000E+00
    -15.553  0.0000E+00  0.0000E+00
    -15.435  0.0000E+00  0.0000E+00
    -15.316  0.0000E+00  0.0000E+00
    -15.198  0.0000E+00  0.0000E+00
    -15.080  0.0000E+00  0.0000E+00
    -14.961  0.0000E+00  0.0000E+00
    -14.843  0.0000E+00  0.0000E+00
    -14.725  0.0000E+00  0.0000E+00
    -14.606  0.0000E+00  0.0000E+00
    -14.488  0.0000E+00  0.0000E+00
    -14.370  0.1474E-04  0.5810E-07
    -14.251  0.8707E-03  0.4402E-04
    -14.133  0.1335E-02  0.1846E-03
    -14.015  0.1794E-02  0.3688E-03
    -13.896  0.2399E-02  0.6145E-03
    -13.778  0.3183E-02  0.9493E-03
    -13.660  0.2976E-02  0.1316E-02
    -13.541  0.3067E-02  0.1674E-02
    -13.423  0.3124E-02  0.2041E-02
    -13.305  0.3091E-02  0.2409E-02
    -13.186  0.3096E-02  0.2775E-02
    -13.068  0.3115E-02  0.3143E-02
    -12.950  0.3125E-02  0.3512E-02
    -12.831  0.3118E-02  0.3882E-02
    -12.713  0.3075E-02  0.4249E-02
    -12.594  0.3096E-02  0.4614E-02
    -12.476  0.3129E-02  0.4982E-02
    -12.358  0.3172E-02  0.5355E-02
    -12.239  0.3171E-02  0.5731E-02
    -12.121  0.3169E-02  0.6106E-02
    -12.003  0.3165E-02  0.6481E-02
    -11.884  0.3138E-02  0.6854E-02
    -11.766  0.3131E-02  0.7224E-02
    -11.648  0.3152E-02  0.7596E-02
    -11.529  0.3177E-02  0.7971E-02
    -11.411  0.3207E-02  0.8348E-02
    -11.293  0.3242E-02  0.8730E-02
    -11.174  0.3246E-02  0.9114E-02
    -11.056  0.3250E-02  0.9498E-02
    -10.938  0.3245E-02  0.9882E-02
    -10.819  0.3232E-02  0.1027E-01
    -10.701  0.3241E-02  0.1065E-01
    -10.583  0.3257E-02  0.1103E-01
    -10.464  0.3285E-02  0.1142E-01
    -10.346  0.3314E-02  0.1181E-01
    -10.228  0.3351E-02  0.1220E-01
    -10.109  0.3396E-02  0.1260E-01
     -9.991  0.3448E-02  0.1301E-01
     -9.873  0.3503E-02  0.1342E-01
     -9.754  0.3582E-02  0.1384E-01
     -9.636  0.3680E-02  0.1427E-01
     -9.518  0.3801E-02  0.1471E-01
     -9.399  0.4594E-02  0.1519E-01
     -9.281  0.5017E-02  0.1576E-01
     -9.163  0.5156E-02  0.1637E-01
     -9.044  0.4964E-02  0.1699E-01
     -8.926  0.3666E-02  0.1750E-01
     -8.808  0.2779E-02  0.1788E-01
     -8.689  0.2480E-02  0.1819E-01
     -8.571  0.5841E-02  0.1848E-01
     -8.452  0.2615E-02  0.1888E-01
     -8.334  0.2669E-02  0.1919E-01
     -8.216  0.1201E-02  0.1942E-01
     -8.097  0.1054E-02  0.1955E-01
     -7.979  0.9067E-03  0.1967E-01
     -7.861  0.7871E-03  0.1977E-01
     -7.742  0.9432E-03  0.1987E-01
     -7.624  0.1234E-02  0.2000E-01
     -7.506  0.1526E-02  0.2016E-01
     -7.387  0.3138E-02  0.2041E-01
     -7.269  0.4142E-02  0.2090E-01
     -7.151  0.4239E-02  0.2139E-01
     -7.032  0.4050E-02  0.2189E-01
     -6.914  0.4488E-02  0.2238E-01
     -6.796  0.5274E-02  0.2296E-01
     -6.677  0.6060E-02  0.2363E-01
     -6.559  0.4996E-02  0.2428E-01
     -6.441  0.3667E-02  0.2482E-01
     -6.322  0.3463E-02  0.2523E-01
     -6.204  0.3367E-02  0.2564E-01
     -6.086  0.3281E-02  0.2603E-01
     -5.967  0.3199E-02  0.2641E-01
     -5.849  0.3110E-02  0.2679E-01
     -5.731  0.3015E-02  0.2715E-01
     -5.612  0.2920E-02  0.2750E-01
     -5.494  0.2825E-02  0.2784E-01
     -5.376  0.2730E-02  0.2817E-01
     -5.257  0.2634E-02  0.2849E-01
     -5.139  0.2566E-02  0.2879E-01
     -5.021  0.2780E-02  0.2911E-01
     -4.902  0.3014E-02  0.2945E-01
     -4.784  0.3247E-02  0.2982E-01
     -4.666  0.3480E-02  0.3022E-01
     -4.547  0.3714E-02  0.3064E-01
     -4.429  0.3947E-02  0.3110E-01
     -4.311  0.4073E-02  0.3158E-01
     -4.192  0.4123E-02  0.3206E-01
     -4.074  0.3959E-02  0.3254E-01
     -3.955  0.3823E-02  0.3300E-01
     -3.837  0.3822E-02  0.3345E-01
     -3.719  0.3820E-02  0.3390E-01
     -3.600  0.3819E-02  0.3435E-01
     -3.482  0.3864E-02  0.3481E-01
     -3.364  0.4188E-02  0.3528E-01
     -3.245  0.4503E-02  0.3580E-01
     -3.127  0.4693E-02  0.3634E-01
     -3.009  0.4922E-02  0.3691E-01
     -2.890  0.5136E-02  0.3751E-01
     -2.772  0.5399E-02  0.3813E-01
     -2.654  0.5682E-02  0.3879E-01
     -2.535  0.5924E-02  0.3947E-01
     -2.417  0.6159E-02  0.4019E-01
     -2.299  0.6484E-02  0.4093E-01
     -2.180  0.6892E-02  0.4173E-01
     -2.062  0.6645E-02  0.4255E-01
     -1.944  0.6298E-02  0.4331E-01
     -1.825  0.6053E-02  0.4404E-01
     -1.707  0.5955E-02  0.4475E-01
     -1.589  0.5980E-02  0.4545E-01
     -1.470  0.6934E-02  0.4621E-01
     -1.352  0.8190E-02  0.4711E-01
     -1.234  0.9141E-02  0.4814E-01
     -1.115  0.1011E-01  0.4927E-01
     -0.997  0.1636E-01  0.5068E-01
     -0.879  0.1012E-01  0.5220E-01
     -0.760  0.8720E-02  0.5329E-01
     -0.642  0.8178E-02  0.5429E-01
     -0.524  0.7570E-02  0.5522E-01
     -0.405  0.6091E-02  0.5603E-01
     -0.287  0.5821E-02  0.5672E-01
     -0.169  0.5628E-02  0.5740E-01
     -0.050  0.5404E-02  0.5805E-01
      0.068  0.5557E-02  0.5870E-01
      0.187  0.6907E-02  0.5942E-01
      0.305  0.8495E-02  0.6033E-01
      0.423  0.7701E-02  0.6121E-01
      0.542  0.7190E-02  0.6209E-01
      0.660  0.6746E-02  0.6292E-01
      0.778  0.6573E-02  0.6370E-01
      0.897  0.6458E-02  0.6447E-01
      1.015  0.6212E-02  0.6522E-01
      1.133  0.5987E-02  0.6594E-01
      1.252  0.5838E-02  0.6664E-01
      1.370  0.6035E-02  0.6734E-01
      1.488  0.5910E-02  0.6805E-01
      1.607  0.5789E-02  0.6874E-01
      1.725  0.5898E-02  0.6943E-01
      1.843  0.5869E-02  0.7013E-01
      1.962  0.5582E-02  0.7081E-01
      2.080  0.6240E-02  0.7149E-01
      2.198  0.5797E-02  0.7221E-01
      2.317  0.4757E-02  0.7284E-01
      2.435  0.3976E-02  0.7334E-01
      2.553  0.3921E-02  0.7380E-01
      2.672  0.3894E-02  0.7427E-01
      2.790  0.3883E-02  0.7473E-01
      2.908  0.3900E-02  0.7519E-01
      3.027  0.3966E-02  0.7565E-01
      3.145  0.4219E-02  0.7613E-01
      3.263  0.4419E-02  0.7666E-01
      3.382  0.4179E-02  0.7718E-01
      3.500  0.3464E-02  0.7763E-01
      3.618  0.3098E-02  0.7801E-01
      3.737  0.2636E-02  0.7835E-01
      3.855  0.2072E-02  0.7863E-01
      3.973  0.1770E-02  0.7886E-01
      4.092  0.1591E-02  0.7905E-01
      4.210  0.1410E-02  0.7923E-01
      4.328  0.1230E-02  0.7939E-01
      4.447  0.1059E-02  0.7952E-01
      4.565  0.9230E-03  0.7964E-01
      4.684  0.8365E-03  0.7974E-01
      4.802  0.6677E-03  0.7983E-01
      4.920  0.5049E-03  0.7990E-01
      5.039  0.3474E-03  0.7995E-01
      5.157  0.1941E-03  0.7998E-01
      5.275  0.4483E-04  0.8000E-01
      5.394  0.4387E-04  0.8000E-01
      5.512  0.1298E-03  0.8001E-01
      5.630  0.2213E-03  0.8003E-01
      5.749  0.3183E-03  0.8006E-01
      5.867  0.4226E-03  0.8011E-01
      5.985  0.5350E-03  0.8016E-01
      6.104  0.6556E-03  0.8024E-01
      6.222  0.7897E-03  0.8032E-01
      6.340  0.9417E-03  0.8042E-01
      6.459  0.1388E-02  0.8056E-01
      6.577  0.1782E-02  0.8075E-01
      6.695  0.2106E-02  0.8098E-01
      6.814  0.2404E-02  0.8124E-01
      6.932  0.4358E-02  0.8160E-01
      7.050  0.5342E-02  0.8234E-01
      7.169  0.5188E-02  0.8296E-01
      7.287  0.4231E-02  0.8349E-01
      7.405  0.4016E-02  0.8397E-01
      7.524  0.3858E-02  0.8444E-01
      7.642  0.3761E-02  0.8489E-01
      7.760  0.3756E-02  0.8533E-01
      7.879  0.3792E-02  0.8578E-01
      7.997  0.3585E-02  0.8622E-01
      8.115  0.3101E-02  0.8661E-01
      8.234  0.2954E-02  0.8697E-01
      8.352  0.2821E-02  0.8731E-01
      8.470  0.2700E-02  0.8763E-01
      8.589  0.2597E-02  0.8795E-01
      8.707  0.2531E-02  0.8825E-01
      8.826  0.2471E-02  0.8855E-01
      8.944  0.2415E-02  0.8884E-01
      9.062  0.2364E-02  0.8912E-01
      9.181  0.2314E-02  0.8940E-01
      9.299  0.2264E-02  0.8967E-01
      9.417  0.2194E-02  0.8993E-01
      9.536  0.2141E-02  0.9019E-01
      9.654  0.2093E-02  0.9044E-01
      9.772  0.2048E-02  0.9068E-01
      9.891  0.2005E-02  0.9092E-01
     10.009  0.1965E-02  0.9116E-01
     10.127  0.1927E-02  0.9139E-01
     10.246  0.1888E-02  0.9161E-01
     10.364  0.1867E-02  0.9183E-01
     10.482  0.1898E-02  0.9206E-01
     10.601  0.2061E-02  0.9229E-01
     10.719  0.2153E-02  0.9254E-01
     10.837  0.2178E-02  0.9280E-01
     10.956  0.2283E-02  0.9306E-01
     11.074  0.2392E-02  0.9334E-01
     11.192  0.2475E-02  0.9363E-01
     11.311  0.2556E-02  0.9392E-01
     11.429  0.2639E-02  0.9423E-01
     11.547  0.2703E-02  0.9455E-01
     11.666  0.2781E-02  0.9487E-01
     11.784  0.2796E-02  0.9520E-01
     11.902  0.2636E-02  0.9553E-01
     12.021  0.2448E-02  0.9583E-01
     12.139  0.2232E-02  0.9610E-01
     12.257  0.2126E-02  0.9636E-01
     12.376  0.1989E-02  0.9660E-01
     12.494  0.2066E-02  0.9684E-01
     12.612  0.2649E-02  0.9712E-01
     12.731  0.3284E-02  0.9747E-01
     12.849  0.4525E-02  0.9791E-01
     12.967  0.6279E-02  0.9855E-01
     13.086  0.7125E-02  0.9936E-01
     13.204  0.8296E-02  0.1003E+00
     13.323  0.9466E-02  0.1013E+00
     13.441  0.9755E-02  0.1025E+00
     13.559  0.1001E-01  0.1036E+00
     13.678  0.1225E-01  0.1049E+00
     13.796  0.1294E-01  0.1066E+00
     13.914  0.1114E-01  0.1081E+00
     14.033  0.7996E-02  0.1092E+00
     14.151  0.6414E-02  0.1100E+00
     14.269  0.6343E-02  0.1108E+00
     14.388  0.5958E-02  0.1115E+00
     14.506  0.6036E-02  0.1123E+00
     14.624  0.5422E-02  0.1129E+00
     14.743  0.4707E-02  0.1135E+00
     14.861  0.4039E-02  0.1141E+00
     14.979  0.3460E-02  0.1145E+00
     15.098  0.3228E-02  0.1149E+00
     15.216  0.3287E-02  0.1153E+00
     15.334  0.4406E-02  0.1158E+00
     15.453  0.3702E-02  0.1162E+00
     15.571  0.3593E-02  0.1167E+00
     15.689  0.3962E-02  0.1171E+00
     15.808  0.4483E-02  0.1176E+00
     15.926  0.3850E-02  0.1181E+00
     16.044  0.2891E-02  0.1185E+00
     16.163  0.2189E-02  0.1188E+00
     16.281  0.1856E-02  0.1191E+00
     16.399  0.1578E-02  0.1193E+00
     16.518  0.1387E-02  0.1194E+00
     16.636  0.1293E-02  0.1196E+00
     16.754  0.1157E-02  0.1197E+00
     16.873  0.9334E-03  0.1199E+00
     16.991  0.5513E-03  0.1200E+00
     17.109  0.2275E-03  0.1200E+00
     17.228  0.0000E+00  0.1200E+00
     17.346  0.0000E+00  0.1200E+00
     17.465  0.0000E+00  0.1200E+00
     17.583  0.0000E+00  0.1200E+00
     17.701  0.0000E+00  0.1200E+00
     17.820  0.0000E+00  0.1200E+00
     17.938  0.0000E+00  0.1200E+00
     18.056  0.0000E+00  0.1200E+00
     18.175  0.0000E+00  0.1200E+00
     18.293  0.0000E+00  0.1200E+00
     18.411  0.0000E+00  0.1200E+00
     18.530  0.0000E+00  0.1200E+00
     18.648  0.0000E+00  0.1200E+00
     18.766  0.0000E+00  0.1200E+00
     18.885  0.0000E+00  0.1200E+00
     19.003  0.0000E+00  0.1200E+00
     19.121  0.0000E+00  0.1200E+00
