    4    4  200    1
  0.8206758E+01  0.2466437E-09  0.2466437E-09  0.6233846E-09  0.5000000E-15
  1.000000000000000E-004
  CAR 
 graphite                                
     16    215     12
 
  0.0000000E+00  0.0000000E+00  0.0000000E+00  0.8680556E-03
    1      -14.381448
    2      -13.863435
    3       -3.501371
    4       -0.692194
    5        2.349792
    6        2.366298
    7        2.389087
    8        2.404363
    9       10.387404
   10       13.671371
   11       13.678505
   12       13.770689
 
  0.8333333E-01  0.1387779E-16  0.0000000E+00  0.3472222E-02
    1      -14.214773
    2      -13.701505
    3       -3.299141
    4       -0.507631
    5        1.695167
    6        1.762613
    7        2.005565
    8        2.063523
    9       10.578958
   10       13.714799
   11       13.860552
   12       14.367663
 
  0.1666667E+00  0.2775558E-16  0.0000000E+00  0.3472222E-02
    1      -13.716647
    2      -13.217668
    3       -2.696630
    4        0.025414
    5        0.039001
    6        0.149164
    7        1.199961
    8        1.281647
    9       11.155669
   10       13.578961
   11       13.885942
   12       14.399244
 
  0.2500000E+00  0.2775558E-16  0.0000000E+00  0.3472222E-02
    1      -12.893065
    2      -12.417306
    3       -2.108011
    4       -1.922407
    5       -1.708069
    6        0.312031
    7        0.408342
    8        0.920289
    9       12.101157
   10       12.130719
   11       13.101737
   12       13.217112
 
  0.3333333E+00  0.5551115E-16  0.0000000E+00  0.3472222E-02
    1      -11.756231
    2      -11.312744
    3       -4.344820
    4       -4.099291
    5       -0.425705
    6       -0.369837
    7       -0.321326
    8        2.058354
    9        9.668103
   10       10.991551
   11       12.772052
   12       13.217022
 
  0.4166667E+00  0.2775558E-16  0.0000000E+00  0.3472222E-02
    1      -10.336263
    2       -9.937983
    3       -6.472068
    4       -6.178228
    5       -0.900764
    6       -0.792057
    7        1.207782
    8        3.155564
    9        7.584149
   10        8.976778
   11       12.519219
   12       13.151566
 
  0.5000000E+00  0.5551115E-16  0.0000000E+00  0.1736111E-02
    1       -8.995024
    2       -8.796926
    3       -7.882062
    4       -7.736321
    5       -1.063656
    6       -0.953594
    7        2.356032
    8        3.344119
    9        6.942828
   10        7.780286
   11       12.423533
   12       13.085448
 
  0.8333333E-01  0.8333333E-01  0.0000000E+00  0.1736111E-02
    1      -13.882151
    2      -13.378385
    3       -2.896402
    4       -0.141553
    5        0.659697
    6        0.722602
    7        1.333409
    8        1.381431
    9       10.965850
   10       13.988605
   11       14.172269
   12       14.944056
 
  0.1666667E+00  0.8333333E-01  0.0000000E+00  0.3472222E-02
    1      -13.221033
    2      -12.736005
    3       -2.099798
    4       -1.087921
    5       -0.958126
    6        0.315359
    7        0.402362
    8        0.574728
    9       11.740129
   10       13.089070
   11       13.794619
   12       14.036551
 
  0.2500000E+00  0.8333333E-01  0.0000000E+00  0.3472222E-02
    1      -12.240377
    2      -11.783148
    3       -3.201830
    4       -2.997491
    5       -0.932212
    6       -0.586604
    7       -0.471020
    8        1.596916
    9       10.787336
   10       11.827448
   11       12.870212
   12       13.714858
 
  0.3333333E+00  0.8333333E-01  0.0000000E+00  0.3472222E-02
    1      -10.959131
    2      -10.539539
    3       -5.358384
    4       -5.092909
    5       -1.228944
    6       -1.100712
    7        0.547039
    8        2.785109
    9        8.487013
   10        9.804181
   11       13.338803
   12       13.912523
 
  0.4166667E+00  0.8333333E-01  0.0000000E+00  0.3472222E-02
    1       -9.445804
    2       -9.095457
    3       -7.310546
    4       -7.022739
    5       -1.560977
    6       -1.427553
    7        2.106058
    8        3.530117
    9        7.026967
   10        8.051990
   11       13.157531
   12       13.831333
 
  0.5000000E+00  0.8333333E-01  0.0000000E+00  0.3472222E-02
    1       -9.448220
    2       -9.097701
    3       -7.307877
    4       -7.019756
    5       -1.561851
    6       -1.428385
    7        2.104477
    8        3.530154
    9        7.025750
   10        8.054755
   11       13.158524
   12       13.832340
 
 -0.4166667E+00  0.8333333E-01  0.0000000E+00  0.3472222E-02
    1      -10.961306
    2      -10.541710
    3       -5.354900
    4       -5.089161
    5       -1.231367
    6       -1.103036
    7        0.545136
    8        2.783687
    9        8.486513
   10        9.807671
   11       13.341697
   12       13.914477
 
 -0.3333333E+00  0.8333333E-01  0.0000000E+00  0.3472222E-02
    1      -12.242082
    2      -11.784842
    3       -3.198497
    4       -2.994126
    5       -0.933849
    6       -0.589858
    7       -0.474164
    8        1.595388
    9       10.785456
   10       11.830876
   11       12.868025
   12       13.719267
 
 -0.2500000E+00  0.8333333E-01  0.0000000E+00  0.3472222E-02
    1      -13.222264
    2      -12.737217
    3       -2.101032
    4       -1.086940
    5       -0.957138
    6        0.314114
    7        0.400900
    8        0.573524
    9       11.738376
   10       13.084640
   11       13.797730
   12       14.042304
 
 -0.1666667E+00  0.8333333E-01  0.0000000E+00  0.3472222E-02
    1      -13.882877
    2      -13.379104
    3       -2.897158
    4       -0.142304
    5        0.651579
    6        0.715981
    7        1.340702
    8        1.388658
    9       10.964736
   10       13.995331
   11       14.181072
   12       14.938152
 
 -0.8333333E-01  0.8333333E-01  0.0000000E+00  0.1736111E-02
    1      -14.215014
    2      -13.701745
    3       -3.299396
    4       -0.507885
    5        1.682350
    6        1.750507
    7        2.018406
    8        2.075867
    9       10.578566
   10       13.718887
   11       13.865107
   12       14.382320
 
  0.1666667E+00  0.1666667E+00  0.0000000E+00  0.1736111E-02
    1      -12.402822
    2      -11.941007
    3       -2.411883
    4       -2.309879
    5       -1.121602
    6       -1.038477
    7       -0.963792
    8        1.439121
    9       11.341533
   10       12.084405
   11       12.713427
   12       15.212173
 
  0.2500000E+00  0.1666667E+00  0.0000000E+00  0.3472222E-02
    1      -11.276412
    2      -10.847133
    3       -4.185706
    4       -3.994308
    5       -2.128695
    6       -1.993137
    7        0.202911
    8        2.563989
    9        9.306982
   10       10.243784
   11       14.035332
   12       15.285457
 
  0.3333333E+00  0.1666667E+00  0.0000000E+00  0.3472222E-02
    1       -9.875909
    2       -9.492004
    3       -6.134658
    4       -5.868515
    5       -2.725575
    6       -2.555067
    7        1.773817
    8        3.696469
    9        7.406184
   10        8.466773
   11       14.993340
   12       15.595859
 
  0.4166667E+00  0.1666667E+00  0.0000000E+00  0.3472222E-02
    1       -8.568060
    2       -8.376762
    3       -7.476954
    4       -7.348669
    5       -2.916251
    6       -2.737668
    7        2.951143
    8        3.915887
    9        6.915274
   10        7.213911
   11       14.902249
   12       15.713958
 
  0.5000000E+00  0.1666667E+00  0.0000000E+00  0.3472222E-02
    1       -9.880671
    2       -9.496736
    3       -6.128349
    4       -5.861740
    5       -2.728152
    6       -2.557459
    7        1.770107
    8        3.694465
    9        7.402911
   10        8.474787
   11       14.996172
   12       15.590546
 
 -0.4166667E+00  0.1666667E+00  0.0000000E+00  0.3472222E-02
    1      -11.280300
    2      -10.851019
    3       -4.180002
    4       -3.987989
    5       -2.132141
    6       -1.996355
    7        0.199405
    8        2.560719
    9        9.302118
   10       10.252094
   11       14.029961
   12       15.291476
 
 -0.3333333E+00  0.1666667E+00  0.0000000E+00  0.3472222E-02
    1      -12.405708
    2      -11.943900
    3       -2.413681
    4       -2.309315
    5       -1.124434
    6       -1.036833
    7       -0.960786
    8        1.436271
    9       11.332767
   10       12.091517
   11       12.709408
   12       15.231808
 
 -0.2500000E+00  0.1666667E+00  0.0000000E+00  0.3472222E-02
    1      -13.222987
    2      -12.737935
    3       -2.101763
    4       -1.098167
    5       -0.967036
    6        0.325943
    7        0.413371
    8        0.572715
    9       11.737432
   10       13.079363
   11       13.797557
   12       14.062173
 
 -0.1666667E+00  0.1666667E+00  0.0000000E+00  0.1736111E-02
    1      -13.717611
    2      -13.218626
    3       -2.697633
    4        0.011954
    5        0.037970
    6        0.136323
    7        1.214499
    8        1.295897
    9       11.154281
   10       13.597610
   11       13.903358
   12       14.391975
 
  0.2500000E+00  0.2500000E+00  0.0000000E+00  0.1736111E-02
    1      -10.026679
    2       -9.635715
    3       -5.204311
    4       -5.065735
    5       -3.591296
    6       -3.489547
    7        1.644886
    8        3.729814
    9        7.698183
   10        8.608777
   11       15.483693
   12       17.097765
 
  0.3333333E+00  0.2500000E+00  0.0000000E+00  0.3472222E-02
    1       -8.570133
    2       -8.247924
    3       -6.661303
    4       -6.442960
    5       -4.340903
    6       -4.166577
    7        3.219626
    8        4.652003
    9        6.347276
   10        7.150059
   11       16.887332
   12       17.115816
 
  0.4166667E+00  0.2500000E+00  0.0000000E+00  0.3472222E-02
    1       -8.577465
    2       -8.254940
    3       -6.654188
    4       -6.433914
    5       -4.342012
    6       -4.167420
    7        3.215171
    8        4.652036
    9        6.337699
   10        7.162540
   11       16.885033
   12       17.105149
 
  0.5000000E+00  0.2500000E+00  0.0000000E+00  0.3472222E-02
    1      -10.033075
    2       -9.642338
    3       -5.200960
    4       -5.059112
    5       -3.590779
    6       -3.487033
    7        1.639723
    8        3.724465
    9        7.690514
   10        8.621483
   11       15.474346
   12       17.116432
 
 -0.4166667E+00  0.2500000E+00  0.0000000E+00  0.3472222E-02
    1      -11.281525
    2      -10.852264
    3       -4.190167
    4       -3.996888
    5       -2.120528
    6       -1.983897
    7        0.198345
    8        2.558848
    9        9.297633
   10       10.251773
   11       14.028678
   12       15.322644
 
 -0.3333333E+00  0.2500000E+00  0.0000000E+00  0.3472222E-02
    1      -12.244014
    2      -11.786779
    3       -3.211221
    4       -3.006254
    5       -0.935709
    6       -0.573288
    7       -0.457612
    8        1.593000
    9       10.777287
   10       11.829013
   11       12.866338
   12       13.747877
 
 -0.2500000E+00  0.2500000E+00  0.0000000E+00  0.1736111E-02
    1      -12.895239
    2      -12.419467
    3       -2.120743
    4       -1.934638
    5       -1.710246
    6        0.328267
    7        0.424366
    8        0.917880
    9       12.098714
   10       12.120936
   11       13.100357
   12       13.244643
 
  0.3333333E+00  0.3333333E+00  0.0000000E+00  0.1736111E-02
    1       -7.371911
    2       -7.200187
    3       -7.197276
    4       -7.025964
    5       -5.140115
    6       -5.138531
    7        4.399449
    8        5.284249
    9        5.297309
   10        6.441361
   11       16.846380
   12       16.877020
 
  0.4166667E+00  0.3333333E+00  0.0000000E+00  0.3472222E-02
    1       -8.579992
    2       -8.258587
    3       -6.659212
    4       -6.439225
    5       -4.333506
    6       -4.157923
    7        3.215563
    8        4.640018
    9        6.343278
   10        7.163241
   11       16.903791
   12       17.121311
 
  0.5000000E+00  0.3333333E+00  0.0000000E+00  0.3472222E-02
    1       -9.883832
    2       -9.500196
    3       -6.137945
    4       -5.871132
    5       -2.713266
    6       -2.542511
    7        1.768425
    8        3.686717
    9        7.401055
   10        8.473002
   11       15.029381
   12       15.600644
 
 -0.4166667E+00  0.3333333E+00  0.0000000E+00  0.3472222E-02
    1      -10.965006
    2      -10.545505
    3       -5.365817
    4       -5.099789
    5       -1.213464
    6       -1.085300
    7        0.542145
    8        2.777863
    9        8.480133
   10        9.803619
   11       13.372828
   12       13.942405
 
 -0.3333333E+00  0.3333333E+00  0.0000000E+00  0.1736111E-02
    1      -11.760108
    2      -11.316652
    3       -4.355685
    4       -4.109761
    5       -0.408112
    6       -0.373403
    7       -0.303935
    8        2.053571
    9        9.659330
   10       10.988021
   11       12.800510
   12       13.237005
 
  0.4166667E+00  0.4166667E+00  0.0000000E+00  0.1736111E-02
    1       -8.577196
    2       -8.390170
    3       -7.476532
    4       -7.351016
    5       -2.901829
    6       -2.723093
    7        2.952708
    8        3.894623
    9        6.924325
   10        7.209522
   11       14.939141
   12       15.751751
 
  0.5000000E+00  0.4166667E+00  0.0000000E+00  0.3472222E-02
    1       -9.454885
    2       -9.105642
    3       -7.314221
    4       -7.026852
    5       -1.543997
    6       -1.410690
    7        2.102862
    8        3.513916
    9        7.029502
   10        8.047355
   11       13.192957
   12       13.866878
 
 -0.4166667E+00  0.4166667E+00  0.0000000E+00  0.1736111E-02
    1      -10.342547
    2       -9.944566
    3       -6.480033
    4       -6.186081
    5       -0.882360
    6       -0.773888
    7        1.203605
    8        3.145078
    9        7.581251
   10        8.970976
   11       12.552538
   12       13.184700
 
  0.5000000E+00  0.5000000E+00  0.0000000E+00  0.8680556E-03
    1       -9.004898
    2       -8.811213
    3       -7.882714
    4       -7.740033
    5       -1.044980
    6       -0.935085
    7        2.357139
    8        3.321662
    9        6.951915
   10        7.768331
   11       12.457639
   12       13.119559
 
  0.0000000E+00  0.0000000E+00  0.1250000E+00  0.1736111E-02
    1      -14.363641
    2      -13.885384
    3       -3.412715
    4       -0.829811
    5        2.351279
    6        2.367739
    7        2.387583
    8        2.402906
    9       10.634843
   10       13.675756
   11       13.691804
   12       13.764011
 
  0.8333333E-01  0.1387779E-16  0.1250000E+00  0.6944444E-02
    1      -14.197104
    2      -13.723265
    3       -3.211086
    4       -0.644158
    5        1.697679
    6        1.759977
    7        2.007705
    8        2.061268
    9       10.823809
   10       13.718255
   11       13.855358
   12       14.374067
 
  0.1666667E+00  0.2775558E-16  0.1250000E+00  0.6944444E-02
    1      -13.699398
    2      -13.238640
    3       -2.610005
    4       -0.094755
    5        0.030790
    6        0.144443
    7        1.203095
    8        1.278425
    9       11.391594
   10       13.582216
   11       13.870973
   12       14.430736
 
  0.2500000E+00  0.2775558E-16  0.1250000E+00  0.6944444E-02
    1      -12.876467
    2      -12.437259
    3       -2.101306
    4       -1.929856
    5       -1.623906
    6        0.315674
    7        0.404646
    8        0.793956
    9       12.100428
   10       12.377362
   11       13.044605
   12       13.239701
 
  0.3333333E+00  0.5551115E-16  0.1250000E+00  0.6944444E-02
    1      -11.740733
    2      -11.331202
    3       -4.336005
    4       -4.109069
    5       -0.421783
    6       -0.325364
    7       -0.291027
    8        1.945241
    9        9.701626
   10       10.926987
   11       12.802614
   12       13.245122
 
  0.4166667E+00  0.2775558E-16  0.1250000E+00  0.6944444E-02
    1      -10.322199
    2       -9.954305
    3       -6.461675
    4       -6.190286
    5       -0.896682
    6       -0.796248
    7        1.277265
    8        3.078997
    9        7.604355
   10        8.898313
   11       12.542822
   12       13.127563
 
  0.5000000E+00  0.5551115E-16  0.1250000E+00  0.3472222E-02
    1       -8.985463
    2       -8.801393
    3       -7.881439
    4       -7.745688
    5       -1.059548
    6       -0.957849
    7        2.409601
    8        3.334825
    9        6.912680
   10        7.699972
   11       12.447192
   12       13.059414
 
  0.8333333E-01  0.8333333E-01  0.1250000E+00  0.3472222E-02
    1      -13.864755
    2      -13.399651
    3       -2.809350
    4       -0.275938
    5        0.662376
    6        0.720499
    7        1.334844
    8        1.379289
    9       11.205541
   10       13.987540
   11       14.164253
   12       14.974271
 
  0.1666667E+00  0.8333333E-01  0.1250000E+00  0.6944444E-02
    1      -13.204196
    2      -12.756412
    3       -2.015032
    4       -1.083071
    5       -0.963050
    6        0.318339
    7        0.398803
    8        0.445475
    9       11.965678
   10       13.109981
   11       13.749839
   12       14.057886
 
  0.2500000E+00  0.8333333E-01  0.1250000E+00  0.6944444E-02
    1      -12.224401
    2      -11.802208
    3       -3.194373
    4       -3.005631
    5       -0.850990
    6       -0.582312
    7       -0.475571
    8        1.476854
    9       10.815944
   10       11.779487
   11       13.078015
   12       13.737233
 
  0.3333333E+00  0.8333333E-01  0.1250000E+00  0.6944444E-02
    1      -10.944369
    2      -10.556901
    3       -5.348894
    4       -5.103576
    5       -1.224177
    6       -1.105668
    7        0.621662
    8        2.685432
    9        8.519593
   10        9.740513
   11       13.364313
   12       13.901966
 
  0.4166667E+00  0.8333333E-01  0.1250000E+00  0.6944444E-02
    1       -9.433135
    2       -9.109461
    3       -7.300795
    4       -7.034965
    5       -1.556030
    6       -1.432738
    7        2.166858
    8        3.493431
    9        7.017531
   10        7.979470
   11       13.181044
   12       13.804091
 
  0.5000000E+00  0.8333333E-01  0.1250000E+00  0.6944444E-02
    1       -9.435548
    2       -9.111652
    3       -7.298080
    4       -7.031981
    5       -1.556902
    6       -1.433571
    7        2.165298
    8        3.493349
    9        7.016536
   10        7.982103
   11       13.182029
   12       13.805072
 
 -0.4166667E+00  0.8333333E-01  0.1250000E+00  0.6944444E-02
    1      -10.946551
    2      -10.559081
    3       -5.345417
    4       -5.099944
    5       -1.226682
    6       -1.108049
    7        0.619765
    8        2.683977
    9        8.519284
   10        9.743832
   11       13.367184
   12       13.904164
 
 -0.3333333E+00  0.8333333E-01  0.1250000E+00  0.6944444E-02
    1      -12.226104
    2      -11.803902
    3       -3.191033
    4       -3.002123
    5       -0.852628
    6       -0.585554
    7       -0.478721
    8        1.475322
    9       10.814334
   10       11.782681
   11       13.075798
   12       13.741557
 
 -0.2500000E+00  0.8333333E-01  0.1250000E+00  0.6944444E-02
    1      -13.205418
    2      -12.757621
    3       -2.016257
    4       -1.082086
    5       -0.961959
    6        0.317159
    7        0.397318
    8        0.444268
    9       11.963986
   10       13.105862
   11       13.752799
   12       14.063593
 
 -0.1666667E+00  0.8333333E-01  0.1250000E+00  0.6944444E-02
    1      -13.865486
    2      -13.400385
    3       -2.810105
    4       -0.276688
    5        0.654235
    6        0.713783
    7        1.342137
    8        1.386523
    9       11.204420
   10       13.994281
   11       14.172996
   12       14.980818
 
 -0.8333333E-01  0.8333333E-01  0.1250000E+00  0.3472222E-02
    1      -14.197346
    2      -13.723504
    3       -3.211340
    4       -0.644413
    5        1.684889
    6        1.747840
    7        2.020530
    8        2.073629
    9       10.823412
   10       13.722357
   11       13.859911
   12       14.400725
 
  0.1666667E+00  0.1666667E+00  0.1250000E+00  0.3472222E-02
    1      -12.386733
    2      -11.960322
    3       -2.407730
    4       -2.313516
    5       -1.040656
    6       -1.035466
    7       -0.967341
    8        1.316926
    9       11.368628
   10       12.048810
   11       12.931666
   12       15.224748
 
  0.2500000E+00  0.1666667E+00  0.1250000E+00  0.6944444E-02
    1      -11.261318
    2      -10.864927
    3       -4.178520
    4       -4.001589
    5       -2.124112
    6       -1.998855
    7        0.279943
    8        2.454681
    9        9.340045
   10       10.205529
   11       14.215424
   12       15.303912
 
  0.3333333E+00  0.1666667E+00  0.1250000E+00  0.6944444E-02
    1       -9.862193
    2       -9.507787
    3       -6.125255
    4       -5.879251
    5       -2.719464
    6       -2.561927
    7        1.841941
    8        3.619816
    9        7.429517
   10        8.415797
   11       15.019575
   12       15.604469
 
  0.4166667E+00  0.1666667E+00  0.1250000E+00  0.6944444E-02
    1       -8.558893
    2       -8.381217
    3       -7.476580
    4       -7.357061
    5       -2.909787
    6       -2.744811
    7        3.004851
    8        3.909514
    9        6.874618
   10        7.170646
   11       14.923480
   12       15.670133
 
  0.5000000E+00  0.1666667E+00  0.1250000E+00  0.6944444E-02
    1       -9.866954
    2       -9.512522
    3       -6.118930
    4       -5.872494
    5       -2.722033
    6       -2.564326
    7        1.838247
    8        3.617638
    9        7.426789
   10        8.423339
   11       15.022330
   12       15.600951
 
 -0.4166667E+00  0.1666667E+00  0.1250000E+00  0.6944444E-02
    1      -11.265210
    2      -10.868821
    3       -4.172794
    4       -3.995296
    5       -2.127585
    6       -2.002082
    7        0.276440
    8        2.451387
    9        9.335658
   10       10.213231
   11       14.209803
   12       15.309848
 
 -0.3333333E+00  0.1666667E+00  0.1250000E+00  0.6944444E-02
    1      -12.389646
    2      -11.963225
    3       -2.409421
    4       -2.312974
    5       -1.043203
    6       -1.034118
    7       -0.964574
    8        1.314076
    9       11.360390
   10       12.055222
   11       12.927618
   12       15.244166
 
 -0.2500000E+00  0.1666667E+00  0.1250000E+00  0.6944444E-02
    1      -13.206140
    2      -12.758340
    3       -2.016996
    4       -1.093239
    5       -0.971882
    6        0.328947
    7        0.409768
    8        0.443470
    9       11.962911
   10       13.101198
   11       13.753019
   12       14.082788
 
 -0.1666667E+00  0.1666667E+00  0.1250000E+00  0.3472222E-02
    1      -13.700363
    2      -13.239598
    3       -2.611008
    4       -0.095812
    5        0.017369
    6        0.131587
    7        1.217623
    8        1.292686
    9       11.390192
   10       13.600687
   11       13.888341
   12       14.423859
 
  0.2500000E+00  0.2500000E+00  0.1250000E+00  0.3472222E-02
    1      -10.012785
    2       -9.651705
    3       -5.198385
    4       -5.070333
    5       -3.588804
    6       -3.494777
    7        1.715426
    8        3.638499
    9        7.733787
   10        8.572153
   11       15.567743
   12       16.988676
 
  0.3333333E+00  0.2500000E+00  0.1250000E+00  0.6944444E-02
    1       -8.558473
    2       -8.260738
    3       -6.653631
    4       -6.451770
    5       -4.335383
    6       -4.174318
    7        3.279446
    8        4.614824
    9        6.359602
   10        7.100468
   11       16.592263
   12       16.770168
 
  0.4166667E+00  0.2500000E+00  0.1250000E+00  0.6944444E-02
    1       -8.565800
    2       -8.267777
    3       -6.646433
    4       -6.442793
    5       -4.336479
    6       -4.175170
    7        3.274989
    8        4.614353
    9        6.350984
   10        7.112376
   11       16.578626
   12       16.775011
 
  0.5000000E+00  0.2500000E+00  0.1250000E+00  0.6944444E-02
    1      -10.019286
    2       -9.658327
    3       -5.195006
    4       -5.063887
    5       -3.588199
    6       -3.492351
    7        1.710251
    8        3.633101
    9        7.726723
   10        8.583949
   11       15.557751
   12       17.004695
 
 -0.4166667E+00  0.2500000E+00  0.1250000E+00  0.6944444E-02
    1      -11.266432
    2      -10.870057
    3       -4.182922
    4       -4.004254
    5       -2.115892
    6       -1.989646
    7        0.275368
    8        2.449587
    9        9.331129
   10       10.212640
   11       14.208940
   12       15.340823
 
 -0.3333333E+00  0.2500000E+00  0.1250000E+00  0.6944444E-02
    1      -12.228035
    2      -11.805835
    3       -3.203751
    4       -3.014281
    5       -0.854497
    6       -0.568917
    7       -0.462165
    8        1.472972
    9       10.806114
   10       11.780467
   11       13.075069
   12       13.769930
 
 -0.2500000E+00  0.2500000E+00  0.1250000E+00  0.3472222E-02
    1      -12.878639
    2      -12.439422
    3       -2.114026
    4       -1.942078
    5       -1.626109
    6        0.331902
    7        0.420678
    8        0.791564
    9       12.091233
   10       12.375251
   11       13.043584
   12       13.266737
 
  0.3333333E+00  0.3333333E+00  0.1250000E+00  0.3472222E-02
    1       -7.359714
    2       -7.199111
    3       -7.196356
    4       -7.040050
    5       -5.142385
    6       -5.140914
    7        4.466276
    8        5.295678
    9        5.307793
   10        6.347742
   11       16.481022
   12       16.505229
 
  0.4166667E+00  0.3333333E+00  0.1250000E+00  0.6944444E-02
    1       -8.568355
    2       -8.271364
    3       -6.651501
    4       -6.448119
    5       -4.327924
    6       -4.165697
    7        3.275229
    8        4.603340
    9        6.355715
   10        7.112819
   11       16.576334
   12       16.800014
 
  0.5000000E+00  0.3333333E+00  0.1250000E+00  0.6944444E-02
    1       -9.870124
    2       -9.515966
    3       -6.128523
    4       -5.881904
    5       -2.707144
    6       -2.549375
    7        1.836480
    8        3.610414
    9        7.424417
   10        8.421202
   11       15.056268
   12       15.619793
 
 -0.4166667E+00  0.3333333E+00  0.1250000E+00  0.6944444E-02
    1      -10.950251
    2      -10.562860
    3       -5.356328
    4       -5.110598
    5       -1.208730
    6       -1.090304
    7        0.616749
    8        2.678382
    9        8.512619
   10        9.739421
   11       13.398639
   12       13.933626
 
 -0.3333333E+00  0.3333333E+00  0.1250000E+00  0.3472222E-02
    1      -11.744619
    2      -11.335255
    3       -4.346891
    4       -4.119576
    5       -0.404218
    6       -0.307972
    7       -0.294616
    8        1.940551
    9        9.692759
   10       10.923086
   11       12.832136
   12       13.269776
 
  0.4166667E+00  0.4166667E+00  0.1250000E+00  0.3472222E-02
    1       -8.568172
    2       -8.394462
    3       -7.476273
    4       -7.359343
    5       -2.895362
    6       -2.730378
    7        3.005993
    8        3.889352
    9        6.882684
   10        7.166053
   11       14.960393
   12       15.707219
 
  0.5000000E+00  0.4166667E+00  0.1250000E+00  0.6944444E-02
    1       -9.442249
    2       -9.119588
    3       -7.304503
    4       -7.039076
    5       -1.539054
    6       -1.415869
    7        2.163446
    8        3.478069
    9        7.019231
   10        7.974569
   11       13.216476
   12       13.839533
 
 -0.4166667E+00  0.4166667E+00  0.1250000E+00  0.3472222E-02
    1      -10.328486
    2       -9.960874
    3       -6.469619
    4       -6.198137
    5       -0.878285
    6       -0.778010
    7        1.272995
    8        3.069032
    9        7.600850
   10        8.892273
   11       12.576163
   12       13.160678
 
  0.5000000E+00  0.5000000E+00  0.1250000E+00  0.1736111E-02
    1       -8.995469
    2       -8.815505
    3       -7.882181
    4       -7.749244
    5       -1.040821
    6       -0.939328
    7        2.410274
    8        3.313562
    9        6.920492
   10        7.688160
   11       12.481318
   12       13.093467
 
  0.0000000E+00  0.0000000E+00  0.2500000E+00  0.1736111E-02
    1      -14.312172
    2      -13.946830
    3       -3.155737
    4       -1.200379
    5        2.355452
    6        2.371781
    7        2.383309
    8        2.398765
    9       11.333024
   10       13.683667
   11       13.689563
   12       13.755644
 
  0.8333333E-01  0.1387779E-16  0.2500000E+00  0.6944444E-02
    1      -14.146070
    2      -13.784010
    3       -2.955318
    4       -1.012053
    5        1.704964
    6        1.752634
    7        2.013894
    8        2.054961
    9       11.513891
   10       13.727757
   11       13.841757
   12       14.385567
 
  0.1666667E+00  0.2775558E-16  0.2500000E+00  0.6944444E-02
    1      -13.649684
    2      -13.297526
    3       -2.358759
    4       -0.453935
    5        0.043810
    6        0.130888
    7        1.211814
    8        1.269486
    9       12.052386
   10       13.594042
   11       13.836342
   12       14.515853
 
  0.2500000E+00  0.2775558E-16  0.2500000E+00  0.6944444E-02
    1      -12.828809
    2      -12.493069
    3       -2.081902
    4       -1.950878
    5       -1.380578
    6        0.325982
    7        0.394155
    8        0.451818
    9       12.186581
   10       12.862909
   11       12.987284
   12       13.302343
 
  0.3333333E+00  0.5551115E-16  0.2500000E+00  0.6944444E-02
    1      -11.696048
    2      -11.383085
    3       -4.310621
    4       -4.136999
    5       -0.410526
    6       -0.336830
    7       -0.062418
    8        1.636351
    9        9.808409
   10       10.750198
   11       12.875060
   12       13.239950
 