       N       E                     dE             d eps       ncg     rms          rms(c)
DAV:   1     0.533115789035E+02    0.53312E+02   -0.91386E+03  5168   0.139E+03
DAV:   2    -0.351709941477E+02   -0.88483E+02   -0.81732E+02  7260   0.242E+02
DAV:   3    -0.389992366938E+02   -0.38282E+01   -0.37975E+01  6624   0.502E+01
DAV:   4    -0.390449616824E+02   -0.45725E-01   -0.45643E-01  6332   0.633E+00
DAV:   5    -0.390459070966E+02   -0.94541E-03   -0.94581E-03  6416   0.884E-01    0.780E+00
DAV:   6    -0.372858385823E+02    0.17601E+01   -0.17429E+00  5920   0.931E+00    0.409E+00
DAV:   7    -0.367363851002E+02    0.54945E+00   -0.17511E+00  6136   0.948E+00    0.668E-01
DAV:   8    -0.367428983615E+02   -0.65133E-02   -0.43130E-02  5956   0.143E+00    0.829E-02
DAV:   9    -0.367430808731E+02   -0.18251E-03   -0.92507E-04  6540   0.265E-01    0.364E-02
DAV:  10    -0.367431659462E+02   -0.85073E-04   -0.91512E-05  6376   0.869E-02    0.511E-03
DAV:  11    -0.367431666228E+02   -0.67664E-06   -0.28996E-06  6524   0.147E-02    0.153E-03
DAV:  12    -0.367431664502E+02    0.17260E-06   -0.56005E-07  6476   0.642E-03    0.255E-04
DAV:  13    -0.367431664968E+02   -0.46615E-07   -0.99902E-09  5140   0.887E-04    0.811E-05
DAV:  14    -0.367431665011E+02   -0.43052E-08   -0.13587E-09  4164   0.362E-04
   1 F= -.37424463E+02 E0= -.37424463E+02  d E =-.374245E+02
