   4   4   0   0
  0.4801826E+01  0.2466437E-09  0.2466437E-09  0.3647463E-09  0.5000000E-15
  1.000000000000000E-004
  CAR 
 graphite                                
     28.57722521    -13.48217276  301     14.04954872      1.00000000
    -13.482  0.0000E+00  0.0000E+00
    -13.342  0.0000E+00  0.0000E+00
    -13.202  0.0000E+00  0.0000E+00
    -13.062  0.0000E+00  0.0000E+00
    -12.921  0.0000E+00  0.0000E+00
    -12.781  0.0000E+00  0.0000E+00
    -12.641  0.0000E+00  0.0000E+00
    -12.501  0.0000E+00  0.0000E+00
    -12.361  0.0000E+00  0.0000E+00
    -12.220  0.0000E+00  0.0000E+00
    -12.080  0.0000E+00  0.0000E+00
    -11.940  0.0000E+00  0.0000E+00
    -11.800  0.0000E+00  0.0000E+00
    -11.660  0.0000E+00  0.0000E+00
    -11.519  0.0000E+00  0.0000E+00
    -11.379  0.2129E-03  0.8774E-05
    -11.239  0.4207E-03  0.5640E-04
    -11.099  0.5341E-03  0.1245E-03
    -10.959  0.6605E-03  0.2075E-03
    -10.818  0.7495E-03  0.3078E-03
    -10.678  0.8150E-03  0.4173E-03
    -10.538  0.8988E-03  0.5372E-03
    -10.398  0.9638E-03  0.6682E-03
    -10.258  0.1031E-02  0.8078E-03
    -10.117  0.1097E-02  0.9573E-03
     -9.977  0.1157E-02  0.1115E-02
     -9.837  0.1202E-02  0.1281E-02
     -9.697  0.1252E-02  0.1453E-02
     -9.557  0.1307E-02  0.1632E-02
     -9.416  0.1363E-02  0.1819E-02
     -9.276  0.1417E-02  0.2014E-02
     -9.136  0.1462E-02  0.2216E-02
     -8.996  0.1504E-02  0.2424E-02
     -8.856  0.1547E-02  0.2638E-02
     -8.715  0.1592E-02  0.2858E-02
     -8.575  0.1639E-02  0.3084E-02
     -8.435  0.1679E-02  0.3317E-02
     -8.295  0.1721E-02  0.3555E-02
     -8.155  0.1765E-02  0.3800E-02
     -8.014  0.1809E-02  0.4050E-02
     -7.874  0.1855E-02  0.4307E-02
     -7.734  0.1896E-02  0.4570E-02
     -7.594  0.1933E-02  0.4838E-02
     -7.454  0.1971E-02  0.5112E-02
     -7.313  0.2011E-02  0.5391E-02
     -7.173  0.2052E-02  0.5676E-02
     -7.033  0.2096E-02  0.5967E-02
     -6.893  0.2142E-02  0.6264E-02
     -6.753  0.2189E-02  0.6567E-02
     -6.612  0.2236E-02  0.6878E-02
     -6.472  0.2289E-02  0.7195E-02
     -6.332  0.2349E-02  0.7520E-02
     -6.192  0.2424E-02  0.7854E-02
     -6.052  0.2509E-02  0.8200E-02
     -5.911  0.2763E-02  0.8569E-02
     -5.771  0.2700E-02  0.8955E-02
     -5.631  0.2652E-02  0.9328E-02
     -5.491  0.2783E-02  0.9717E-02
     -5.351  0.2587E-02  0.1009E-01
     -5.210  0.2536E-02  0.1045E-01
     -5.070  0.2484E-02  0.1080E-01
     -4.930  0.2421E-02  0.1114E-01
     -4.790  0.2472E-02  0.1148E-01
     -4.650  0.2365E-02  0.1182E-01
     -4.510  0.2323E-02  0.1215E-01
     -4.369  0.2326E-02  0.1248E-01
     -4.229  0.2601E-02  0.1282E-01
     -4.089  0.2565E-02  0.1318E-01
     -3.949  0.2670E-02  0.1355E-01
     -3.809  0.2813E-02  0.1393E-01
     -3.668  0.3104E-02  0.1435E-01
     -3.528  0.3197E-02  0.1479E-01
     -3.388  0.3383E-02  0.1525E-01
     -3.248  0.3425E-02  0.1573E-01
     -3.108  0.3237E-02  0.1621E-01
     -2.967  0.3148E-02  0.1665E-01
     -2.827  0.3195E-02  0.1710E-01
     -2.687  0.2973E-02  0.1753E-01
     -2.547  0.2720E-02  0.1793E-01
     -2.407  0.2929E-02  0.1833E-01
     -2.266  0.2844E-02  0.1873E-01
     -2.126  0.2911E-02  0.1915E-01
     -1.986  0.2923E-02  0.1955E-01
     -1.846  0.2821E-02  0.1995E-01
     -1.706  0.2814E-02  0.2035E-01
     -1.565  0.3101E-02  0.2076E-01
     -1.425  0.3290E-02  0.2123E-01
     -1.285  0.3301E-02  0.2169E-01
     -1.145  0.3195E-02  0.2215E-01
     -1.005  0.3286E-02  0.2261E-01
     -0.864  0.3372E-02  0.2308E-01
     -0.724  0.3459E-02  0.2355E-01
     -0.584  0.3764E-02  0.2406E-01
     -0.444  0.3902E-02  0.2460E-01
     -0.304  0.3794E-02  0.2515E-01
     -0.163  0.3483E-02  0.2565E-01
     -0.023  0.3353E-02  0.2613E-01
      0.117  0.3243E-02  0.2660E-01
      0.257  0.3250E-02  0.2705E-01
      0.397  0.3346E-02  0.2751E-01
      0.538  0.3684E-02  0.2801E-01
      0.678  0.3818E-02  0.2853E-01
      0.818  0.3841E-02  0.2908E-01
      0.958  0.3853E-02  0.2962E-01
      1.098  0.3855E-02  0.3016E-01
      1.239  0.3847E-02  0.3070E-01
      1.379  0.3960E-02  0.3125E-01
      1.519  0.4066E-02  0.3181E-01
      1.659  0.4165E-02  0.3239E-01
      1.799  0.4170E-02  0.3297E-01
      1.940  0.4280E-02  0.3356E-01
      2.080  0.4220E-02  0.3416E-01
      2.220  0.4314E-02  0.3475E-01
      2.360  0.4473E-02  0.3537E-01
      2.500  0.4664E-02  0.3601E-01
      2.641  0.4900E-02  0.3668E-01
      2.781  0.4912E-02  0.3737E-01
      2.921  0.4923E-02  0.3805E-01
      3.061  0.4963E-02  0.3874E-01
      3.201  0.5115E-02  0.3945E-01
      3.342  0.5480E-02  0.4019E-01
      3.482  0.5882E-02  0.4099E-01
      3.622  0.5844E-02  0.4182E-01
      3.762  0.5556E-02  0.4261E-01
      3.902  0.5051E-02  0.4333E-01
      4.043  0.5164E-02  0.4405E-01
      4.183  0.5298E-02  0.4478E-01
      4.323  0.5510E-02  0.4554E-01
      4.463  0.5743E-02  0.4633E-01
      4.603  0.5855E-02  0.4714E-01
      4.744  0.5967E-02  0.4797E-01
      4.884  0.5593E-02  0.4878E-01
      5.024  0.5340E-02  0.4954E-01
      5.164  0.5298E-02  0.5029E-01
      5.304  0.5520E-02  0.5104E-01
      5.445  0.5754E-02  0.5183E-01
      5.585  0.5936E-02  0.5266E-01
      5.725  0.5505E-02  0.5346E-01
      5.865  0.5391E-02  0.5421E-01
      6.005  0.5231E-02  0.5496E-01
      6.146  0.5019E-02  0.5568E-01
      6.286  0.4820E-02  0.5637E-01
      6.426  0.4501E-02  0.5703E-01
      6.566  0.4441E-02  0.5765E-01
      6.706  0.4716E-02  0.5829E-01
      6.847  0.5138E-02  0.5898E-01
      6.987  0.4957E-02  0.5968E-01
      7.127  0.5594E-02  0.6042E-01
      7.267  0.5478E-02  0.6120E-01
      7.407  0.5034E-02  0.6194E-01
      7.548  0.4652E-02  0.6262E-01
      7.688  0.4089E-02  0.6323E-01
      7.828  0.3693E-02  0.6377E-01
      7.968  0.3472E-02  0.6427E-01
      8.108  0.3269E-02  0.6475E-01
      8.249  0.3111E-02  0.6519E-01
      8.389  0.3052E-02  0.6562E-01
      8.529  0.3600E-02  0.6606E-01
      8.669  0.3333E-02  0.6656E-01
      8.809  0.3000E-02  0.6700E-01
      8.950  0.2862E-02  0.6741E-01
      9.090  0.2854E-02  0.6781E-01
      9.230  0.2653E-02  0.6819E-01
      9.370  0.2588E-02  0.6856E-01
      9.510  0.1638E-02  0.6887E-01
      9.650  0.1649E-02  0.6910E-01
      9.791  0.1713E-02  0.6934E-01
      9.931  0.1796E-02  0.6958E-01
     10.071  0.1915E-02  0.6984E-01
     10.211  0.2000E-02  0.7012E-01
     10.351  0.2051E-02  0.7040E-01
     10.492  0.2076E-02  0.7069E-01
     10.632  0.2073E-02  0.7098E-01
     10.772  0.2091E-02  0.7127E-01
     10.912  0.2126E-02  0.7157E-01
     11.052  0.2171E-02  0.7187E-01
     11.193  0.2225E-02  0.7218E-01
     11.333  0.2288E-02  0.7249E-01
     11.473  0.2369E-02  0.7282E-01
     11.613  0.2471E-02  0.7316E-01
     11.753  0.2622E-02  0.7352E-01
     11.894  0.2918E-02  0.7390E-01
     12.034  0.3250E-02  0.7433E-01
     12.174  0.3357E-02  0.7481E-01
     12.314  0.3206E-02  0.7526E-01
     12.454  0.3236E-02  0.7571E-01
     12.595  0.3278E-02  0.7616E-01
     12.735  0.3325E-02  0.7663E-01
     12.875  0.3148E-02  0.7708E-01
     13.015  0.3093E-02  0.7752E-01
     13.155  0.2812E-02  0.7793E-01
     13.296  0.2384E-02  0.7830E-01
     13.436  0.2151E-02  0.7861E-01
     13.576  0.2014E-02  0.7890E-01
     13.716  0.2098E-02  0.7919E-01
     13.856  0.2315E-02  0.7950E-01
     13.997  0.2765E-02  0.7985E-01
     14.137  0.3211E-02  0.8027E-01
     14.277  0.3924E-02  0.8076E-01
     14.417  0.5308E-02  0.8138E-01
     14.557  0.4859E-02  0.8215E-01
     14.698  0.4460E-02  0.8279E-01
     14.838  0.4395E-02  0.8341E-01
     14.978  0.4462E-02  0.8403E-01
     15.118  0.4435E-02  0.8467E-01
     15.258  0.4804E-02  0.8531E-01
     15.399  0.5767E-02  0.8605E-01
     15.539  0.5484E-02  0.8684E-01
     15.679  0.4936E-02  0.8758E-01
     15.819  0.4329E-02  0.8822E-01
     15.959  0.4095E-02  0.8882E-01
     16.100  0.4188E-02  0.8938E-01
     16.240  0.4627E-02  0.9001E-01
     16.380  0.4392E-02  0.9065E-01
     16.520  0.3893E-02  0.9123E-01
     16.660  0.3703E-02  0.9176E-01
     16.801  0.3512E-02  0.9227E-01
     16.941  0.3360E-02  0.9275E-01
     17.081  0.3264E-02  0.9321E-01
     17.221  0.3202E-02  0.9366E-01
     17.361  0.3140E-02  0.9411E-01
     17.502  0.3056E-02  0.9454E-01
     17.642  0.3008E-02  0.9497E-01
     17.782  0.2946E-02  0.9539E-01
     17.922  0.2868E-02  0.9579E-01
     18.062  0.2803E-02  0.9619E-01
     18.203  0.2736E-02  0.9658E-01
     18.343  0.2676E-02  0.9696E-01
     18.483  0.2808E-02  0.9734E-01
     18.623  0.2597E-02  0.9772E-01
     18.763  0.2387E-02  0.9807E-01
     18.904  0.2196E-02  0.9840E-01
     19.044  0.1731E-02  0.9867E-01
     19.184  0.1555E-02  0.9889E-01
     19.324  0.1917E-02  0.9913E-01
     19.464  0.9454E-03  0.9935E-01
     19.605  0.1435E-02  0.9951E-01
     19.745  0.2037E-02  0.9975E-01
     19.885  0.2198E-02  0.1001E+00
     20.025  0.2537E-02  0.1004E+00
     20.165  0.3022E-02  0.1008E+00
     20.306  0.3647E-02  0.1012E+00
     20.446  0.3851E-02  0.1018E+00
     20.586  0.4350E-02  0.1023E+00
     20.726  0.4952E-02  0.1030E+00
     20.866  0.5230E-02  0.1037E+00
     21.007  0.5164E-02  0.1045E+00
     21.147  0.4689E-02  0.1052E+00
     21.287  0.4396E-02  0.1058E+00
     21.427  0.4285E-02  0.1064E+00
     21.567  0.4201E-02  0.1070E+00
     21.708  0.4141E-02  0.1076E+00
     21.848  0.4131E-02  0.1082E+00
     21.988  0.4428E-02  0.1088E+00
     22.128  0.4269E-02  0.1094E+00
     22.268  0.4199E-02  0.1100E+00
     22.409  0.4164E-02  0.1106E+00
     22.549  0.4158E-02  0.1111E+00
     22.689  0.4214E-02  0.1117E+00
     22.829  0.4083E-02  0.1123E+00
     22.969  0.4238E-02  0.1129E+00
     23.110  0.4355E-02  0.1135E+00
     23.250  0.4110E-02  0.1141E+00
     23.390  0.3702E-02  0.1147E+00
     23.530  0.3412E-02  0.1151E+00
     23.670  0.3406E-02  0.1156E+00
     23.810  0.3658E-02  0.1161E+00
     23.951  0.4801E-02  0.1167E+00
     24.091  0.3671E-02  0.1174E+00
     24.231  0.2525E-02  0.1178E+00
     24.371  0.2107E-02  0.1181E+00
     24.511  0.1853E-02  0.1184E+00
     24.652  0.1746E-02  0.1186E+00
     24.792  0.1666E-02  0.1189E+00
     24.932  0.1566E-02  0.1191E+00
     25.072  0.1518E-02  0.1193E+00
     25.212  0.1270E-02  0.1195E+00
     25.353  0.8621E-03  0.1196E+00
     25.493  0.6620E-03  0.1198E+00
     25.633  0.4791E-03  0.1198E+00
     25.773  0.3397E-03  0.1199E+00
     25.913  0.2562E-03  0.1199E+00
     26.054  0.1984E-03  0.1200E+00
     26.194  0.1203E-03  0.1200E+00
     26.334  0.5425E-04  0.1200E+00
     26.474  0.8881E-05  0.1200E+00
     26.614  0.0000E+00  0.1200E+00
     26.755  0.0000E+00  0.1200E+00
     26.895  0.0000E+00  0.1200E+00
     27.035  0.0000E+00  0.1200E+00
     27.175  0.0000E+00  0.1200E+00
     27.315  0.0000E+00  0.1200E+00
     27.456  0.0000E+00  0.1200E+00
     27.596  0.0000E+00  0.1200E+00
     27.736  0.0000E+00  0.1200E+00
     27.876  0.0000E+00  0.1200E+00
     28.016  0.0000E+00  0.1200E+00
     28.157  0.0000E+00  0.1200E+00
     28.297  0.0000E+00  0.1200E+00
     28.437  0.0000E+00  0.1200E+00
     28.577  0.0000E+00  0.1200E+00
