 running on    6 total cores
 distrk:  each k-point on    6 cores,    1 groups
 distr:  one band on    3 cores,    2 groups
 using from now: INCAR     
 vasp.5.3.5 31Mar14 (build Nov 02 2014 15:17:37) complex                        
  
 POSCAR found type information on POSCAR  C 
 POSCAR found :  1 types and       4 ions
 scaLAPACK will be used
 LDA part: xc-table for Pade appr. of Perdew
 POSCAR, INCAR and KPOINTS ok, starting setup
 WARNING: small aliasing (wrap around) errors must be expected
 FFT: planning ...
 WAVECAR not read
 WARNING: random wavefunctions but no delay for mixing, default for NELMDL
 entering main loop
       N       E                     dE             d eps       ncg     rms          rms(c)
DAV:   1     0.386488103469E+02    0.38649E+02   -0.97182E+03 10968   0.148E+03
DAV:   2    -0.284846108696E+02   -0.67133E+02   -0.60207E+02 14744   0.233E+02
DAV:   3    -0.308497442064E+02   -0.23651E+01   -0.23316E+01 14020   0.408E+01
DAV:   4    -0.308683546493E+02   -0.18610E-01   -0.18729E-01 12872   0.387E+00
DAV:   5    -0.308686145364E+02   -0.25989E-03   -0.26352E-03 14088   0.375E-01    0.771E+00
DAV:   6    -0.296470363398E+02    0.12216E+01   -0.83731E-01 11316   0.788E+00    0.410E+00
DAV:   7    -0.292317144957E+02    0.41532E+00   -0.85905E-01 11936   0.818E+00    0.469E-01
DAV:   8    -0.292331431382E+02   -0.14286E-02   -0.10350E-02 13796   0.986E-01    0.202E-01
DAV:   9    -0.292332742098E+02   -0.13107E-03   -0.59140E-04 12272   0.269E-01    0.187E-02
DAV:  10    -0.292332830603E+02   -0.88505E-05   -0.85023E-06 13964   0.309E-02    0.825E-03
DAV:  11    -0.292332813758E+02    0.16845E-05   -0.33303E-06 12060   0.213E-02    0.820E-04
DAV:  12    -0.292332810995E+02    0.27625E-06   -0.40372E-08  6948   0.195E-03
   1 F= -.30136813E+02 E0= -.30136813E+02  d E =-.301368E+02
 curvature:   0.00 expect dE= 0.000E+00 dE for cont linesearch  0.000E+00
 trial: gam= 0.00000 g(F)=  0.183E-03 g(S)=  0.000E+00 ort = 0.000E+00 (trialstep = 0.100E+01)
 search vector abs. value=  0.183E-03
 bond charge predicted
       N       E                     dE             d eps       ncg     rms          rms(c)
DAV:   1    -0.292330684849E+02    0.21289E-03   -0.23912E-02 12860   0.149E+00    0.353E-02
DAV:   2    -0.292330658597E+02    0.26252E-05   -0.31947E-04 13288   0.178E-01    0.232E-02
DAV:   3    -0.292330508340E+02    0.15026E-04   -0.45794E-05 13344   0.751E-02    0.418E-03
DAV:   4    -0.292330503212E+02    0.51284E-06   -0.56836E-06 12324   0.247E-02
   2 F= -.30136582E+02 E0= -.30136582E+02  d E =0.230920E-03
 trial-energy change:    0.000231  1 .order    0.000270   -0.000183    0.000723
 step:   0.2508(harm=  0.2022)  dis= 0.00034  next Energy=   -30.136836 (dE=-0.236E-04)
 bond charge predicted
       N       E                     dE             d eps       ncg     rms          rms(c)
DAV:   1    -0.292333132328E+02   -0.26240E-03   -0.13425E-02 12872   0.111E+00    0.264E-02
DAV:   2    -0.292333133364E+02   -0.10359E-06   -0.17822E-04 13264   0.133E-01    0.173E-02
DAV:   3    -0.292333047235E+02    0.86129E-05   -0.25477E-05 13364   0.560E-02    0.307E-03
DAV:   4    -0.292333047204E+02    0.31880E-08   -0.31448E-06 11504   0.184E-02
   3 F= -.30136836E+02 E0= -.30136836E+02  d E =-.235889E-04
 curvature:  -0.10 expect dE=-0.153E-05 dE for cont linesearch -0.111E-05
 trial: gam= 0.00000 g(F)=  0.152E-04 g(S)=  0.000E+00 ort =-0.450E-04 (trialstep = 0.850E+00)
 search vector abs. value=  0.152E-04
 reached required accuracy - stopping structural energy minimisation
