<?xml version="1.0" encoding="ISO-8859-1"?>
<modeling>
 <generator>
  <i name="program" type="string">vasp </i>
  <i name="version" type="string">5.3.5  </i>
  <i name="subversion" type="string">31Mar14 (build Nov 02 2014 15:17:37) complex                          parallel </i>
  <i name="platform" type="string">ion-Intel-MKL </i>
  <i name="date" type="string">2016 08 27 </i>
  <i name="time" type="string">00:08:23 </i>
 </generator>
 <incar>
  <i type="string" name="SYSTEM">graphite</i>
  <i type="string" name="PREC">accurate</i>
  <i type="int" name="NELM">   200</i>
  <i type="int" name="IBRION">     2</i>
  <i name="EDIFF">      0.00000100</i>
  <i name="EDIFFG">      0.00100000</i>
  <i type="int" name="NSW">   200</i>
  <i type="int" name="ISIF">     2</i>
  <i name="ENCUT">    600.00000000</i>
  <i type="int" name="ISMEAR">    -5</i>
  <i type="logical" name="LWAVE"> F  </i>
  <i type="logical" name="LCHARG"> F  </i>
  <i type="int" name="NELM">   200</i>
  <i type="string" name="GGA">PE</i>
 </incar>
 <kpoints>
  <generation param="Gamma">
   <v type="int" name="divisions">      18       18        8 </v>
   <v name="usershift">      0.00000000       0.00000000       0.00000000 </v>
   <v name="genvec1">      0.05555556       0.00000000       0.00000000 </v>
   <v name="genvec2">     -0.00000000       0.05555556       0.00000000 </v>
   <v name="genvec3">      0.00000000       0.00000000       0.12500000 </v>
   <v name="shift">      0.00000000       0.00000000       0.00000000 </v>
  </generation>
  <varray name="kpointlist" >
   <v>       0.00000000       0.00000000       0.00000000 </v>
   <v>       0.05555556      -0.00000000       0.00000000 </v>
   <v>       0.11111111      -0.00000000       0.00000000 </v>
   <v>       0.16666667      -0.00000000       0.00000000 </v>
   <v>       0.22222222      -0.00000000       0.00000000 </v>
   <v>       0.27777778      -0.00000000       0.00000000 </v>
   <v>       0.33333333      -0.00000000       0.00000000 </v>
   <v>       0.38888889      -0.00000000       0.00000000 </v>
   <v>       0.44444444      -0.00000000       0.00000000 </v>
   <v>       0.50000000      -0.00000000       0.00000000 </v>
   <v>       0.05555556       0.05555556       0.00000000 </v>
   <v>       0.11111111       0.05555556       0.00000000 </v>
   <v>       0.16666667       0.05555556       0.00000000 </v>
   <v>       0.22222222       0.05555556       0.00000000 </v>
   <v>       0.27777778       0.05555556       0.00000000 </v>
   <v>       0.33333333       0.05555556       0.00000000 </v>
   <v>       0.38888889       0.05555556       0.00000000 </v>
   <v>       0.44444444       0.05555556       0.00000000 </v>
   <v>       0.50000000       0.05555556       0.00000000 </v>
   <v>      -0.44444444       0.05555556       0.00000000 </v>
   <v>      -0.38888889       0.05555556       0.00000000 </v>
   <v>      -0.33333333       0.05555556       0.00000000 </v>
   <v>      -0.27777778       0.05555556       0.00000000 </v>
   <v>      -0.22222222       0.05555556       0.00000000 </v>
   <v>      -0.16666667       0.05555556       0.00000000 </v>
   <v>      -0.11111111       0.05555556       0.00000000 </v>
   <v>      -0.05555556       0.05555556       0.00000000 </v>
   <v>       0.11111111       0.11111111       0.00000000 </v>
   <v>       0.16666667       0.11111111       0.00000000 </v>
   <v>       0.22222222       0.11111111       0.00000000 </v>
   <v>       0.27777778       0.11111111       0.00000000 </v>
   <v>       0.33333333       0.11111111       0.00000000 </v>
   <v>       0.38888889       0.11111111       0.00000000 </v>
   <v>       0.44444444       0.11111111       0.00000000 </v>
   <v>       0.50000000       0.11111111       0.00000000 </v>
   <v>      -0.44444444       0.11111111       0.00000000 </v>
   <v>      -0.38888889       0.11111111       0.00000000 </v>
   <v>      -0.33333333       0.11111111       0.00000000 </v>
   <v>      -0.27777778       0.11111111       0.00000000 </v>
   <v>      -0.22222222       0.11111111       0.00000000 </v>
   <v>      -0.16666667       0.11111111       0.00000000 </v>
   <v>      -0.11111111       0.11111111       0.00000000 </v>
   <v>       0.16666667       0.16666667       0.00000000 </v>
   <v>       0.22222222       0.16666667       0.00000000 </v>
   <v>       0.27777778       0.16666667       0.00000000 </v>
   <v>       0.33333333       0.16666667       0.00000000 </v>
   <v>       0.38888889       0.16666667       0.00000000 </v>
   <v>       0.44444444       0.16666667       0.00000000 </v>
   <v>       0.50000000       0.16666667       0.00000000 </v>
   <v>      -0.44444444       0.16666667       0.00000000 </v>
   <v>      -0.38888889       0.16666667       0.00000000 </v>
   <v>      -0.33333333       0.16666667       0.00000000 </v>
   <v>      -0.27777778       0.16666667       0.00000000 </v>
   <v>      -0.22222222       0.16666667       0.00000000 </v>
   <v>      -0.16666667       0.16666667       0.00000000 </v>
   <v>       0.22222222       0.22222222       0.00000000 </v>
   <v>       0.27777778       0.22222222       0.00000000 </v>
   <v>       0.33333333       0.22222222       0.00000000 </v>
   <v>       0.38888889       0.22222222       0.00000000 </v>
   <v>       0.44444444       0.22222222       0.00000000 </v>
   <v>       0.50000000       0.22222222       0.00000000 </v>
   <v>      -0.44444444       0.22222222       0.00000000 </v>
   <v>      -0.38888889       0.22222222       0.00000000 </v>
   <v>      -0.33333333       0.22222222       0.00000000 </v>
   <v>      -0.27777778       0.22222222       0.00000000 </v>
   <v>      -0.22222222       0.22222222       0.00000000 </v>
   <v>       0.27777778       0.27777778       0.00000000 </v>
   <v>       0.33333333       0.27777778       0.00000000 </v>
   <v>       0.38888889       0.27777778       0.00000000 </v>
   <v>       0.44444444       0.27777778       0.00000000 </v>
   <v>       0.50000000       0.27777778       0.00000000 </v>
   <v>      -0.44444444       0.27777778       0.00000000 </v>
   <v>      -0.38888889       0.27777778       0.00000000 </v>
   <v>      -0.33333333       0.27777778       0.00000000 </v>
   <v>      -0.27777778       0.27777778       0.00000000 </v>
   <v>       0.33333333       0.33333333       0.00000000 </v>
   <v>       0.38888889       0.33333333       0.00000000 </v>
   <v>       0.44444444       0.33333333       0.00000000 </v>
   <v>       0.50000000       0.33333333       0.00000000 </v>
   <v>      -0.44444444       0.33333333       0.00000000 </v>
   <v>      -0.38888889       0.33333333       0.00000000 </v>
   <v>      -0.33333333       0.33333333       0.00000000 </v>
   <v>       0.38888889       0.38888889       0.00000000 </v>
   <v>       0.44444444       0.38888889       0.00000000 </v>
   <v>       0.50000000       0.38888889       0.00000000 </v>
   <v>      -0.44444444       0.38888889       0.00000000 </v>
   <v>      -0.38888889       0.38888889       0.00000000 </v>
   <v>       0.44444444       0.44444444       0.00000000 </v>
   <v>       0.50000000       0.44444444       0.00000000 </v>
   <v>      -0.44444444       0.44444444       0.00000000 </v>
   <v>       0.50000000       0.50000000       0.00000000 </v>
   <v>       0.00000000       0.00000000       0.12500000 </v>
   <v>       0.05555556      -0.00000000       0.12500000 </v>
   <v>       0.11111111      -0.00000000       0.12500000 </v>
   <v>       0.16666667      -0.00000000       0.12500000 </v>
   <v>       0.22222222      -0.00000000       0.12500000 </v>
   <v>       0.27777778      -0.00000000       0.12500000 </v>
   <v>       0.33333333      -0.00000000       0.12500000 </v>
   <v>       0.38888889      -0.00000000       0.12500000 </v>
   <v>       0.44444444      -0.00000000       0.12500000 </v>
   <v>       0.50000000      -0.00000000       0.12500000 </v>
   <v>       0.05555556       0.05555556       0.12500000 </v>
   <v>       0.11111111       0.05555556       0.12500000 </v>
   <v>       0.16666667       0.05555556       0.12500000 </v>
   <v>       0.22222222       0.05555556       0.12500000 </v>
   <v>       0.27777778       0.05555556       0.12500000 </v>
   <v>       0.33333333       0.05555556       0.12500000 </v>
   <v>       0.38888889       0.05555556       0.12500000 </v>
   <v>       0.44444444       0.05555556       0.12500000 </v>
   <v>       0.50000000       0.05555556       0.12500000 </v>
   <v>      -0.44444444       0.05555556       0.12500000 </v>
   <v>      -0.38888889       0.05555556       0.12500000 </v>
   <v>      -0.33333333       0.05555556       0.12500000 </v>
   <v>      -0.27777778       0.05555556       0.12500000 </v>
   <v>      -0.22222222       0.05555556       0.12500000 </v>
   <v>      -0.16666667       0.05555556       0.12500000 </v>
   <v>      -0.11111111       0.05555556       0.12500000 </v>
   <v>      -0.05555556       0.05555556       0.12500000 </v>
   <v>       0.11111111       0.11111111       0.12500000 </v>
   <v>       0.16666667       0.11111111       0.12500000 </v>
   <v>       0.22222222       0.11111111       0.12500000 </v>
   <v>       0.27777778       0.11111111       0.12500000 </v>
   <v>       0.33333333       0.11111111       0.12500000 </v>
   <v>       0.38888889       0.11111111       0.12500000 </v>
   <v>       0.44444444       0.11111111       0.12500000 </v>
   <v>       0.50000000       0.11111111       0.12500000 </v>
   <v>      -0.44444444       0.11111111       0.12500000 </v>
   <v>      -0.38888889       0.11111111       0.12500000 </v>
   <v>      -0.33333333       0.11111111       0.12500000 </v>
   <v>      -0.27777778       0.11111111       0.12500000 </v>
   <v>      -0.22222222       0.11111111       0.12500000 </v>
   <v>      -0.16666667       0.11111111       0.12500000 </v>
   <v>      -0.11111111       0.11111111       0.12500000 </v>
   <v>       0.16666667       0.16666667       0.12500000 </v>
   <v>       0.22222222       0.16666667       0.12500000 </v>
   <v>       0.27777778       0.16666667       0.12500000 </v>
   <v>       0.33333333       0.16666667       0.12500000 </v>
   <v>       0.38888889       0.16666667       0.12500000 </v>
   <v>       0.44444444       0.16666667       0.12500000 </v>
   <v>       0.50000000       0.16666667       0.12500000 </v>
   <v>      -0.44444444       0.16666667       0.12500000 </v>
   <v>      -0.38888889       0.16666667       0.12500000 </v>
   <v>      -0.33333333       0.16666667       0.12500000 </v>
   <v>      -0.27777778       0.16666667       0.12500000 </v>
   <v>      -0.22222222       0.16666667       0.12500000 </v>
   <v>      -0.16666667       0.16666667       0.12500000 </v>
   <v>       0.22222222       0.22222222       0.12500000 </v>
   <v>       0.27777778       0.22222222       0.12500000 </v>
   <v>       0.33333333       0.22222222       0.12500000 </v>
   <v>       0.38888889       0.22222222       0.12500000 </v>
   <v>       0.44444444       0.22222222       0.12500000 </v>
   <v>       0.50000000       0.22222222       0.12500000 </v>
   <v>      -0.44444444       0.22222222       0.12500000 </v>
   <v>      -0.38888889       0.22222222       0.12500000 </v>
   <v>      -0.33333333       0.22222222       0.12500000 </v>
   <v>      -0.27777778       0.22222222       0.12500000 </v>
   <v>      -0.22222222       0.22222222       0.12500000 </v>
   <v>       0.27777778       0.27777778       0.12500000 </v>
   <v>       0.33333333       0.27777778       0.12500000 </v>
   <v>       0.38888889       0.27777778       0.12500000 </v>
   <v>       0.44444444       0.27777778       0.12500000 </v>
   <v>       0.50000000       0.27777778       0.12500000 </v>
   <v>      -0.44444444       0.27777778       0.12500000 </v>
   <v>      -0.38888889       0.27777778       0.12500000 </v>
   <v>      -0.33333333       0.27777778       0.12500000 </v>
   <v>      -0.27777778       0.27777778       0.12500000 </v>
   <v>       0.33333333       0.33333333       0.12500000 </v>
   <v>       0.38888889       0.33333333       0.12500000 </v>
   <v>       0.44444444       0.33333333       0.12500000 </v>
   <v>       0.50000000       0.33333333       0.12500000 </v>
   <v>      -0.44444444       0.33333333       0.12500000 </v>
   <v>      -0.38888889       0.33333333       0.12500000 </v>
   <v>      -0.33333333       0.33333333       0.12500000 </v>
   <v>       0.38888889       0.38888889       0.12500000 </v>
   <v>       0.44444444       0.38888889       0.12500000 </v>
   <v>       0.50000000       0.38888889       0.12500000 </v>
   <v>      -0.44444444       0.38888889       0.12500000 </v>
   <v>      -0.38888889       0.38888889       0.12500000 </v>
   <v>       0.44444444       0.44444444       0.12500000 </v>
   <v>       0.50000000       0.44444444       0.12500000 </v>
   <v>      -0.44444444       0.44444444       0.12500000 </v>
   <v>       0.50000000       0.50000000       0.12500000 </v>
   <v>       0.00000000       0.00000000       0.25000000 </v>
   <v>       0.05555556      -0.00000000       0.25000000 </v>
   <v>       0.11111111      -0.00000000       0.25000000 </v>
   <v>       0.16666667      -0.00000000       0.25000000 </v>
   <v>       0.22222222      -0.00000000       0.25000000 </v>
   <v>       0.27777778      -0.00000000       0.25000000 </v>
   <v>       0.33333333      -0.00000000       0.25000000 </v>
   <v>       0.38888889      -0.00000000       0.25000000 </v>
   <v>       0.44444444      -0.00000000       0.25000000 </v>
   <v>       0.50000000      -0.00000000       0.25000000 </v>
   <v>       0.05555556       0.05555556       0.25000000 </v>
   <v>       0.11111111       0.05555556       0.25000000 </v>
   <v>       0.16666667       0.05555556       0.25000000 </v>
   <v>       0.22222222       0.05555556       0.25000000 </v>
   <v>       0.27777778       0.05555556       0.25000000 </v>
   <v>       0.33333333       0.05555556       0.25000000 </v>
   <v>       0.38888889       0.05555556       0.25000000 </v>
   <v>       0.44444444       0.05555556       0.25000000 </v>
   <v>       0.50000000       0.05555556       0.25000000 </v>
   <v>      -0.44444444       0.05555556       0.25000000 </v>
   <v>      -0.38888889       0.05555556       0.25000000 </v>
   <v>      -0.33333333       0.05555556       0.25000000 </v>
   <v>      -0.27777778       0.05555556       0.25000000 </v>
   <v>      -0.22222222       0.05555556       0.25000000 </v>
   <v>      -0.16666667       0.05555556       0.25000000 </v>
   <v>      -0.11111111       0.05555556       0.25000000 </v>
   <v>      -0.05555556       0.05555556       0.25000000 </v>
   <v>       0.11111111       0.11111111       0.25000000 </v>
   <v>       0.16666667       0.11111111       0.25000000 </v>
   <v>       0.22222222       0.11111111       0.25000000 </v>
   <v>       0.27777778       0.11111111       0.25000000 </v>
   <v>       0.33333333       0.11111111       0.25000000 </v>
   <v>       0.38888889       0.11111111       0.25000000 </v>
   <v>       0.44444444       0.11111111       0.25000000 </v>
   <v>       0.50000000       0.11111111       0.25000000 </v>
   <v>      -0.44444444       0.11111111       0.25000000 </v>
   <v>      -0.38888889       0.11111111       0.25000000 </v>
   <v>      -0.33333333       0.11111111       0.25000000 </v>
   <v>      -0.27777778       0.11111111       0.25000000 </v>
   <v>      -0.22222222       0.11111111       0.25000000 </v>
   <v>      -0.16666667       0.11111111       0.25000000 </v>
   <v>      -0.11111111       0.11111111       0.25000000 </v>
   <v>       0.16666667       0.16666667       0.25000000 </v>
   <v>       0.22222222       0.16666667       0.25000000 </v>
   <v>       0.27777778       0.16666667       0.25000000 </v>
   <v>       0.33333333       0.16666667       0.25000000 </v>
   <v>       0.38888889       0.16666667       0.25000000 </v>
   <v>       0.44444444       0.16666667       0.25000000 </v>
   <v>       0.50000000       0.16666667       0.25000000 </v>
   <v>      -0.44444444       0.16666667       0.25000000 </v>
   <v>      -0.38888889       0.16666667       0.25000000 </v>
   <v>      -0.33333333       0.16666667       0.25000000 </v>
   <v>      -0.27777778       0.16666667       0.25000000 </v>
   <v>      -0.22222222       0.16666667       0.25000000 </v>
   <v>      -0.16666667       0.16666667       0.25000000 </v>
   <v>       0.22222222       0.22222222       0.25000000 </v>
   <v>       0.27777778       0.22222222       0.25000000 </v>
   <v>       0.33333333       0.22222222       0.25000000 </v>
   <v>       0.38888889       0.22222222       0.25000000 </v>
   <v>       0.44444444       0.22222222       0.25000000 </v>
   <v>       0.50000000       0.22222222       0.25000000 </v>
   <v>      -0.44444444       0.22222222       0.25000000 </v>
   <v>      -0.38888889       0.22222222       0.25000000 </v>
   <v>      -0.33333333       0.22222222       0.25000000 </v>
   <v>      -0.27777778       0.22222222       0.25000000 </v>
   <v>      -0.22222222       0.22222222       0.25000000 </v>
   <v>       0.27777778       0.27777778       0.25000000 </v>
   <v>       0.33333333       0.27777778       0.25000000 </v>
   <v>       0.38888889       0.27777778       0.25000000 </v>
   <v>       0.44444444       0.27777778       0.25000000 </v>
   <v>       0.50000000       0.27777778       0.25000000 </v>
   <v>      -0.44444444       0.27777778       0.25000000 </v>
   <v>      -0.38888889       0.27777778       0.25000000 </v>
   <v>      -0.33333333       0.27777778       0.25000000 </v>
   <v>      -0.27777778       0.27777778       0.25000000 </v>
   <v>       0.33333333       0.33333333       0.25000000 </v>
   <v>       0.38888889       0.33333333       0.25000000 </v>
   <v>       0.44444444       0.33333333       0.25000000 </v>
   <v>       0.50000000       0.33333333       0.25000000 </v>
   <v>      -0.44444444       0.33333333       0.25000000 </v>
   <v>      -0.38888889       0.33333333       0.25000000 </v>
   <v>      -0.33333333       0.33333333       0.25000000 </v>
   <v>       0.38888889       0.38888889       0.25000000 </v>
   <v>       0.44444444       0.38888889       0.25000000 </v>
   <v>       0.50000000       0.38888889       0.25000000 </v>
   <v>      -0.44444444       0.38888889       0.25000000 </v>
   <v>      -0.38888889       0.38888889       0.25000000 </v>
   <v>       0.44444444       0.44444444       0.25000000 </v>
   <v>       0.50000000       0.44444444       0.25000000 </v>
   <v>      -0.44444444       0.44444444       0.25000000 </v>
   <v>       0.50000000       0.50000000       0.25000000 </v>
   <v>       0.00000000       0.00000000       0.37500000 </v>
   <v>       0.05555556      -0.00000000       0.37500000 </v>
   <v>       0.11111111      -0.00000000       0.37500000 </v>
   <v>       0.16666667      -0.00000000       0.37500000 </v>
   <v>       0.22222222      -0.00000000       0.37500000 </v>
   <v>       0.27777778      -0.00000000       0.37500000 </v>
   <v>       0.33333333      -0.00000000       0.37500000 </v>
   <v>       0.38888889      -0.00000000       0.37500000 </v>
   <v>       0.44444444      -0.00000000       0.37500000 </v>
   <v>       0.50000000      -0.00000000       0.37500000 </v>
   <v>       0.05555556       0.05555556       0.37500000 </v>
   <v>       0.11111111       0.05555556       0.37500000 </v>
   <v>       0.16666667       0.05555556       0.37500000 </v>
   <v>       0.22222222       0.05555556       0.37500000 </v>
   <v>       0.27777778       0.05555556       0.37500000 </v>
   <v>       0.33333333       0.05555556       0.37500000 </v>
   <v>       0.38888889       0.05555556       0.37500000 </v>
   <v>       0.44444444       0.05555556       0.37500000 </v>
   <v>       0.50000000       0.05555556       0.37500000 </v>
   <v>      -0.44444444       0.05555556       0.37500000 </v>
   <v>      -0.38888889       0.05555556       0.37500000 </v>
   <v>      -0.33333333       0.05555556       0.37500000 </v>
   <v>      -0.27777778       0.05555556       0.37500000 </v>
   <v>      -0.22222222       0.05555556       0.37500000 </v>
   <v>      -0.16666667       0.05555556       0.37500000 </v>
   <v>      -0.11111111       0.05555556       0.37500000 </v>
   <v>      -0.05555556       0.05555556       0.37500000 </v>
   <v>       0.11111111       0.11111111       0.37500000 </v>
   <v>       0.16666667       0.11111111       0.37500000 </v>
   <v>       0.22222222       0.11111111       0.37500000 </v>
   <v>       0.27777778       0.11111111       0.37500000 </v>
   <v>       0.33333333       0.11111111       0.37500000 </v>
   <v>       0.38888889       0.11111111       0.37500000 </v>
   <v>       0.44444444       0.11111111       0.37500000 </v>
   <v>       0.50000000       0.11111111       0.37500000 </v>
   <v>      -0.44444444       0.11111111       0.37500000 </v>
   <v>      -0.38888889       0.11111111       0.37500000 </v>
   <v>      -0.33333333       0.11111111       0.37500000 </v>
   <v>      -0.27777778       0.11111111       0.37500000 </v>
   <v>      -0.22222222       0.11111111       0.37500000 </v>
   <v>      -0.16666667       0.11111111       0.37500000 </v>
   <v>      -0.11111111       0.11111111       0.37500000 </v>
   <v>       0.16666667       0.16666667       0.37500000 </v>
   <v>       0.22222222       0.16666667       0.37500000 </v>
   <v>       0.27777778       0.16666667       0.37500000 </v>
   <v>       0.33333333       0.16666667       0.37500000 </v>
   <v>       0.38888889       0.16666667       0.37500000 </v>
   <v>       0.44444444       0.16666667       0.37500000 </v>
   <v>       0.50000000       0.16666667       0.37500000 </v>
   <v>      -0.44444444       0.16666667       0.37500000 </v>
   <v>      -0.38888889       0.16666667       0.37500000 </v>
   <v>      -0.33333333       0.16666667       0.37500000 </v>
   <v>      -0.27777778       0.16666667       0.37500000 </v>
   <v>      -0.22222222       0.16666667       0.37500000 </v>
   <v>      -0.16666667       0.16666667       0.37500000 </v>
   <v>       0.22222222       0.22222222       0.37500000 </v>
   <v>       0.27777778       0.22222222       0.37500000 </v>
   <v>       0.33333333       0.22222222       0.37500000 </v>
   <v>       0.38888889       0.22222222       0.37500000 </v>
   <v>       0.44444444       0.22222222       0.37500000 </v>
   <v>       0.50000000       0.22222222       0.37500000 </v>
   <v>      -0.44444444       0.22222222       0.37500000 </v>
   <v>      -0.38888889       0.22222222       0.37500000 </v>
   <v>      -0.33333333       0.22222222       0.37500000 </v>
   <v>      -0.27777778       0.22222222       0.37500000 </v>
   <v>      -0.22222222       0.22222222       0.37500000 </v>
   <v>       0.27777778       0.27777778       0.37500000 </v>
   <v>       0.33333333       0.27777778       0.37500000 </v>
   <v>       0.38888889       0.27777778       0.37500000 </v>
   <v>       0.44444444       0.27777778       0.37500000 </v>
   <v>       0.50000000       0.27777778       0.37500000 </v>
   <v>      -0.44444444       0.27777778       0.37500000 </v>
   <v>      -0.38888889       0.27777778       0.37500000 </v>
   <v>      -0.33333333       0.27777778       0.37500000 </v>
   <v>      -0.27777778       0.27777778       0.37500000 </v>
   <v>       0.33333333       0.33333333       0.37500000 </v>
   <v>       0.38888889       0.33333333       0.37500000 </v>
   <v>       0.44444444       0.33333333       0.37500000 </v>
   <v>       0.50000000       0.33333333       0.37500000 </v>
   <v>      -0.44444444       0.33333333       0.37500000 </v>
   <v>      -0.38888889       0.33333333       0.37500000 </v>
   <v>      -0.33333333       0.33333333       0.37500000 </v>
   <v>       0.38888889       0.38888889       0.37500000 </v>
   <v>       0.44444444       0.38888889       0.37500000 </v>
   <v>       0.50000000       0.38888889       0.37500000 </v>
   <v>      -0.44444444       0.38888889       0.37500000 </v>
   <v>      -0.38888889       0.38888889       0.37500000 </v>
   <v>       0.44444444       0.44444444       0.37500000 </v>
   <v>       0.50000000       0.44444444       0.37500000 </v>
   <v>      -0.44444444       0.44444444       0.37500000 </v>
   <v>       0.50000000       0.50000000       0.37500000 </v>
   <v>       0.00000000       0.00000000       0.50000000 </v>
   <v>       0.05555556      -0.00000000       0.50000000 </v>
   <v>       0.11111111      -0.00000000       0.50000000 </v>
   <v>       0.16666667      -0.00000000       0.50000000 </v>
   <v>       0.22222222      -0.00000000       0.50000000 </v>
   <v>       0.27777778      -0.00000000       0.50000000 </v>
   <v>       0.33333333      -0.00000000       0.50000000 </v>
   <v>       0.38888889      -0.00000000       0.50000000 </v>
   <v>       0.44444444      -0.00000000       0.50000000 </v>
   <v>       0.50000000      -0.00000000       0.50000000 </v>
   <v>       0.05555556       0.05555556       0.50000000 </v>
   <v>       0.11111111       0.05555556       0.50000000 </v>
   <v>       0.16666667       0.05555556       0.50000000 </v>
   <v>       0.22222222       0.05555556       0.50000000 </v>
   <v>       0.27777778       0.05555556       0.50000000 </v>
   <v>       0.33333333       0.05555556       0.50000000 </v>
   <v>       0.38888889       0.05555556       0.50000000 </v>
   <v>       0.44444444       0.05555556       0.50000000 </v>
   <v>       0.50000000       0.05555556       0.50000000 </v>
   <v>      -0.44444444       0.05555556       0.50000000 </v>
   <v>      -0.38888889       0.05555556       0.50000000 </v>
   <v>      -0.33333333       0.05555556       0.50000000 </v>
   <v>      -0.27777778       0.05555556       0.50000000 </v>
   <v>      -0.22222222       0.05555556       0.50000000 </v>
   <v>      -0.16666667       0.05555556       0.50000000 </v>
   <v>      -0.11111111       0.05555556       0.50000000 </v>
   <v>      -0.05555556       0.05555556       0.50000000 </v>
   <v>       0.11111111       0.11111111       0.50000000 </v>
   <v>       0.16666667       0.11111111       0.50000000 </v>
   <v>       0.22222222       0.11111111       0.50000000 </v>
   <v>       0.27777778       0.11111111       0.50000000 </v>
   <v>       0.33333333       0.11111111       0.50000000 </v>
   <v>       0.38888889       0.11111111       0.50000000 </v>
   <v>       0.44444444       0.11111111       0.50000000 </v>
   <v>       0.50000000       0.11111111       0.50000000 </v>
   <v>      -0.44444444       0.11111111       0.50000000 </v>
   <v>      -0.38888889       0.11111111       0.50000000 </v>
   <v>      -0.33333333       0.11111111       0.50000000 </v>
   <v>      -0.27777778       0.11111111       0.50000000 </v>
   <v>      -0.22222222       0.11111111       0.50000000 </v>
   <v>      -0.16666667       0.11111111       0.50000000 </v>
   <v>      -0.11111111       0.11111111       0.50000000 </v>
   <v>       0.16666667       0.16666667       0.50000000 </v>
   <v>       0.22222222       0.16666667       0.50000000 </v>
   <v>       0.27777778       0.16666667       0.50000000 </v>
   <v>       0.33333333       0.16666667       0.50000000 </v>
   <v>       0.38888889       0.16666667       0.50000000 </v>
   <v>       0.44444444       0.16666667       0.50000000 </v>
   <v>       0.50000000       0.16666667       0.50000000 </v>
   <v>      -0.44444444       0.16666667       0.50000000 </v>
   <v>      -0.38888889       0.16666667       0.50000000 </v>
   <v>      -0.33333333       0.16666667       0.50000000 </v>
   <v>      -0.27777778       0.16666667       0.50000000 </v>
   <v>      -0.22222222       0.16666667       0.50000000 </v>
   <v>      -0.16666667       0.16666667       0.50000000 </v>
   <v>       0.22222222       0.22222222       0.50000000 </v>
   <v>       0.27777778       0.22222222       0.50000000 </v>
   <v>       0.33333333       0.22222222       0.50000000 </v>
   <v>       0.38888889       0.22222222       0.50000000 </v>
   <v>       0.44444444       0.22222222       0.50000000 </v>
   <v>       0.50000000       0.22222222       0.50000000 </v>
   <v>      -0.44444444       0.22222222       0.50000000 </v>
   <v>      -0.38888889       0.22222222       0.50000000 </v>
   <v>      -0.33333333       0.22222222       0.50000000 </v>
   <v>      -0.27777778       0.22222222       0.50000000 </v>
   <v>      -0.22222222       0.22222222       0.50000000 </v>
   <v>       0.27777778       0.27777778       0.50000000 </v>
   <v>       0.33333333       0.27777778       0.50000000 </v>
   <v>       0.38888889       0.27777778       0.50000000 </v>
   <v>       0.44444444       0.27777778       0.50000000 </v>
   <v>       0.50000000       0.27777778       0.50000000 </v>
   <v>      -0.44444444       0.27777778       0.50000000 </v>
   <v>      -0.38888889       0.27777778       0.50000000 </v>
   <v>      -0.33333333       0.27777778       0.50000000 </v>
   <v>      -0.27777778       0.27777778       0.50000000 </v>
   <v>       0.33333333       0.33333333       0.50000000 </v>
   <v>       0.38888889       0.33333333       0.50000000 </v>
   <v>       0.44444444       0.33333333       0.50000000 </v>
   <v>       0.50000000       0.33333333       0.50000000 </v>
   <v>      -0.44444444       0.33333333       0.50000000 </v>
   <v>      -0.38888889       0.33333333       0.50000000 </v>
   <v>      -0.33333333       0.33333333       0.50000000 </v>
   <v>       0.38888889       0.38888889       0.50000000 </v>
   <v>       0.44444444       0.38888889       0.50000000 </v>
   <v>       0.50000000       0.38888889       0.50000000 </v>
   <v>      -0.44444444       0.38888889       0.50000000 </v>
   <v>      -0.38888889       0.38888889       0.50000000 </v>
   <v>       0.44444444       0.44444444       0.50000000 </v>
   <v>       0.50000000       0.44444444       0.50000000 </v>
   <v>      -0.44444444       0.44444444       0.50000000 </v>
   <v>       0.50000000       0.50000000       0.50000000 </v>
  </varray>
  <varray name="weights" >
   <v>       0.00038580 </v>
   <v>       0.00154321 </v>
   <v>       0.00154321 </v>
   <v>       0.00154321 </v>
   <v>       0.00154321 </v>
   <v>       0.00154321 </v>
   <v>       0.00154321 </v>
   <v>       0.00154321 </v>
   <v>       0.00154321 </v>
   <v>       0.00077160 </v>
   <v>       0.00077160 </v>
   <v>       0.00154321 </v>
   <v>       0.00154321 </v>
   <v>       0.00154321 </v>
   <v>       0.00154321 </v>
   <v>       0.00154321 </v>
   <v>       0.00154321 </v>
   <v>       0.00154321 </v>
   <v>       0.00154321 </v>
   <v>       0.00154321 </v>
   <v>       0.00154321 </v>
   <v>       0.00154321 </v>
   <v>       0.00154321 </v>
   <v>       0.00154321 </v>
   <v>       0.00154321 </v>
   <v>       0.00154321 </v>
   <v>       0.00077160 </v>
   <v>       0.00077160 </v>
   <v>       0.00154321 </v>
   <v>       0.00154321 </v>
   <v>       0.00154321 </v>
   <v>       0.00154321 </v>
   <v>       0.00154321 </v>
   <v>       0.00154321 </v>
   <v>       0.00154321 </v>
   <v>       0.00154321 </v>
   <v>       0.00154321 </v>
   <v>       0.00154321 </v>
   <v>       0.00154321 </v>
   <v>       0.00154321 </v>
   <v>       0.00154321 </v>
   <v>       0.00077160 </v>
   <v>       0.00077160 </v>
   <v>       0.00154321 </v>
   <v>       0.00154321 </v>
   <v>       0.00154321 </v>
   <v>       0.00154321 </v>
   <v>       0.00154321 </v>
   <v>       0.00154321 </v>
   <v>       0.00154321 </v>
   <v>       0.00154321 </v>
   <v>       0.00154321 </v>
   <v>       0.00154321 </v>
   <v>       0.00154321 </v>
   <v>       0.00077160 </v>
   <v>       0.00077160 </v>
   <v>       0.00154321 </v>
   <v>       0.00154321 </v>
   <v>       0.00154321 </v>
   <v>       0.00154321 </v>
   <v>       0.00154321 </v>
   <v>       0.00154321 </v>
   <v>       0.00154321 </v>
   <v>       0.00154321 </v>
   <v>       0.00154321 </v>
   <v>       0.00077160 </v>
   <v>       0.00077160 </v>
   <v>       0.00154321 </v>
   <v>       0.00154321 </v>
   <v>       0.00154321 </v>
   <v>       0.00154321 </v>
   <v>       0.00154321 </v>
   <v>       0.00154321 </v>
   <v>       0.00154321 </v>
   <v>       0.00077160 </v>
   <v>       0.00077160 </v>
   <v>       0.00154321 </v>
   <v>       0.00154321 </v>
   <v>       0.00154321 </v>
   <v>       0.00154321 </v>
   <v>       0.00154321 </v>
   <v>       0.00077160 </v>
   <v>       0.00077160 </v>
   <v>       0.00154321 </v>
   <v>       0.00154321 </v>
   <v>       0.00154321 </v>
   <v>       0.00077160 </v>
   <v>       0.00077160 </v>
   <v>       0.00154321 </v>
   <v>       0.00077160 </v>
   <v>       0.00038580 </v>
   <v>       0.00077160 </v>
   <v>       0.00308642 </v>
   <v>       0.00308642 </v>
   <v>       0.00308642 </v>
   <v>       0.00308642 </v>
   <v>       0.00308642 </v>
   <v>       0.00308642 </v>
   <v>       0.00308642 </v>
   <v>       0.00308642 </v>
   <v>       0.00154321 </v>
   <v>       0.00154321 </v>
   <v>       0.00308642 </v>
   <v>       0.00308642 </v>
   <v>       0.00308642 </v>
   <v>       0.00308642 </v>
   <v>       0.00308642 </v>
   <v>       0.00308642 </v>
   <v>       0.00308642 </v>
   <v>       0.00308642 </v>
   <v>       0.00308642 </v>
   <v>       0.00308642 </v>
   <v>       0.00308642 </v>
   <v>       0.00308642 </v>
   <v>       0.00308642 </v>
   <v>       0.00308642 </v>
   <v>       0.00308642 </v>
   <v>       0.00154321 </v>
   <v>       0.00154321 </v>
   <v>       0.00308642 </v>
   <v>       0.00308642 </v>
   <v>       0.00308642 </v>
   <v>       0.00308642 </v>
   <v>       0.00308642 </v>
   <v>       0.00308642 </v>
   <v>       0.00308642 </v>
   <v>       0.00308642 </v>
   <v>       0.00308642 </v>
   <v>       0.00308642 </v>
   <v>       0.00308642 </v>
   <v>       0.00308642 </v>
   <v>       0.00308642 </v>
   <v>       0.00154321 </v>
   <v>       0.00154321 </v>
   <v>       0.00308642 </v>
   <v>       0.00308642 </v>
   <v>       0.00308642 </v>
   <v>       0.00308642 </v>
   <v>       0.00308642 </v>
   <v>       0.00308642 </v>
   <v>       0.00308642 </v>
   <v>       0.00308642 </v>
   <v>       0.00308642 </v>
   <v>       0.00308642 </v>
   <v>       0.00308642 </v>
   <v>       0.00154321 </v>
   <v>       0.00154321 </v>
   <v>       0.00308642 </v>
   <v>       0.00308642 </v>
   <v>       0.00308642 </v>
   <v>       0.00308642 </v>
   <v>       0.00308642 </v>
   <v>       0.00308642 </v>
   <v>       0.00308642 </v>
   <v>       0.00308642 </v>
   <v>       0.00308642 </v>
   <v>       0.00154321 </v>
   <v>       0.00154321 </v>
   <v>       0.00308642 </v>
   <v>       0.00308642 </v>
   <v>       0.00308642 </v>
   <v>       0.00308642 </v>
   <v>       0.00308642 </v>
   <v>       0.00308642 </v>
   <v>       0.00308642 </v>
   <v>       0.00154321 </v>
   <v>       0.00154321 </v>
   <v>       0.00308642 </v>
   <v>       0.00308642 </v>
   <v>       0.00308642 </v>
   <v>       0.00308642 </v>
   <v>       0.00308642 </v>
   <v>       0.00154321 </v>
   <v>       0.00154321 </v>
   <v>       0.00308642 </v>
   <v>       0.00308642 </v>
   <v>       0.00308642 </v>
   <v>       0.00154321 </v>
   <v>       0.00154321 </v>
   <v>       0.00308642 </v>
   <v>       0.00154321 </v>
   <v>       0.00077160 </v>
   <v>       0.00077160 </v>
   <v>       0.00308642 </v>
   <v>       0.00308642 </v>
   <v>       0.00308642 </v>
   <v>       0.00308642 </v>
   <v>       0.00308642 </v>
   <v>       0.00308642 </v>
   <v>       0.00308642 </v>
   <v>       0.00308642 </v>
   <v>       0.00154321 </v>
   <v>       0.00154321 </v>
   <v>       0.00308642 </v>
   <v>       0.00308642 </v>
   <v>       0.00308642 </v>
   <v>       0.00308642 </v>
   <v>       0.00308642 </v>
   <v>       0.00308642 </v>
   <v>       0.00308642 </v>
   <v>       0.00308642 </v>
   <v>       0.00308642 </v>
   <v>       0.00308642 </v>
   <v>       0.00308642 </v>
   <v>       0.00308642 </v>
   <v>       0.00308642 </v>
   <v>       0.00308642 </v>
   <v>       0.00308642 </v>
   <v>       0.00154321 </v>
   <v>       0.00154321 </v>
   <v>       0.00308642 </v>
   <v>       0.00308642 </v>
   <v>       0.00308642 </v>
   <v>       0.00308642 </v>
   <v>       0.00308642 </v>
   <v>       0.00308642 </v>
   <v>       0.00308642 </v>
   <v>       0.00308642 </v>
   <v>       0.00308642 </v>
   <v>       0.00308642 </v>
   <v>       0.00308642 </v>
   <v>       0.00308642 </v>
   <v>       0.00308642 </v>
   <v>       0.00154321 </v>
   <v>       0.00154321 </v>
   <v>       0.00308642 </v>
   <v>       0.00308642 </v>
   <v>       0.00308642 </v>
   <v>       0.00308642 </v>
   <v>       0.00308642 </v>
   <v>       0.00308642 </v>
   <v>       0.00308642 </v>
   <v>       0.00308642 </v>
   <v>       0.00308642 </v>
   <v>       0.00308642 </v>
   <v>       0.00308642 </v>
   <v>       0.00154321 </v>
   <v>       0.00154321 </v>
   <v>       0.00308642 </v>
   <v>       0.00308642 </v>
   <v>       0.00308642 </v>
   <v>       0.00308642 </v>
   <v>       0.00308642 </v>
   <v>       0.00308642 </v>
   <v>       0.00308642 </v>
   <v>       0.00308642 </v>
   <v>       0.00308642 </v>
   <v>       0.00154321 </v>
   <v>       0.00154321 </v>
   <v>       0.00308642 </v>
   <v>       0.00308642 </v>
   <v>       0.00308642 </v>
   <v>       0.00308642 </v>
   <v>       0.00308642 </v>
   <v>       0.00308642 </v>
   <v>       0.00308642 </v>
   <v>       0.00154321 </v>
   <v>       0.00154321 </v>
   <v>       0.00308642 </v>
   <v>       0.00308642 </v>
   <v>       0.00308642 </v>
   <v>       0.00308642 </v>
   <v>       0.00308642 </v>
   <v>       0.00154321 </v>
   <v>       0.00154321 </v>
   <v>       0.00308642 </v>
   <v>       0.00308642 </v>
   <v>       0.00308642 </v>
   <v>       0.00154321 </v>
   <v>       0.00154321 </v>
   <v>       0.00308642 </v>
   <v>       0.00154321 </v>
   <v>       0.00077160 </v>
   <v>       0.00077160 </v>
   <v>       0.00308642 </v>
   <v>       0.00308642 </v>
   <v>       0.00308642 </v>
   <v>       0.00308642 </v>
   <v>       0.00308642 </v>
   <v>       0.00308642 </v>
   <v>       0.00308642 </v>
   <v>       0.00308642 </v>
   <v>       0.00154321 </v>
   <v>       0.00154321 </v>
   <v>       0.00308642 </v>
   <v>       0.00308642 </v>
   <v>       0.00308642 </v>
   <v>       0.00308642 </v>
   <v>       0.00308642 </v>
   <v>       0.00308642 </v>
   <v>       0.00308642 </v>
   <v>       0.00308642 </v>
   <v>       0.00308642 </v>
   <v>       0.00308642 </v>
   <v>       0.00308642 </v>
   <v>       0.00308642 </v>
   <v>       0.00308642 </v>
   <v>       0.00308642 </v>
   <v>       0.00308642 </v>
   <v>       0.00154321 </v>
   <v>       0.00154321 </v>
   <v>       0.00308642 </v>
   <v>       0.00308642 </v>
   <v>       0.00308642 </v>
   <v>       0.00308642 </v>
   <v>       0.00308642 </v>
   <v>       0.00308642 </v>
   <v>       0.00308642 </v>
   <v>       0.00308642 </v>
   <v>       0.00308642 </v>
   <v>       0.00308642 </v>
   <v>       0.00308642 </v>
   <v>       0.00308642 </v>
   <v>       0.00308642 </v>
   <v>       0.00154321 </v>
   <v>       0.00154321 </v>
   <v>       0.00308642 </v>
   <v>       0.00308642 </v>
   <v>       0.00308642 </v>
   <v>       0.00308642 </v>
   <v>       0.00308642 </v>
   <v>       0.00308642 </v>
   <v>       0.00308642 </v>
   <v>       0.00308642 </v>
   <v>       0.00308642 </v>
   <v>       0.00308642 </v>
   <v>       0.00308642 </v>
   <v>       0.00154321 </v>
   <v>       0.00154321 </v>
   <v>       0.00308642 </v>
   <v>       0.00308642 </v>
   <v>       0.00308642 </v>
   <v>       0.00308642 </v>
   <v>       0.00308642 </v>
   <v>       0.00308642 </v>
   <v>       0.00308642 </v>
   <v>       0.00308642 </v>
   <v>       0.00308642 </v>
   <v>       0.00154321 </v>
   <v>       0.00154321 </v>
   <v>       0.00308642 </v>
   <v>       0.00308642 </v>
   <v>       0.00308642 </v>
   <v>       0.00308642 </v>
   <v>       0.00308642 </v>
   <v>       0.00308642 </v>
   <v>       0.00308642 </v>
   <v>       0.00154321 </v>
   <v>       0.00154321 </v>
   <v>       0.00308642 </v>
   <v>       0.00308642 </v>
   <v>       0.00308642 </v>
   <v>       0.00308642 </v>
   <v>       0.00308642 </v>
   <v>       0.00154321 </v>
   <v>       0.00154321 </v>
   <v>       0.00308642 </v>
   <v>       0.00308642 </v>
   <v>       0.00308642 </v>
   <v>       0.00154321 </v>
   <v>       0.00154321 </v>
   <v>       0.00308642 </v>
   <v>       0.00154321 </v>
   <v>       0.00077160 </v>
   <v>       0.00038580 </v>
   <v>       0.00154321 </v>
   <v>       0.00154321 </v>
   <v>       0.00154321 </v>
   <v>       0.00154321 </v>
   <v>       0.00154321 </v>
   <v>       0.00154321 </v>
   <v>       0.00154321 </v>
   <v>       0.00154321 </v>
   <v>       0.00077160 </v>
   <v>       0.00077160 </v>
   <v>       0.00154321 </v>
   <v>       0.00154321 </v>
   <v>       0.00154321 </v>
   <v>       0.00154321 </v>
   <v>       0.00154321 </v>
   <v>       0.00154321 </v>
   <v>       0.00154321 </v>
   <v>       0.00154321 </v>
   <v>       0.00154321 </v>
   <v>       0.00154321 </v>
   <v>       0.00154321 </v>
   <v>       0.00154321 </v>
   <v>       0.00154321 </v>
   <v>       0.00154321 </v>
   <v>       0.00154321 </v>
   <v>       0.00077160 </v>
   <v>       0.00077160 </v>
   <v>       0.00154321 </v>
   <v>       0.00154321 </v>
   <v>       0.00154321 </v>
   <v>       0.00154321 </v>
   <v>       0.00154321 </v>
   <v>       0.00154321 </v>
   <v>       0.00154321 </v>
   <v>       0.00154321 </v>
   <v>       0.00154321 </v>
   <v>       0.00154321 </v>
   <v>       0.00154321 </v>
   <v>       0.00154321 </v>
   <v>       0.00154321 </v>
   <v>       0.00077160 </v>
   <v>       0.00077160 </v>
   <v>       0.00154321 </v>
   <v>       0.00154321 </v>
   <v>       0.00154321 </v>
   <v>       0.00154321 </v>
   <v>       0.00154321 </v>
   <v>       0.00154321 </v>
   <v>       0.00154321 </v>
   <v>       0.00154321 </v>
   <v>       0.00154321 </v>
   <v>       0.00154321 </v>
   <v>       0.00154321 </v>
   <v>       0.00077160 </v>
   <v>       0.00077160 </v>
   <v>       0.00154321 </v>
   <v>       0.00154321 </v>
   <v>       0.00154321 </v>
   <v>       0.00154321 </v>
   <v>       0.00154321 </v>
   <v>       0.00154321 </v>
   <v>       0.00154321 </v>
   <v>       0.00154321 </v>
   <v>       0.00154321 </v>
   <v>       0.00077160 </v>
   <v>       0.00077160 </v>
   <v>       0.00154321 </v>
   <v>       0.00154321 </v>
   <v>       0.00154321 </v>
   <v>       0.00154321 </v>
   <v>       0.00154321 </v>
   <v>       0.00154321 </v>
   <v>       0.00154321 </v>
   <v>       0.00077160 </v>
   <v>       0.00077160 </v>
   <v>       0.00154321 </v>
   <v>       0.00154321 </v>
   <v>       0.00154321 </v>
   <v>       0.00154321 </v>
   <v>       0.00154321 </v>
   <v>       0.00077160 </v>
   <v>       0.00077160 </v>
   <v>       0.00154321 </v>
   <v>       0.00154321 </v>
   <v>       0.00154321 </v>
   <v>       0.00077160 </v>
   <v>       0.00077160 </v>
   <v>       0.00154321 </v>
   <v>       0.00077160 </v>
   <v>       0.00038580 </v>
  </varray>
  <varray name="tetrahedronlist"  type="int" >
   <v type="int" >        4        2        2       11       93 </v>
   <v type="int" >        4        1        2        2       93 </v>
   <v type="int" >        4        1        2       92       93 </v>
   <v type="int" >        4        2       11       93      102 </v>
   <v type="int" >        4        2       93       93      102 </v>
   <v type="int" >        4        2       92       93       93 </v>
   <v type="int" >        4        3       11       12      102 </v>
   <v type="int" >        4        2        3       11      102 </v>
   <v type="int" >        4        2        3       93      102 </v>
   <v type="int" >        4        3       12      102      103 </v>
   <v type="int" >        4        3       94      102      103 </v>
   <v type="int" >        4        3       93       94      102 </v>
   <v type="int" >        4        4       12       13      103 </v>
   <v type="int" >        4        3        4       12      103 </v>
   <v type="int" >        4        3        4       94      103 </v>
   <v type="int" >        4        4       13      103      104 </v>
   <v type="int" >        4        4       95      103      104 </v>
   <v type="int" >        4        4       94       95      103 </v>
   <v type="int" >        4        5       13       14      104 </v>
   <v type="int" >        4        4        5       13      104 </v>
   <v type="int" >        4        4        5       95      104 </v>
   <v type="int" >        4        5       14      104      105 </v>
   <v type="int" >        4        5       96      104      105 </v>
   <v type="int" >        4        5       95       96      104 </v>
   <v type="int" >        4        6       14       15      105 </v>
   <v type="int" >        4        5        6       14      105 </v>
   <v type="int" >        4        5        6       96      105 </v>
   <v type="int" >        4        6       15      105      106 </v>
   <v type="int" >        4        6       97      105      106 </v>
   <v type="int" >        4        6       96       97      105 </v>
   <v type="int" >        4        7       15       16      106 </v>
   <v type="int" >        4        6        7       15      106 </v>
   <v type="int" >        4        6        7       97      106 </v>
   <v type="int" >        4        7       16      106      107 </v>
   <v type="int" >        4        7       98      106      107 </v>
   <v type="int" >        4        7       97       98      106 </v>
   <v type="int" >        4        8       16       17      107 </v>
   <v type="int" >        4        7        8       16      107 </v>
   <v type="int" >        4        7        8       98      107 </v>
   <v type="int" >        4        8       17      107      108 </v>
   <v type="int" >        4        8       99      107      108 </v>
   <v type="int" >        4        8       98       99      107 </v>
   <v type="int" >        4        9       17       18      108 </v>
   <v type="int" >        4        8        9       17      108 </v>
   <v type="int" >        4        8        9       99      108 </v>
   <v type="int" >        4        9       18      108      109 </v>
   <v type="int" >        4        9      100      108      109 </v>
   <v type="int" >        4        9       99      100      108 </v>
   <v type="int" >        4       10       18       19      109 </v>
   <v type="int" >        4        9       10       18      109 </v>
   <v type="int" >        4        9       10      100      109 </v>
   <v type="int" >        4       10       19      109      110 </v>
   <v type="int" >        4       10      101      109      110 </v>
   <v type="int" >        4       10      100      101      109 </v>
   <v type="int" >        4        9       19       20      110 </v>
   <v type="int" >        4        9       10       19      110 </v>
   <v type="int" >        4        9       10      101      110 </v>
   <v type="int" >        4        9       20      110      111 </v>
   <v type="int" >        4        9      100      110      111 </v>
   <v type="int" >        4        9      100      101      110 </v>
   <v type="int" >        4        8       20       21      111 </v>
   <v type="int" >        4        8        9       20      111 </v>
   <v type="int" >        4        8        9      100      111 </v>
   <v type="int" >        4        8       21      111      112 </v>
   <v type="int" >        4        8       99      111      112 </v>
   <v type="int" >        4        8       99      100      111 </v>
   <v type="int" >        4        7       21       22      112 </v>
   <v type="int" >        4        7        8       21      112 </v>
   <v type="int" >        4        7        8       99      112 </v>
   <v type="int" >        4        7       22      112      113 </v>
   <v type="int" >        4        7       98      112      113 </v>
   <v type="int" >        4        7       98       99      112 </v>
   <v type="int" >        4        6       22       23      113 </v>
   <v type="int" >        4        6        7       22      113 </v>
   <v type="int" >        4        6        7       98      113 </v>
   <v type="int" >        4        6       23      113      114 </v>
   <v type="int" >        4        6       97      113      114 </v>
   <v type="int" >        4        6       97       98      113 </v>
   <v type="int" >        4        5       23       24      114 </v>
   <v type="int" >        4        5        6       23      114 </v>
   <v type="int" >        4        5        6       97      114 </v>
   <v type="int" >        4        5       24      114      115 </v>
   <v type="int" >        4        5       96      114      115 </v>
   <v type="int" >        4        5       96       97      114 </v>
   <v type="int" >        4        4       24       25      115 </v>
   <v type="int" >        4        4        5       24      115 </v>
   <v type="int" >        4        4        5       96      115 </v>
   <v type="int" >        4        4       25      115      116 </v>
   <v type="int" >        4        4       95      115      116 </v>
   <v type="int" >        4        4       95       96      115 </v>
   <v type="int" >        4        3       25       26      116 </v>
   <v type="int" >        4        3        4       25      116 </v>
   <v type="int" >        4        3        4       95      116 </v>
   <v type="int" >        4        3       26      116      117 </v>
   <v type="int" >        4        3       94      116      117 </v>
   <v type="int" >        4        3       94       95      116 </v>
   <v type="int" >        4        2       26       27      117 </v>
   <v type="int" >        4        2        3       26      117 </v>
   <v type="int" >        4        2        3       94      117 </v>
   <v type="int" >        4        2       27      117      118 </v>
   <v type="int" >        4        2       93      117      118 </v>
   <v type="int" >        4        2       93       94      117 </v>
   <v type="int" >        4        1        2       27      118 </v>
   <v type="int" >        4        1        2       93      118 </v>
   <v type="int" >        4        1       92       93      118 </v>
   <v type="int" >        4        3       11       12       94 </v>
   <v type="int" >        4        2        3       11       94 </v>
   <v type="int" >        4        2       11       93       94 </v>
   <v type="int" >        4       11       12       94      103 </v>
   <v type="int" >        4       11       94      102      103 </v>
   <v type="int" >        4       11       93       94      102 </v>
   <v type="int" >        4       12       12       28      103 </v>
   <v type="int" >        4       11       12       12      103 </v>
   <v type="int" >        4       11       12      102      103 </v>
   <v type="int" >        4       12       28      103      119 </v>
   <v type="int" >        4       12      103      103      119 </v>
   <v type="int" >        4       12      102      103      103 </v>
   <v type="int" >        4       13       28       29      119 </v>
   <v type="int" >        4       12       13       28      119 </v>
   <v type="int" >        4       12       13      103      119 </v>
   <v type="int" >        4       13       29      119      120 </v>
   <v type="int" >        4       13      104      119      120 </v>
   <v type="int" >        4       13      103      104      119 </v>
   <v type="int" >        4       14       29       30      120 </v>
   <v type="int" >        4       13       14       29      120 </v>
   <v type="int" >        4       13       14      104      120 </v>
   <v type="int" >        4       14       30      120      121 </v>
   <v type="int" >        4       14      105      120      121 </v>
   <v type="int" >        4       14      104      105      120 </v>
   <v type="int" >        4       15       30       31      121 </v>
   <v type="int" >        4       14       15       30      121 </v>
   <v type="int" >        4       14       15      105      121 </v>
   <v type="int" >        4       15       31      121      122 </v>
   <v type="int" >        4       15      106      121      122 </v>
   <v type="int" >        4       15      105      106      121 </v>
   <v type="int" >        4       16       31       32      122 </v>
   <v type="int" >        4       15       16       31      122 </v>
   <v type="int" >        4       15       16      106      122 </v>
   <v type="int" >        4       16       32      122      123 </v>
   <v type="int" >        4       16      107      122      123 </v>
   <v type="int" >        4       16      106      107      122 </v>
   <v type="int" >        4       17       32       33      123 </v>
   <v type="int" >        4       16       17       32      123 </v>
   <v type="int" >        4       16       17      107      123 </v>
   <v type="int" >        4       17       33      123      124 </v>
   <v type="int" >        4       17      108      123      124 </v>
   <v type="int" >        4       17      107      108      123 </v>
   <v type="int" >        4       18       33       34      124 </v>
   <v type="int" >        4       17       18       33      124 </v>
   <v type="int" >        4       17       18      108      124 </v>
   <v type="int" >        4       18       34      124      125 </v>
   <v type="int" >        4       18      109      124      125 </v>
   <v type="int" >        4       18      108      109      124 </v>
   <v type="int" >        4       19       34       35      125 </v>
   <v type="int" >        4       18       19       34      125 </v>
   <v type="int" >        4       18       19      109      125 </v>
   <v type="int" >        4       19       35      125      126 </v>
   <v type="int" >        4       19      110      125      126 </v>
   <v type="int" >        4       19      109      110      125 </v>
   <v type="int" >        4       20       35       36      126 </v>
   <v type="int" >        4       19       20       35      126 </v>
   <v type="int" >        4       19       20      110      126 </v>
   <v type="int" >        4       20       36      126      127 </v>
   <v type="int" >        4       20      111      126      127 </v>
   <v type="int" >        4       20      110      111      126 </v>
   <v type="int" >        4       21       36       37      127 </v>
   <v type="int" >        4       20       21       36      127 </v>
   <v type="int" >        4       20       21      111      127 </v>
   <v type="int" >        4       21       37      127      128 </v>
   <v type="int" >        4       21      112      127      128 </v>
   <v type="int" >        4       21      111      112      127 </v>
   <v type="int" >        4       22       37       38      128 </v>
   <v type="int" >        4       21       22       37      128 </v>
   <v type="int" >        4       21       22      112      128 </v>
   <v type="int" >        4       22       38      128      129 </v>
   <v type="int" >        4       22      113      128      129 </v>
   <v type="int" >        4       22      112      113      128 </v>
   <v type="int" >        4       23       38       39      129 </v>
   <v type="int" >        4       22       23       38      129 </v>
   <v type="int" >        4       22       23      113      129 </v>
   <v type="int" >        4       23       39      129      130 </v>
   <v type="int" >        4       23      114      129      130 </v>
   <v type="int" >        4       23      113      114      129 </v>
   <v type="int" >        4       24       39       40      130 </v>
   <v type="int" >        4       23       24       39      130 </v>
   <v type="int" >        4       23       24      114      130 </v>
   <v type="int" >        4       24       40      130      131 </v>
   <v type="int" >        4       24      115      130      131 </v>
   <v type="int" >        4       24      114      115      130 </v>
   <v type="int" >        4       25       40       41      131 </v>
   <v type="int" >        4       24       25       40      131 </v>
   <v type="int" >        4       24       25      115      131 </v>
   <v type="int" >        4       25       41      131      132 </v>
   <v type="int" >        4       25      116      131      132 </v>
   <v type="int" >        4       25      115      116      131 </v>
   <v type="int" >        4       26       41       42      132 </v>
   <v type="int" >        4       25       26       41      132 </v>
   <v type="int" >        4       25       26      116      132 </v>
   <v type="int" >        4       26       42      132      133 </v>
   <v type="int" >        4       26      117      132      133 </v>
   <v type="int" >        4       26      116      117      132 </v>
   <v type="int" >        4       26       27       42      133 </v>
   <v type="int" >        4       26       27      117      133 </v>
   <v type="int" >        4       27      117      118      133 </v>
   <v type="int" >        4        4       12       13       95 </v>
   <v type="int" >        4        3        4       12       95 </v>
   <v type="int" >        4        3       12       94       95 </v>
   <v type="int" >        4       12       13       95      104 </v>
   <v type="int" >        4       12       95      103      104 </v>
   <v type="int" >        4       12       94       95      103 </v>
   <v type="int" >        4       13       28       29      104 </v>
   <v type="int" >        4       12       13       28      104 </v>
   <v type="int" >        4       12       28      103      104 </v>
   <v type="int" >        4       28       29      104      120 </v>
   <v type="int" >        4       28      104      119      120 </v>
   <v type="int" >        4       28      103      104      119 </v>
   <v type="int" >        4       29       29       43      120 </v>
   <v type="int" >        4       28       29       29      120 </v>
   <v type="int" >        4       28       29      119      120 </v>
   <v type="int" >        4       29       43      120      134 </v>
   <v type="int" >        4       29      120      120      134 </v>
   <v type="int" >        4       29      119      120      120 </v>
   <v type="int" >        4       30       43       44      134 </v>
   <v type="int" >        4       29       30       43      134 </v>
   <v type="int" >        4       29       30      120      134 </v>
   <v type="int" >        4       30       44      134      135 </v>
   <v type="int" >        4       30      121      134      135 </v>
   <v type="int" >        4       30      120      121      134 </v>
   <v type="int" >        4       31       44       45      135 </v>
   <v type="int" >        4       30       31       44      135 </v>
   <v type="int" >        4       30       31      121      135 </v>
   <v type="int" >        4       31       45      135      136 </v>
   <v type="int" >        4       31      122      135      136 </v>
   <v type="int" >        4       31      121      122      135 </v>
   <v type="int" >        4       32       45       46      136 </v>
   <v type="int" >        4       31       32       45      136 </v>
   <v type="int" >        4       31       32      122      136 </v>
   <v type="int" >        4       32       46      136      137 </v>
   <v type="int" >        4       32      123      136      137 </v>
   <v type="int" >        4       32      122      123      136 </v>
   <v type="int" >        4       33       46       47      137 </v>
   <v type="int" >        4       32       33       46      137 </v>
   <v type="int" >        4       32       33      123      137 </v>
   <v type="int" >        4       33       47      137      138 </v>
   <v type="int" >        4       33      124      137      138 </v>
   <v type="int" >        4       33      123      124      137 </v>
   <v type="int" >        4       34       47       48      138 </v>
   <v type="int" >        4       33       34       47      138 </v>
   <v type="int" >        4       33       34      124      138 </v>
   <v type="int" >        4       34       48      138      139 </v>
   <v type="int" >        4       34      125      138      139 </v>
   <v type="int" >        4       34      124      125      138 </v>
   <v type="int" >        4       35       48       49      139 </v>
   <v type="int" >        4       34       35       48      139 </v>
   <v type="int" >        4       34       35      125      139 </v>
   <v type="int" >        4       35       49      139      140 </v>
   <v type="int" >        4       35      126      139      140 </v>
   <v type="int" >        4       35      125      126      139 </v>
   <v type="int" >        4       36       49       50      140 </v>
   <v type="int" >        4       35       36       49      140 </v>
   <v type="int" >        4       35       36      126      140 </v>
   <v type="int" >        4       36       50      140      141 </v>
   <v type="int" >        4       36      127      140      141 </v>
   <v type="int" >        4       36      126      127      140 </v>
   <v type="int" >        4       37       50       51      141 </v>
   <v type="int" >        4       36       37       50      141 </v>
   <v type="int" >        4       36       37      127      141 </v>
   <v type="int" >        4       37       51      141      142 </v>
   <v type="int" >        4       37      128      141      142 </v>
   <v type="int" >        4       37      127      128      141 </v>
   <v type="int" >        4       38       51       52      142 </v>
   <v type="int" >        4       37       38       51      142 </v>
   <v type="int" >        4       37       38      128      142 </v>
   <v type="int" >        4       38       52      142      143 </v>
   <v type="int" >        4       38      129      142      143 </v>
   <v type="int" >        4       38      128      129      142 </v>
   <v type="int" >        4       39       52       53      143 </v>
   <v type="int" >        4       38       39       52      143 </v>
   <v type="int" >        4       38       39      129      143 </v>
   <v type="int" >        4       39       53      143      144 </v>
   <v type="int" >        4       39      130      143      144 </v>
   <v type="int" >        4       39      129      130      143 </v>
   <v type="int" >        4       40       53       54      144 </v>
   <v type="int" >        4       39       40       53      144 </v>
   <v type="int" >        4       39       40      130      144 </v>
   <v type="int" >        4       40       54      144      145 </v>
   <v type="int" >        4       40      131      144      145 </v>
   <v type="int" >        4       40      130      131      144 </v>
   <v type="int" >        4       41       54       55      145 </v>
   <v type="int" >        4       40       41       54      145 </v>
   <v type="int" >        4       40       41      131      145 </v>
   <v type="int" >        4       41       55      145      146 </v>
   <v type="int" >        4       41      132      145      146 </v>
   <v type="int" >        4       41      131      132      145 </v>
   <v type="int" >        4       41       42       55      146 </v>
   <v type="int" >        4       41       42      132      146 </v>
   <v type="int" >        4       42      132      133      146 </v>
   <v type="int" >        4        5       13       14       96 </v>
   <v type="int" >        4        4        5       13       96 </v>
   <v type="int" >        4        4       13       95       96 </v>
   <v type="int" >        4       13       14       96      105 </v>
   <v type="int" >        4       13       96      104      105 </v>
   <v type="int" >        4       13       95       96      104 </v>
   <v type="int" >        4       14       29       30      105 </v>
   <v type="int" >        4       13       14       29      105 </v>
   <v type="int" >        4       13       29      104      105 </v>
   <v type="int" >        4       29       30      105      121 </v>
   <v type="int" >        4       29      105      120      121 </v>
   <v type="int" >        4       29      104      105      120 </v>
   <v type="int" >        4       30       43       44      121 </v>
   <v type="int" >        4       29       30       43      121 </v>
   <v type="int" >        4       29       43      120      121 </v>
   <v type="int" >        4       43       44      121      135 </v>
   <v type="int" >        4       43      121      134      135 </v>
   <v type="int" >        4       43      120      121      134 </v>
   <v type="int" >        4       44       44       56      135 </v>
   <v type="int" >        4       43       44       44      135 </v>
   <v type="int" >        4       43       44      134      135 </v>
   <v type="int" >        4       44       56      135      147 </v>
   <v type="int" >        4       44      135      135      147 </v>
   <v type="int" >        4       44      134      135      135 </v>
   <v type="int" >        4       45       56       57      147 </v>
   <v type="int" >        4       44       45       56      147 </v>
   <v type="int" >        4       44       45      135      147 </v>
   <v type="int" >        4       45       57      147      148 </v>
   <v type="int" >        4       45      136      147      148 </v>
   <v type="int" >        4       45      135      136      147 </v>
   <v type="int" >        4       46       57       58      148 </v>
   <v type="int" >        4       45       46       57      148 </v>
   <v type="int" >        4       45       46      136      148 </v>
   <v type="int" >        4       46       58      148      149 </v>
   <v type="int" >        4       46      137      148      149 </v>
   <v type="int" >        4       46      136      137      148 </v>
   <v type="int" >        4       47       58       59      149 </v>
   <v type="int" >        4       46       47       58      149 </v>
   <v type="int" >        4       46       47      137      149 </v>
   <v type="int" >        4       47       59      149      150 </v>
   <v type="int" >        4       47      138      149      150 </v>
   <v type="int" >        4       47      137      138      149 </v>
   <v type="int" >        4       48       59       60      150 </v>
   <v type="int" >        4       47       48       59      150 </v>
   <v type="int" >        4       47       48      138      150 </v>
   <v type="int" >        4       48       60      150      151 </v>
   <v type="int" >        4       48      139      150      151 </v>
   <v type="int" >        4       48      138      139      150 </v>
   <v type="int" >        4       49       60       61      151 </v>
   <v type="int" >        4       48       49       60      151 </v>
   <v type="int" >        4       48       49      139      151 </v>
   <v type="int" >        4       49       61      151      152 </v>
   <v type="int" >        4       49      140      151      152 </v>
   <v type="int" >        4       49      139      140      151 </v>
   <v type="int" >        4       50       61       62      152 </v>
   <v type="int" >        4       49       50       61      152 </v>
   <v type="int" >        4       49       50      140      152 </v>
   <v type="int" >        4       50       62      152      153 </v>
   <v type="int" >        4       50      141      152      153 </v>
   <v type="int" >        4       50      140      141      152 </v>
   <v type="int" >        4       51       62       63      153 </v>
   <v type="int" >        4       50       51       62      153 </v>
   <v type="int" >        4       50       51      141      153 </v>
   <v type="int" >        4       51       63      153      154 </v>
   <v type="int" >        4       51      142      153      154 </v>
   <v type="int" >        4       51      141      142      153 </v>
   <v type="int" >        4       52       63       64      154 </v>
   <v type="int" >        4       51       52       63      154 </v>
   <v type="int" >        4       51       52      142      154 </v>
   <v type="int" >        4       52       64      154      155 </v>
   <v type="int" >        4       52      143      154      155 </v>
   <v type="int" >        4       52      142      143      154 </v>
   <v type="int" >        4       53       64       65      155 </v>
   <v type="int" >        4       52       53       64      155 </v>
   <v type="int" >        4       52       53      143      155 </v>
   <v type="int" >        4       53       65      155      156 </v>
   <v type="int" >        4       53      144      155      156 </v>
   <v type="int" >        4       53      143      144      155 </v>
   <v type="int" >        4       54       65       66      156 </v>
   <v type="int" >        4       53       54       65      156 </v>
   <v type="int" >        4       53       54      144      156 </v>
   <v type="int" >        4       54       66      156      157 </v>
   <v type="int" >        4       54      145      156      157 </v>
   <v type="int" >        4       54      144      145      156 </v>
   <v type="int" >        4       54       55       66      157 </v>
   <v type="int" >        4       54       55      145      157 </v>
   <v type="int" >        4       55      145      146      157 </v>
   <v type="int" >        4        6       14       15       97 </v>
   <v type="int" >        4        5        6       14       97 </v>
   <v type="int" >        4        5       14       96       97 </v>
   <v type="int" >        4       14       15       97      106 </v>
   <v type="int" >        4       14       97      105      106 </v>
   <v type="int" >        4       14       96       97      105 </v>
   <v type="int" >        4       15       30       31      106 </v>
   <v type="int" >        4       14       15       30      106 </v>
   <v type="int" >        4       14       30      105      106 </v>
   <v type="int" >        4       30       31      106      122 </v>
   <v type="int" >        4       30      106      121      122 </v>
   <v type="int" >        4       30      105      106      121 </v>
   <v type="int" >        4       31       44       45      122 </v>
   <v type="int" >        4       30       31       44      122 </v>
   <v type="int" >        4       30       44      121      122 </v>
   <v type="int" >        4       44       45      122      136 </v>
   <v type="int" >        4       44      122      135      136 </v>
   <v type="int" >        4       44      121      122      135 </v>
   <v type="int" >        4       45       56       57      136 </v>
   <v type="int" >        4       44       45       56      136 </v>
   <v type="int" >        4       44       56      135      136 </v>
   <v type="int" >        4       56       57      136      148 </v>
   <v type="int" >        4       56      136      147      148 </v>
   <v type="int" >        4       56      135      136      147 </v>
   <v type="int" >        4       57       57       67      148 </v>
   <v type="int" >        4       56       57       57      148 </v>
   <v type="int" >        4       56       57      147      148 </v>
   <v type="int" >        4       57       67      148      158 </v>
   <v type="int" >        4       57      148      148      158 </v>
   <v type="int" >        4       57      147      148      148 </v>
   <v type="int" >        4       58       67       68      158 </v>
   <v type="int" >        4       57       58       67      158 </v>
   <v type="int" >        4       57       58      148      158 </v>
   <v type="int" >        4       58       68      158      159 </v>
   <v type="int" >        4       58      149      158      159 </v>
   <v type="int" >        4       58      148      149      158 </v>
   <v type="int" >        4       59       68       69      159 </v>
   <v type="int" >        4       58       59       68      159 </v>
   <v type="int" >        4       58       59      149      159 </v>
   <v type="int" >        4       59       69      159      160 </v>
   <v type="int" >        4       59      150      159      160 </v>
   <v type="int" >        4       59      149      150      159 </v>
   <v type="int" >        4       60       69       70      160 </v>
   <v type="int" >        4       59       60       69      160 </v>
   <v type="int" >        4       59       60      150      160 </v>
   <v type="int" >        4       60       70      160      161 </v>
   <v type="int" >        4       60      151      160      161 </v>
   <v type="int" >        4       60      150      151      160 </v>
   <v type="int" >        4       61       70       71      161 </v>
   <v type="int" >        4       60       61       70      161 </v>
   <v type="int" >        4       60       61      151      161 </v>
   <v type="int" >        4       61       71      161      162 </v>
   <v type="int" >        4       61      152      161      162 </v>
   <v type="int" >        4       61      151      152      161 </v>
   <v type="int" >        4       62       71       72      162 </v>
   <v type="int" >        4       61       62       71      162 </v>
   <v type="int" >        4       61       62      152      162 </v>
   <v type="int" >        4       62       72      162      163 </v>
   <v type="int" >        4       62      153      162      163 </v>
   <v type="int" >        4       62      152      153      162 </v>
   <v type="int" >        4       63       72       73      163 </v>
   <v type="int" >        4       62       63       72      163 </v>
   <v type="int" >        4       62       63      153      163 </v>
   <v type="int" >        4       63       73      163      164 </v>
   <v type="int" >        4       63      154      163      164 </v>
   <v type="int" >        4       63      153      154      163 </v>
   <v type="int" >        4       64       73       74      164 </v>
   <v type="int" >        4       63       64       73      164 </v>
   <v type="int" >        4       63       64      154      164 </v>
   <v type="int" >        4       64       74      164      165 </v>
   <v type="int" >        4       64      155      164      165 </v>
   <v type="int" >        4       64      154      155      164 </v>
   <v type="int" >        4       65       74       75      165 </v>
   <v type="int" >        4       64       65       74      165 </v>
   <v type="int" >        4       64       65      155      165 </v>
   <v type="int" >        4       65       75      165      166 </v>
   <v type="int" >        4       65      156      165      166 </v>
   <v type="int" >        4       65      155      156      165 </v>
   <v type="int" >        4       65       66       75      166 </v>
   <v type="int" >        4       65       66      156      166 </v>
   <v type="int" >        4       66      156      157      166 </v>
   <v type="int" >        4        7       15       16       98 </v>
   <v type="int" >        4        6        7       15       98 </v>
   <v type="int" >        4        6       15       97       98 </v>
   <v type="int" >        4       15       16       98      107 </v>
   <v type="int" >        4       15       98      106      107 </v>
   <v type="int" >        4       15       97       98      106 </v>
   <v type="int" >        4       16       31       32      107 </v>
   <v type="int" >        4       15       16       31      107 </v>
   <v type="int" >        4       15       31      106      107 </v>
   <v type="int" >        4       31       32      107      123 </v>
   <v type="int" >        4       31      107      122      123 </v>
   <v type="int" >        4       31      106      107      122 </v>
   <v type="int" >        4       32       45       46      123 </v>
   <v type="int" >        4       31       32       45      123 </v>
   <v type="int" >        4       31       45      122      123 </v>
   <v type="int" >        4       45       46      123      137 </v>
   <v type="int" >        4       45      123      136      137 </v>
   <v type="int" >        4       45      122      123      136 </v>
   <v type="int" >        4       46       57       58      137 </v>
   <v type="int" >        4       45       46       57      137 </v>
   <v type="int" >        4       45       57      136      137 </v>
   <v type="int" >        4       57       58      137      149 </v>
   <v type="int" >        4       57      137      148      149 </v>
   <v type="int" >        4       57      136      137      148 </v>
   <v type="int" >        4       58       67       68      149 </v>
   <v type="int" >        4       57       58       67      149 </v>
   <v type="int" >        4       57       67      148      149 </v>
   <v type="int" >        4       67       68      149      159 </v>
   <v type="int" >        4       67      149      158      159 </v>
   <v type="int" >        4       67      148      149      158 </v>
   <v type="int" >        4       68       68       76      159 </v>
   <v type="int" >        4       67       68       68      159 </v>
   <v type="int" >        4       67       68      158      159 </v>
   <v type="int" >        4       68       76      159      167 </v>
   <v type="int" >        4       68      159      159      167 </v>
   <v type="int" >        4       68      158      159      159 </v>
   <v type="int" >        4       69       76       77      167 </v>
   <v type="int" >        4       68       69       76      167 </v>
   <v type="int" >        4       68       69      159      167 </v>
   <v type="int" >        4       69       77      167      168 </v>
   <v type="int" >        4       69      160      167      168 </v>
   <v type="int" >        4       69      159      160      167 </v>
   <v type="int" >        4       70       77       78      168 </v>
   <v type="int" >        4       69       70       77      168 </v>
   <v type="int" >        4       69       70      160      168 </v>
   <v type="int" >        4       70       78      168      169 </v>
   <v type="int" >        4       70      161      168      169 </v>
   <v type="int" >        4       70      160      161      168 </v>
   <v type="int" >        4       71       78       79      169 </v>
   <v type="int" >        4       70       71       78      169 </v>
   <v type="int" >        4       70       71      161      169 </v>
   <v type="int" >        4       71       79      169      170 </v>
   <v type="int" >        4       71      162      169      170 </v>
   <v type="int" >        4       71      161      162      169 </v>
   <v type="int" >        4       72       79       80      170 </v>
   <v type="int" >        4       71       72       79      170 </v>
   <v type="int" >        4       71       72      162      170 </v>
   <v type="int" >        4       72       80      170      171 </v>
   <v type="int" >        4       72      163      170      171 </v>
   <v type="int" >        4       72      162      163      170 </v>
   <v type="int" >        4       73       80       81      171 </v>
   <v type="int" >        4       72       73       80      171 </v>
   <v type="int" >        4       72       73      163      171 </v>
[...]
       <r>   -3.4921    1.0000 </r>
       <r>   -3.4921    1.0000 </r>
       <r>   -1.6913    1.0000 </r>
       <r>   -1.6913    1.0000 </r>
       <r>    2.9913    1.0000 </r>
       <r>    2.9913    1.0000 </r>
       <r>   12.5333    1.0000 </r>
       <r>   12.5333    1.0000 </r>
       <r>   14.4609    0.0000 </r>
       <r>   14.4609    0.0000 </r>
       <r>   22.3108    0.0000 </r>
       <r>   22.3108    0.0000 </r>
      </set>
      <set comment="kpoint 449">
       <r>   -4.2371    1.0000 </r>
       <r>   -4.2371    1.0000 </r>
       <r>   -1.3581    1.0000 </r>
       <r>   -1.3581    1.0000 </r>
       <r>    4.1305    1.0000 </r>
       <r>    4.1305    1.0000 </r>
       <r>   12.0641    1.0000 </r>
       <r>   12.0641    1.0000 </r>
       <r>   14.4693   -0.0073 </r>
       <r>   14.4693    0.0016 </r>
       <r>   21.3845    0.0000 </r>
       <r>   21.3845    0.0000 </r>
      </set>
      <set comment="kpoint 450">
       <r>   -4.9255    1.0000 </r>
       <r>   -4.9255    1.0000 </r>
       <r>   -0.8255    1.0000 </r>
       <r>   -0.8255    1.0000 </r>
       <r>    5.0231    1.0000 </r>
       <r>    5.0231    1.0000 </r>
       <r>   11.5927    1.0000 </r>
       <r>   11.5927    1.0000 </r>
       <r>   14.4808   -0.0262 </r>
       <r>   14.4808    0.0005 </r>
       <r>   20.9311    0.0000 </r>
       <r>   20.9311    0.0000 </r>
      </set>
      <set comment="kpoint 451">
       <r>   -5.4991    1.0000 </r>
       <r>   -5.4991    1.0000 </r>
       <r>   -0.1493    1.0000 </r>
       <r>   -0.1493    1.0000 </r>
       <r>    5.4539    1.0000 </r>
       <r>    5.4539    1.0000 </r>
       <r>   11.1875    1.0000 </r>
       <r>   11.1875    1.0000 </r>
       <r>   14.6722   -0.0037 </r>
       <r>   14.6722   -0.0000 </r>
       <r>   20.9488    0.0000 </r>
       <r>   20.9488    0.0000 </r>
      </set>
      <set comment="kpoint 452">
       <r>   -3.4839    1.0000 </r>
       <r>   -3.4839    1.0000 </r>
       <r>   -2.2226    1.0000 </r>
       <r>   -2.2226    1.0000 </r>
       <r>    4.0533    1.0000 </r>
       <r>    4.0533    1.0000 </r>
       <r>   12.4022    1.0000 </r>
       <r>   12.4022    1.0000 </r>
       <r>   14.1359    0.0302 </r>
       <r>   14.1359    0.0285 </r>
       <r>   21.2837    0.0000 </r>
       <r>   21.2837    0.0000 </r>
      </set>
      <set comment="kpoint 453">
       <r>   -3.8963    1.0000 </r>
       <r>   -3.8963    1.0000 </r>
       <r>   -2.0857    1.0000 </r>
       <r>   -2.0857    1.0000 </r>
       <r>    4.8743    1.0000 </r>
       <r>    4.8743    1.0000 </r>
       <r>   12.1625    1.0000 </r>
       <r>   12.1625    1.0000 </r>
       <r>   13.9288    0.3797 </r>
       <r>   13.9288    0.1996 </r>
       <r>   20.6960    0.0000 </r>
       <r>   20.6960    0.0000 </r>
      </set>
      <set comment="kpoint 454">
       <r>   -4.4472    1.0000 </r>
       <r>   -4.4472    1.0000 </r>
       <r>   -1.5487    1.0000 </r>
       <r>   -1.5487    1.0000 </r>
       <r>    5.2345    1.0000 </r>
       <r>    5.2345    1.0000 </r>
       <r>   11.8572    1.0000 </r>
       <r>   11.8572    1.0000 </r>
       <r>   14.0306    0.2116 </r>
       <r>   14.0306    0.1099 </r>
       <r>   20.5914    0.0000 </r>
       <r>   20.5914    0.0000 </r>
      </set>
      <set comment="kpoint 455">
       <r>   -3.6824    1.0000 </r>
       <r>   -3.6824    1.0000 </r>
       <r>   -2.4308    1.0000 </r>
       <r>   -2.4308    1.0000 </r>
       <r>    5.1604    1.0000 </r>
       <r>    5.1604    1.0000 </r>
       <r>   12.2177    1.0000 </r>
       <r>   12.2177    1.0000 </r>
       <r>   13.6837    0.9853 </r>
       <r>   13.6837    0.5890 </r>
       <r>   20.4613    0.0000 </r>
       <r>   20.4613    0.0000 </r>
      </set>
     </set>
    </set>
   </array>
  </eigenvalues>
  <separator name="orbital magnetization" >
   <v name="MAGDIPOLOUT">      0.00000000      0.00000000      0.00000000</v>
  </separator>
  <dos>
   <i name="efermi">     14.04954872 </i>
   <total>
    <array>
     <dimension dim="1">gridpoints</dimension>
     <dimension dim="2">spin</dimension>
     <field>energy</field>
     <field>total</field>
     <field>integrated</field>
     <set>
      <set comment="spin 1">
       <r>   -13.4822     0.0000     0.0000 </r>
       <r>   -13.3420     0.0000     0.0000 </r>
       <r>   -13.2018     0.0000     0.0000 </r>
       <r>   -13.0616     0.0000     0.0000 </r>
       <r>   -12.9214     0.0000     0.0000 </r>
       <r>   -12.7812     0.0000     0.0000 </r>
       <r>   -12.6410     0.0000     0.0000 </r>
       <r>   -12.5008     0.0000     0.0000 </r>
       <r>   -12.3606     0.0000     0.0000 </r>
       <r>   -12.2204     0.0000     0.0000 </r>
       <r>   -12.0802     0.0000     0.0000 </r>
       <r>   -11.9400     0.0000     0.0000 </r>
       <r>   -11.7998     0.0000     0.0000 </r>
       <r>   -11.6596     0.0000     0.0000 </r>
       <r>   -11.5194     0.0000     0.0000 </r>
       <r>   -11.3792     0.0426     0.0018 </r>
       <r>   -11.2390     0.0841     0.0113 </r>
       <r>   -11.0988     0.1068     0.0249 </r>
       <r>   -10.9586     0.1321     0.0415 </r>
       <r>   -10.8184     0.1499     0.0616 </r>
       <r>   -10.6782     0.1630     0.0835 </r>
       <r>   -10.5380     0.1798     0.1074 </r>
       <r>   -10.3978     0.1928     0.1336 </r>
       <r>   -10.2576     0.2062     0.1616 </r>
       <r>   -10.1174     0.2194     0.1915 </r>
       <r>    -9.9772     0.2314     0.2231 </r>
       <r>    -9.8370     0.2404     0.2562 </r>
       <r>    -9.6968     0.2504     0.2905 </r>
       <r>    -9.5566     0.2613     0.3264 </r>
       <r>    -9.4164     0.2725     0.3638 </r>
       <r>    -9.2762     0.2835     0.4028 </r>
       <r>    -9.1360     0.2924     0.4432 </r>
       <r>    -8.9958     0.3007     0.4848 </r>
       <r>    -8.8556     0.3094     0.5276 </r>
       <r>    -8.7154     0.3184     0.5716 </r>
       <r>    -8.5752     0.3277     0.6169 </r>
       <r>    -8.4350     0.3358     0.6634 </r>
       <r>    -8.2948     0.3443     0.7111 </r>
       <r>    -8.1546     0.3529     0.7599 </r>
       <r>    -8.0145     0.3619     0.8100 </r>
       <r>    -7.8743     0.3709     0.8614 </r>
       <r>    -7.7341     0.3792     0.9140 </r>
       <r>    -7.5939     0.3866     0.9677 </r>
       <r>    -7.4537     0.3942     1.0224 </r>
       <r>    -7.3135     0.4022     1.0782 </r>
       <r>    -7.1733     0.4105     1.1352 </r>
       <r>    -7.0331     0.4191     1.1933 </r>
       <r>    -6.8929     0.4284     1.2527 </r>
       <r>    -6.7527     0.4379     1.3135 </r>
       <r>    -6.6125     0.4472     1.3755 </r>
       <r>    -6.4723     0.4578     1.4389 </r>
       <r>    -6.3321     0.4698     1.5039 </r>
       <r>    -6.1919     0.4847     1.5708 </r>
       <r>    -6.0517     0.5018     1.6400 </r>
       <r>    -5.9115     0.5526     1.7138 </r>
       <r>    -5.7713     0.5399     1.7910 </r>
       <r>    -5.6311     0.5303     1.8657 </r>
       <r>    -5.4909     0.5566     1.9434 </r>
       <r>    -5.3507     0.5174     2.0175 </r>
       <r>    -5.2105     0.5072     2.0893 </r>
       <r>    -5.0703     0.4968     2.1597 </r>
       <r>    -4.9301     0.4843     2.2281 </r>
       <r>    -4.7899     0.4944     2.2969 </r>
       <r>    -4.6497     0.4731     2.3647 </r>
       <r>    -4.5095     0.4646     2.4303 </r>
       <r>    -4.3693     0.4652     2.4955 </r>
       <r>    -4.2291     0.5203     2.5634 </r>
       <r>    -4.0889     0.5129     2.6367 </r>
       <r>    -3.9487     0.5339     2.7099 </r>
       <r>    -3.8085     0.5625     2.7867 </r>
       <r>    -3.6683     0.6208     2.8706 </r>
       <r>    -3.5281     0.6393     2.9583 </r>
       <r>    -3.3879     0.6765     3.0507 </r>
       <r>    -3.2477     0.6850     3.1463 </r>
       <r>    -3.1075     0.6474     3.2410 </r>
       <r>    -2.9673     0.6296     3.3297 </r>
       <r>    -2.8271     0.6391     3.4194 </r>
       <r>    -2.6869     0.5946     3.5067 </r>
       <r>    -2.5467     0.5441     3.5851 </r>
       <r>    -2.4065     0.5859     3.6660 </r>
       <r>    -2.2663     0.5688     3.7469 </r>
       <r>    -2.1261     0.5821     3.8297 </r>
       <r>    -1.9859     0.5846     3.9099 </r>
       <r>    -1.8457     0.5642     3.9906 </r>
       <r>    -1.7055     0.5627     4.0695 </r>
       <r>    -1.5653     0.6202     4.1522 </r>
       <r>    -1.4251     0.6581     4.2468 </r>
       <r>    -1.2849     0.6603     4.3390 </r>
       <r>    -1.1447     0.6390     4.4308 </r>
       <r>    -1.0046     0.6572     4.5223 </r>
       <r>    -0.8644     0.6743     4.6156 </r>
       <r>    -0.7242     0.6918     4.7109 </r>
       <r>    -0.5840     0.7529     4.8123 </r>
       <r>    -0.4438     0.7803     4.9199 </r>
       <r>    -0.3036     0.7588     5.0290 </r>
       <r>    -0.1634     0.6965     5.1308 </r>
       <r>    -0.0232     0.6706     5.2269 </r>
       <r>     0.1170     0.6485     5.3191 </r>
       <r>     0.2572     0.6501     5.4099 </r>
       <r>     0.3974     0.6691     5.5020 </r>
       <r>     0.5376     0.7369     5.6023 </r>
       <r>     0.6778     0.7635     5.7062 </r>
       <r>     0.8180     0.7681     5.8161 </r>
       <r>     0.9582     0.7705     5.9241 </r>
       <r>     1.0984     0.7710     6.0323 </r>
       <r>     1.2386     0.7693     6.1400 </r>
       <r>     1.3788     0.7921     6.2492 </r>
       <r>     1.5190     0.8133     6.3619 </r>
       <r>     1.6592     0.8330     6.4771 </r>
       <r>     1.7994     0.8339     6.5937 </r>
       <r>     1.9396     0.8559     6.7126 </r>
       <r>     2.0798     0.8440     6.8315 </r>
       <r>     2.2200     0.8628     6.9508 </r>
       <r>     2.3602     0.8946     7.0739 </r>
       <r>     2.5004     0.9328     7.2029 </r>
       <r>     2.6406     0.9800     7.3360 </r>
       <r>     2.7808     0.9823     7.4734 </r>
       <r>     2.9210     0.9846     7.6108 </r>
       <r>     3.0612     0.9926     7.7490 </r>
       <r>     3.2014     1.0230     7.8906 </r>
       <r>     3.3416     1.0961     8.0370 </r>
       <r>     3.4818     1.1764     8.1976 </r>
       <r>     3.6220     1.1688     8.3631 </r>
       <r>     3.7622     1.1111     8.5228 </r>
       <r>     3.9024     1.0101     8.6664 </r>
       <r>     4.0426     1.0328     8.8100 </r>
       <r>     4.1828     1.0595     8.9563 </r>
       <r>     4.3230     1.1020     9.1074 </r>
       <r>     4.4632     1.1486     9.2657 </r>
       <r>     4.6034     1.1710     9.4279 </r>
       <r>     4.7436     1.1934     9.5935 </r>
       <r>     4.8838     1.1186     9.7560 </r>
       <r>     5.0240     1.0679     9.9088 </r>
       <r>     5.1642     1.0597    10.0576 </r>
       <r>     5.3044     1.1040    10.2082 </r>
       <r>     5.4446     1.1509    10.3670 </r>
       <r>     5.5848     1.1871    10.5314 </r>
       <r>     5.7250     1.1009    10.6913 </r>
       <r>     5.8652     1.0782    10.8427 </r>
       <r>     6.0053     1.0463    10.9929 </r>
       <r>     6.1455     1.0038    11.1364 </r>
       <r>     6.2857     0.9640    11.2745 </r>
       <r>     6.4259     0.9001    11.4061 </r>
       <r>     6.5661     0.8882    11.5305 </r>
       <r>     6.7063     0.9432    11.6583 </r>
       <r>     6.8465     1.0277    11.7963 </r>
       <r>     6.9867     0.9915    11.9357 </r>
       <r>     7.1269     1.1187    12.0834 </r>
       <r>     7.2671     1.0955    12.2403 </r>
       <r>     7.4073     1.0069    12.3876 </r>
       <r>     7.5475     0.9303    12.5231 </r>
       <r>     7.6877     0.8178    12.6456 </r>
       <r>     7.8279     0.7385    12.7544 </r>
       <r>     7.9681     0.6944    12.8543 </r>
       <r>     8.1083     0.6539    12.9493 </r>
       <r>     8.2485     0.6222    13.0386 </r>
       <r>     8.3887     0.6105    13.1248 </r>
       <r>     8.5289     0.7200    13.2120 </r>
       <r>     8.6691     0.6666    13.3113 </r>
       <r>     8.8093     0.6000    13.3994 </r>
       <r>     8.9495     0.5724    13.4813 </r>
       <r>     9.0897     0.5709    13.5615 </r>
       <r>     9.2299     0.5307    13.6387 </r>
       <r>     9.3701     0.5175    13.7123 </r>
       <r>     9.5103     0.3275    13.7747 </r>
       <r>     9.6505     0.3298    13.8202 </r>
       <r>     9.7907     0.3425    13.8673 </r>
       <r>     9.9309     0.3592    13.9164 </r>
       <r>    10.0711     0.3830    13.9685 </r>
       <r>    10.2113     0.4000    14.0235 </r>
       <r>    10.3515     0.4102    14.0804 </r>
       <r>    10.4917     0.4152    14.1383 </r>
       <r>    10.6319     0.4146    14.1964 </r>
       <r>    10.7721     0.4181    14.2547 </r>
       <r>    10.9123     0.4252    14.3138 </r>
       <r>    11.0525     0.4342    14.3740 </r>
       <r>    11.1927     0.4451    14.4357 </r>
       <r>    11.3329     0.4577    14.4989 </r>
       <r>    11.4731     0.4737    14.5642 </r>
       <r>    11.6133     0.4943    14.6320 </r>
       <r>    11.7535     0.5244    14.7031 </r>
       <r>    11.8937     0.5836    14.7805 </r>
       <r>    12.0339     0.6500    14.8670 </r>
       <r>    12.1741     0.6714    14.9611 </r>
       <r>    12.3143     0.6412    15.0517 </r>
       <r>    12.4545     0.6472    15.1420 </r>
       <r>    12.5947     0.6556    15.2320 </r>
       <r>    12.7349     0.6650    15.3255 </r>
       <r>    12.8750     0.6295    15.4159 </r>
       <r>    13.0152     0.6186    15.5041 </r>
       <r>    13.1554     0.5623    15.5868 </r>
       <r>    13.2956     0.4767    15.6595 </r>
       <r>    13.4358     0.4301    15.7228 </r>
       <r>    13.5760     0.4028    15.7804 </r>
       <r>    13.7162     0.4196    15.8378 </r>
       <r>    13.8564     0.4629    15.8993 </r>
       <r>    13.9966     0.5530    15.9695 </r>
       <r>    14.1368     0.6423    16.0537 </r>
       <r>    14.2770     0.7849    16.1526 </r>
       <r>    14.4172     1.0617    16.2770 </r>
       <r>    14.5574     0.9719    16.4296 </r>
       <r>    14.6976     0.8920    16.5581 </r>
       <r>    14.8378     0.8789    16.6830 </r>
       <r>    14.9780     0.8924    16.8054 </r>
       <r>    15.1182     0.8870    16.9331 </r>
       <r>    15.2584     0.9608    17.0613 </r>
       <r>    15.3986     1.1534    17.2103 </r>
       <r>    15.5388     1.0968    17.3680 </r>
       <r>    15.6790     0.9873    17.5157 </r>
       <r>    15.8192     0.8657    17.6439 </r>
       <r>    15.9594     0.8191    17.7633 </r>
       <r>    16.0996     0.8377    17.8755 </r>
       <r>    16.2398     0.9254    18.0019 </r>
       <r>    16.3800     0.8784    18.1299 </r>
       <r>    16.5202     0.7786    18.2460 </r>
       <r>    16.6604     0.7406    18.3525 </r>
       <r>    16.8006     0.7024    18.4534 </r>
       <r>    16.9408     0.6720    18.5494 </r>
       <r>    17.0810     0.6528    18.6422 </r>
       <r>    17.2212     0.6404    18.7328 </r>
       <r>    17.3614     0.6280    18.8217 </r>
       <r>    17.5016     0.6112    18.9086 </r>
       <r>    17.6418     0.6016    18.9936 </r>
       <r>    17.7820     0.5891    19.0772 </r>
       <r>    17.9222     0.5736    19.1587 </r>
       <r>    18.0624     0.5606    19.2382 </r>
       <r>    18.2026     0.5471    19.3158 </r>
       <r>    18.3428     0.5351    19.3917 </r>
       <r>    18.4830     0.5616    19.4678 </r>
       <r>    18.6232     0.5194    19.5444 </r>
       <r>    18.7634     0.4773    19.6138 </r>
       <r>    18.9036     0.4393    19.6791 </r>
       <r>    19.0438     0.3461    19.7339 </r>
       <r>    19.1840     0.3110    19.7778 </r>
       <r>    19.3242     0.3834    19.8256 </r>
       <r>    19.4644     0.1891    19.8694 </r>
       <r>    19.6046     0.2871    19.9016 </r>
       <r>    19.7448     0.4074    19.9508 </r>
       <r>    19.8849     0.4396    20.0123 </r>
       <r>    20.0251     0.5074    20.0770 </r>
       <r>    20.1653     0.6044    20.1552 </r>
       <r>    20.3055     0.7294    20.2489 </r>
       <r>    20.4457     0.7702    20.3559 </r>
       <r>    20.5859     0.8699    20.4698 </r>
       <r>    20.7261     0.9904    20.6044 </r>
       <r>    20.8663     1.0460    20.7476 </r>
       <r>    21.0065     1.0328    20.8949 </r>
       <r>    21.1467     0.9378    21.0331 </r>
       <r>    21.2869     0.8792    21.1598 </r>
       <r>    21.4271     0.8569    21.2813 </r>
       <r>    21.5673     0.8402    21.4002 </r>
       <r>    21.7075     0.8282    21.5171 </r>
       <r>    21.8477     0.8262    21.6328 </r>
       <r>    21.9879     0.8855    21.7526 </r>
       <r>    22.1281     0.8539    21.8752 </r>
       <r>    22.2683     0.8398    21.9938 </r>
       <r>    22.4085     0.8329    22.1110 </r>
       <r>    22.5487     0.8317    22.2275 </r>
       <r>    22.6889     0.8427    22.3447 </r>
       <r>    22.8291     0.8167    22.4631 </r>
       <r>    22.9693     0.8475    22.5784 </r>
       <r>    23.1095     0.8711    22.7026 </r>
       <r>    23.2497     0.8221    22.8210 </r>
       <r>    23.3899     0.7403    22.9320 </r>
       <r>    23.5301     0.6824    23.0299 </r>
       <r>    23.6703     0.6811    23.1257 </r>
       <r>    23.8105     0.7316    23.2236 </r>
       <r>    23.9507     0.9602    23.3472 </r>
       <r>    24.0909     0.7342    23.4716 </r>
       <r>    24.2311     0.5050    23.5532 </r>
       <r>    24.3713     0.4215    23.6176 </r>
       <r>    24.5115     0.3706    23.6730 </r>
       <r>    24.6517     0.3492    23.7227 </r>
       <r>    24.7919     0.3332    23.7707 </r>
       <r>    24.9321     0.3133    23.8160 </r>
       <r>    25.0723     0.3037    23.8592 </r>
       <r>    25.2125     0.2541    23.8993 </r>
       <r>    25.3527     0.1724    23.9290 </r>
       <r>    25.4929     0.1324    23.9504 </r>
       <r>    25.6331     0.0958    23.9663 </r>
       <r>    25.7733     0.0679    23.9777 </r>
       <r>    25.9135     0.0512    23.9859 </r>
       <r>    26.0537     0.0397    23.9923 </r>
       <r>    26.1939     0.0241    23.9967 </r>
       <r>    26.3341     0.0109    23.9991 </r>
       <r>    26.4743     0.0018    23.9999 </r>
       <r>    26.6145     0.0000    24.0000 </r>
       <r>    26.7547     0.0000    24.0000 </r>
       <r>    26.8948     0.0000    24.0000 </r>
       <r>    27.0350     0.0000    24.0000 </r>
       <r>    27.1752     0.0000    24.0000 </r>
       <r>    27.3154     0.0000    24.0000 </r>
       <r>    27.4556     0.0000    24.0000 </r>
       <r>    27.5958     0.0000    24.0000 </r>
       <r>    27.7360     0.0000    24.0000 </r>
       <r>    27.8762     0.0000    24.0000 </r>
       <r>    28.0164     0.0000    24.0000 </r>
       <r>    28.1566     0.0000    24.0000 </r>
       <r>    28.2968     0.0000    24.0000 </r>
       <r>    28.4370     0.0000    24.0000 </r>
       <r>    28.5772     0.0000    24.0000 </r>
      </set>
     </set>
    </array>
   </total>
  </dos>
 </calculation>
 <structure name="finalpos" >
  <crystal>
   <varray name="basis" >
    <v>       2.46643725      -0.00095964       0.00000000 </v>
    <v>      -1.23404970       2.13551749       0.00000000 </v>
    <v>       0.00000000       0.00000000       3.64746290 </v>
   </varray>
   <i name="volume">     19.20730490 </i>
   <varray name="rec_basis" >
    <v>       0.40553429       0.23434576       0.00000000 </v>
    <v>       0.00018224       0.46837588       0.00000000 </v>
    <v>       0.00000000       0.00000000       0.27416317 </v>
   </varray>
  </crystal>
  <varray name="positions" >
   <v>       0.99925435       0.00074569       0.25000000 </v>
   <v>       0.00074569       0.99925435       0.75000000 </v>
   <v>       0.33266687       0.66733311       0.25000000 </v>
   <v>       0.66733311       0.33266687       0.75000000 </v>
  </varray>
 </structure>
</modeling>
