  32  32   0   0
  0.7090409E+01  0.4934311E-09  0.4934311E-09  0.1076119E-08  0.5000000E-15
  1.000000000000000E-004
  CAR 
 graphite                                
     18.63023303    -15.28174013  301      6.77259542      1.00000000
    -15.282  0.0000E+00  0.0000E+00
    -15.169  0.0000E+00  0.0000E+00
    -15.056  0.0000E+00  0.0000E+00
    -14.943  0.0000E+00  0.0000E+00
    -14.830  0.0000E+00  0.0000E+00
    -14.717  0.0000E+00  0.0000E+00
    -14.604  0.0000E+00  0.0000E+00
    -14.490  0.0000E+00  0.0000E+00
    -14.377  0.0000E+00  0.0000E+00
    -14.264  0.0000E+00  0.0000E+00
    -14.151  0.0000E+00  0.0000E+00
    -14.038  0.0000E+00  0.0000E+00
    -13.925  0.0000E+00  0.0000E+00
    -13.812  0.0000E+00  0.0000E+00
    -13.699  0.0000E+00  0.0000E+00
    -13.586  0.0000E+00  0.0000E+00
    -13.473  0.0000E+00  0.0000E+00
    -13.360  0.0000E+00  0.0000E+00
    -13.247  0.1927E+00  0.2230E-02
    -13.134  0.9977E+00  0.8406E-01
    -13.021  0.1489E+01  0.2275E+00
    -12.908  0.1790E+01  0.4119E+00
    -12.795  0.2115E+01  0.6317E+00
    -12.682  0.2390E+01  0.8878E+00
    -12.569  0.2635E+01  0.1171E+01
    -12.456  0.2919E+01  0.1485E+01
    -12.343  0.3226E+01  0.1833E+01
    -12.230  0.3486E+01  0.2212E+01
    -12.117  0.3817E+01  0.2623E+01
    -12.004  0.4446E+01  0.3090E+01
    -11.891  0.5270E+01  0.3644E+01
    -11.778  0.5796E+01  0.4273E+01
    -11.664  0.5167E+01  0.4915E+01
    -11.551  0.4026E+01  0.5427E+01
    -11.438  0.4851E+01  0.5906E+01
    -11.325  0.6009E+01  0.6533E+01
    -11.212  0.4772E+01  0.7186E+01
    -11.099  0.5004E+01  0.7732E+01
    -10.986  0.2774E+01  0.8132E+01
    -10.873  0.6128E+01  0.8601E+01
    -10.760  0.4613E+01  0.9169E+01
    -10.647  0.3451E+01  0.9662E+01
    -10.534  0.5881E+01  0.1016E+02
    -10.421  0.6541E+01  0.1090E+02
    -10.308  0.4732E+01  0.1152E+02
    -10.195  0.4723E+01  0.1207E+02
    -10.082  0.4905E+01  0.1261E+02
     -9.969  0.4963E+01  0.1321E+02
     -9.856  0.4947E+01  0.1377E+02
     -9.743  0.5060E+01  0.1434E+02
     -9.630  0.5013E+01  0.1490E+02
     -9.517  0.5298E+01  0.1548E+02
     -9.404  0.5344E+01  0.1609E+02
     -9.291  0.5394E+01  0.1670E+02
     -9.178  0.5529E+01  0.1732E+02
     -9.065  0.5545E+01  0.1794E+02
     -8.952  0.5845E+01  0.1858E+02
     -8.838  0.6100E+01  0.1925E+02
     -8.725  0.6278E+01  0.1994E+02
     -8.612  0.6563E+01  0.2066E+02
     -8.499  0.5454E+01  0.2135E+02
     -8.386  0.4434E+01  0.2190E+02
     -8.273  0.3988E+01  0.2237E+02
     -8.160  0.3787E+01  0.2281E+02
     -8.047  0.4233E+01  0.2326E+02
     -7.934  0.5242E+01  0.2379E+02
     -7.821  0.5687E+01  0.2441E+02
     -7.708  0.6224E+01  0.2509E+02
     -7.595  0.7851E+01  0.2588E+02
     -7.482  0.7286E+01  0.2673E+02
     -7.369  0.7028E+01  0.2756E+02
     -7.256  0.8738E+01  0.2843E+02
     -7.143  0.4742E+01  0.2916E+02
     -7.030  0.3844E+01  0.2963E+02
     -6.917  0.3951E+01  0.3006E+02
     -6.804  0.3397E+01  0.3048E+02
     -6.691  0.2752E+01  0.3083E+02
     -6.578  0.2148E+01  0.3111E+02
     -6.465  0.1815E+01  0.3133E+02
     -6.352  0.2352E+01  0.3154E+02
     -6.239  0.5611E+01  0.3196E+02
     -6.126  0.4178E+01  0.3242E+02
     -6.012  0.4342E+01  0.3292E+02
     -5.899  0.4980E+01  0.3344E+02
     -5.786  0.5040E+01  0.3401E+02
     -5.673  0.5135E+01  0.3458E+02
     -5.560  0.6656E+01  0.3524E+02
     -5.447  0.8282E+01  0.3608E+02
     -5.334  0.7629E+01  0.3696E+02
     -5.221  0.6956E+01  0.3778E+02
     -5.108  0.7038E+01  0.3857E+02
     -4.995  0.6605E+01  0.3936E+02
     -4.882  0.5615E+01  0.4002E+02
     -4.769  0.5418E+01  0.4064E+02
     -4.656  0.5234E+01  0.4125E+02
     -4.543  0.5103E+01  0.4183E+02
     -4.430  0.5031E+01  0.4240E+02
     -4.317  0.4886E+01  0.4296E+02
     -4.204  0.4792E+01  0.4351E+02
     -4.091  0.4749E+01  0.4405E+02
     -3.978  0.4160E+01  0.4455E+02
     -3.865  0.3722E+01  0.4500E+02
     -3.752  0.3677E+01  0.4541E+02
     -3.639  0.4089E+01  0.4584E+02
     -3.526  0.5368E+01  0.4637E+02
     -3.413  0.6766E+01  0.4705E+02
     -3.300  0.8002E+01  0.4790E+02
     -3.186  0.7853E+01  0.4881E+02
     -3.073  0.7351E+01  0.4966E+02
     -2.960  0.7408E+01  0.5048E+02
     -2.847  0.4156E+01  0.5124E+02
     -2.734  0.2786E+01  0.5158E+02
     -2.621  0.3569E+01  0.5193E+02
     -2.508  0.5671E+01  0.5244E+02
     -2.395  0.7621E+01  0.5321E+02
     -2.282  0.9116E+01  0.5415E+02
     -2.169  0.8660E+01  0.5518E+02
     -2.056  0.7151E+01  0.5608E+02
     -1.943  0.5955E+01  0.5679E+02
     -1.830  0.6484E+01  0.5748E+02
     -1.717  0.7713E+01  0.5827E+02
     -1.604  0.9088E+01  0.5925E+02
     -1.491  0.9627E+01  0.6029E+02
     -1.378  0.9300E+01  0.6138E+02
     -1.265  0.8091E+01  0.6235E+02
     -1.152  0.8650E+01  0.6327E+02
     -1.039  0.8442E+01  0.6431E+02
     -0.926  0.8558E+01  0.6532E+02
     -0.813  0.7826E+01  0.6625E+02
     -0.700  0.7992E+01  0.6713E+02
     -0.587  0.9243E+01  0.6811E+02
     -0.474  0.9618E+01  0.6919E+02
     -0.360  0.9900E+01  0.7029E+02
     -0.247  0.1104E+02  0.7145E+02
     -0.134  0.1326E+02  0.7283E+02
     -0.021  0.1267E+02  0.7430E+02
      0.092  0.1336E+02  0.7578E+02
      0.205  0.1174E+02  0.7723E+02
      0.318  0.1227E+02  0.7864E+02
      0.431  0.1212E+02  0.7998E+02
      0.544  0.1541E+02  0.8152E+02
      0.657  0.1548E+02  0.8332E+02
      0.770  0.1497E+02  0.8505E+02
      0.883  0.1295E+02  0.8658E+02
      0.996  0.1137E+02  0.8797E+02
      1.109  0.9621E+01  0.8915E+02
      1.222  0.9631E+01  0.9023E+02
      1.335  0.1012E+02  0.9134E+02
      1.448  0.1193E+02  0.9257E+02
      1.561  0.1024E+02  0.9389E+02
      1.674  0.1060E+02  0.9513E+02
      1.787  0.9149E+01  0.9621E+02
      1.900  0.9519E+01  0.9726E+02
      2.013  0.9782E+01  0.9835E+02
      2.126  0.9512E+01  0.9943E+02
      2.239  0.9823E+01  0.1006E+03
      2.352  0.9858E+01  0.1017E+03
      2.466  0.1022E+02  0.1028E+03
      2.579  0.1051E+02  0.1040E+03
      2.692  0.1038E+02  0.1052E+03
      2.805  0.9886E+01  0.1063E+03
      2.918  0.9126E+01  0.1074E+03
      3.031  0.8919E+01  0.1084E+03
      3.144  0.8045E+01  0.1094E+03
      3.257  0.8049E+01  0.1103E+03
      3.370  0.8795E+01  0.1112E+03
      3.483  0.1124E+02  0.1124E+03
      3.596  0.1022E+02  0.1136E+03
      3.709  0.8704E+01  0.1147E+03
      3.822  0.7413E+01  0.1156E+03
      3.935  0.5861E+01  0.1163E+03
      4.048  0.5329E+01  0.1169E+03
      4.161  0.5674E+01  0.1176E+03
      4.274  0.4308E+01  0.1181E+03
      4.387  0.3773E+01  0.1186E+03
      4.500  0.3972E+01  0.1190E+03
      4.613  0.4703E+01  0.1195E+03
      4.726  0.5783E+01  0.1201E+03
      4.839  0.6727E+01  0.1208E+03
      4.952  0.9983E+01  0.1217E+03
      5.065  0.6658E+01  0.1227E+03
      5.178  0.6214E+01  0.1234E+03
      5.292  0.4863E+01  0.1240E+03
      5.405  0.5868E+01  0.1246E+03
      5.518  0.3537E+01  0.1251E+03
      5.631  0.3742E+01  0.1255E+03
      5.744  0.3623E+01  0.1259E+03
      5.857  0.3243E+01  0.1263E+03
      5.970  0.2882E+01  0.1267E+03
      6.083  0.2446E+01  0.1270E+03
      6.196  0.2032E+01  0.1272E+03
      6.309  0.1876E+01  0.1274E+03
      6.422  0.2494E+01  0.1277E+03
      6.535  0.1287E+01  0.1279E+03
      6.648  0.2716E+00  0.1280E+03
      6.761  0.6124E-02  0.1280E+03
      6.874  0.9570E-01  0.1280E+03
      6.987  0.3096E+00  0.1280E+03
      7.100  0.5316E+00  0.1281E+03
      7.213  0.7591E+00  0.1281E+03
      7.326  0.9775E+00  0.1282E+03
      7.439  0.1068E+01  0.1284E+03
      7.552  0.1179E+01  0.1285E+03
      7.665  0.1326E+01  0.1286E+03
      7.778  0.1502E+01  0.1288E+03
      7.891  0.1650E+01  0.1290E+03
      8.004  0.1804E+01  0.1292E+03
      8.118  0.2609E+01  0.1294E+03
      8.231  0.3116E+01  0.1297E+03
      8.344  0.4041E+01  0.1301E+03
      8.457  0.7007E+01  0.1307E+03
      8.570  0.9549E+01  0.1317E+03
      8.683  0.7000E+01  0.1327E+03
      8.796  0.6893E+01  0.1335E+03
      8.909  0.6012E+01  0.1342E+03
      9.022  0.6492E+01  0.1349E+03
      9.135  0.6565E+01  0.1356E+03
      9.248  0.6001E+01  0.1364E+03
      9.361  0.5177E+01  0.1370E+03
      9.474  0.4716E+01  0.1375E+03
      9.587  0.4461E+01  0.1381E+03
      9.700  0.4128E+01  0.1385E+03
      9.813  0.4278E+01  0.1390E+03
      9.926  0.4827E+01  0.1395E+03
     10.039  0.5206E+01  0.1401E+03
     10.152  0.4312E+01  0.1406E+03
     10.265  0.3815E+01  0.1411E+03
     10.378  0.3815E+01  0.1415E+03
     10.491  0.4185E+01  0.1420E+03
     10.604  0.4599E+01  0.1425E+03
     10.717  0.4219E+01  0.1430E+03
     10.830  0.3950E+01  0.1434E+03
     10.944  0.3768E+01  0.1439E+03
     11.057  0.3570E+01  0.1443E+03
     11.170  0.3474E+01  0.1447E+03
     11.283  0.3416E+01  0.1451E+03
     11.396  0.3388E+01  0.1455E+03
     11.509  0.3255E+01  0.1458E+03
     11.622  0.3202E+01  0.1462E+03
     11.735  0.3137E+01  0.1466E+03
     11.848  0.3075E+01  0.1469E+03
     11.961  0.3056E+01  0.1473E+03
     12.074  0.3004E+01  0.1476E+03
     12.187  0.3085E+01  0.1479E+03
     12.300  0.3021E+01  0.1483E+03
     12.413  0.2848E+01  0.1486E+03
     12.526  0.3358E+01  0.1490E+03
     12.639  0.3206E+01  0.1494E+03
     12.752  0.3159E+01  0.1497E+03
     12.865  0.2707E+01  0.1501E+03
     12.978  0.2159E+01  0.1503E+03
     13.091  0.1707E+01  0.1506E+03
     13.204  0.2099E+01  0.1508E+03
     13.317  0.2417E+01  0.1510E+03
     13.430  0.2758E+01  0.1513E+03
     13.543  0.4073E+01  0.1517E+03
     13.656  0.3079E+01  0.1521E+03
     13.770  0.3811E+01  0.1525E+03
     13.883  0.5027E+01  0.1530E+03
     13.996  0.6009E+01  0.1536E+03
     14.109  0.6808E+01  0.1543E+03
     14.222  0.6536E+01  0.1551E+03
     14.335  0.5978E+01  0.1558E+03
     14.448  0.7522E+01  0.1565E+03
     14.561  0.9872E+01  0.1575E+03
     14.674  0.9076E+01  0.1586E+03
     14.787  0.1098E+02  0.1597E+03
     14.900  0.1207E+02  0.1610E+03
     15.013  0.1108E+02  0.1623E+03
     15.126  0.1287E+02  0.1636E+03
     15.239  0.1239E+02  0.1649E+03
     15.352  0.6843E+01  0.1659E+03
     15.465  0.3950E+01  0.1666E+03
     15.578  0.2756E+01  0.1669E+03
     15.691  0.2178E+01  0.1672E+03
     15.804  0.1798E+01  0.1674E+03
     15.917  0.1343E+01  0.1676E+03
     16.030  0.1114E+01  0.1677E+03
     16.143  0.8423E+00  0.1678E+03
     16.256  0.5606E+00  0.1679E+03
     16.369  0.3087E+00  0.1680E+03
     16.482  0.9395E-01  0.1680E+03
     16.596  0.4338E-02  0.1680E+03
     16.709  0.0000E+00  0.1680E+03
     16.822  0.0000E+00  0.1680E+03
     16.935  0.0000E+00  0.1680E+03
     17.048  0.0000E+00  0.1680E+03
     17.161  0.0000E+00  0.1680E+03
     17.274  0.0000E+00  0.1680E+03
     17.387  0.0000E+00  0.1680E+03
     17.500  0.0000E+00  0.1680E+03
     17.613  0.0000E+00  0.1680E+03
     17.726  0.0000E+00  0.1680E+03
     17.839  0.0000E+00  0.1680E+03
     17.952  0.0000E+00  0.1680E+03
     18.065  0.0000E+00  0.1680E+03
     18.178  0.0000E+00  0.1680E+03
     18.291  0.0000E+00  0.1680E+03
     18.404  0.0000E+00  0.1680E+03
     18.517  0.0000E+00  0.1680E+03
     18.630  0.0000E+00  0.1680E+03
