   32   32    1    1
  0.7090409E+01  0.4934311E-09  0.4934311E-09  0.1076119E-08  0.5000000E-15
  1.000000000000000E-004
  CAR 
 graphite                                
    128    163     84
 
  0.0000000E+00  0.0000000E+00  0.0000000E+00  0.3086420E-02
    1      -13.281773
    2      -12.692419
    3      -12.690601
    4      -11.936601
    5       -7.769356
    6       -7.767778
    7       -7.766451
    8       -7.413987
    9       -7.409533
   10       -7.409024
   11       -7.408380
   12       -7.407898
   13       -7.403736
   14       -7.309543
   15       -7.306723
   16       -7.303167
   17       -6.369067
   18       -6.365731
   19       -6.364948
   20       -6.364264
   21       -6.363582
   22       -6.360864
   23       -6.303957
   24       -6.301950
   25       -6.299232
   26       -6.000252
   27       -5.998641
   28       -5.998414
   29       -2.930132
   30       -0.610582
   31       -0.606622
   32        0.335973
   33        0.338684
   34        0.339838
   35        0.514945
   36        0.517954
   37        0.518041
   38        0.519393
   39        0.521182
   40        0.523056
   41        0.705658
   42        0.708409
   43        0.709712
   44        2.313615
   45        3.087102
   46        3.088179
   47        3.089205
   48        3.828554
   49        3.832832
   50        3.897016
   51        3.900380
   52        3.905205
   53        3.908512
   54        3.972562
   55        3.977090
   56        4.531017
   57        4.538317
   58        4.538763
   59        4.539271
   60        4.539993
   61        4.546873
   62        4.751121
   63        4.753892
   64        4.756360
   65        8.484492
   66        8.491284
   67        8.492882
   68        8.493358
   69        8.493620
   70        8.500664
   71        9.121575
   72        9.124134
   73        9.126703
   74        9.956240
   75        9.958284
   76        9.959127
   77       13.433200
   78       13.437509
   79       13.440668
   80       14.196270
   81       14.202310
   82       14.204116
   83       14.206725
   84       14.208547
 
  0.1111111E+00 -0.6938894E-17  0.0000000E+00  0.6172840E-02
    1      -13.206539
    2      -12.618860
    3      -12.617047
    4      -11.865912
    5       -8.638444
    6       -8.170223
    7       -8.168739
    8       -8.062573
    9       -8.060280
   10       -7.636520
   11       -7.633136
   12       -7.632313
   13       -7.631091
   14       -7.624629
   15       -7.233215
   16       -7.229014
   17       -6.270111
   18       -6.267603
   19       -6.021393
   20       -6.020273
   21       -6.019369
   22       -6.016678
   23       -5.861818
   24       -5.574423
   25       -5.572678
   26       -5.496711
   27       -5.494241
   28       -5.032593
   29       -2.839417
   30       -0.525576
   31       -0.521619
   32        0.096801
   33        0.099724
   34        0.288578
   35        0.291082
   36        0.293543
   37        0.294198
   38        0.411627
   39        0.495617
   40        0.498573
   41        0.590319
   42        0.593586
   43        0.780116
   44        2.390885
   45        2.416408
   46        2.942718
   47        2.944380
   48        3.507283
   49        3.597530
   50        3.603998
   51        3.660466
   52        3.694721
   53        3.744674
   54        3.751291
   55        3.836289
   56        4.122200
   57        4.127416
   58        4.482276
   59        4.488912
   60        4.490008
   61        4.492642
   62        4.965777
   63        4.969318
   64        5.175260
   65        8.616254
   66        8.619230
   67        8.620610
   68        8.626965
   69        8.872720
   70        8.995852
   71        8.998033
   72        9.014083
   73        9.019417
   74       10.106121
   75       10.108337
   76       10.672185
   77       13.485263
   78       13.781931
   79       13.787714
   80       14.249026
   81       14.251391
   82       14.530432
   83       14.534373
   84       14.541229
 
  0.2222222E+00 -0.2775558E-16  0.0000000E+00  0.6172840E-02
    1      -12.981157
    2      -12.398501
    3      -12.396702
    4      -11.654219
    5       -9.680259
    6       -9.176252
    7       -9.174675
    8       -8.561925
    9       -8.435737
   10       -8.433604
   11       -7.974464
   12       -7.972000
   13       -7.971322
   14       -7.969383
   15       -7.438710
   16       -7.435822
   17       -5.683573
   18       -5.681760
   19       -5.327812
   20       -5.326718
   21       -5.325692
   22       -5.323169
   23       -4.877921
   24       -4.875884
   25       -4.535096
   26       -4.169291
   27       -4.166880
   28       -3.737716
   29       -2.567967
   30       -0.538702
   31       -0.536035
   32       -0.319213
   33       -0.316704
   34       -0.314647
   35       -0.313765
   36       -0.271390
   37       -0.267442
   38       -0.074486
   39       -0.071741
   40        0.628856
   41        0.804914
   42        0.808255
   43        0.991969
   44        1.312404
   45        2.621130
   46        2.637585
   47        2.669311
   48        2.671237
   49        2.775372
   50        2.780807
   51        2.920741
   52        3.215744
   53        3.253998
   54        3.258575
   55        3.328121
   56        3.334033
   57        3.448587
   58        4.365417
   59        4.371948
   60        4.372922
   61        4.375754
   62        5.276238
   63        5.423718
   64        5.427257
   65        8.791291
   66        8.793286
   67        8.938746
   68        8.941849
   69        8.943275
   70        8.950041
   71        9.327653
   72       10.199902
   73       10.205336
   74       10.356925
   75       10.360068
   76       11.848633
   77       13.629262
   78       14.388054
   79       14.390551
   80       14.517007
   81       14.737805
   82       14.742820
   83       15.122163
   84       15.184968
 
  0.3333333E+00 -0.5551115E-16  0.0000000E+00  0.6172840E-02
    1      -12.606861
    2      -12.032507
    3      -12.030732
    4      -11.302485
    5      -10.615443
    6      -10.087200
    7      -10.085552
    8       -9.433552
    9       -8.703611
   10       -8.701603
   11       -8.228885
   12       -8.226638
   13       -8.226073
   14       -8.224098
   15       -7.660339
   16       -7.657925
   17       -4.867432
   18       -4.865438
   19       -4.519401
   20       -4.518349
   21       -4.517251
   22       -4.514410
   23       -4.112306
   24       -4.110002
   25       -3.070045
   26       -2.738233
   27       -2.735593
   28       -2.356007
   29       -2.117814
   30       -1.373855
   31       -1.371559
   32       -1.138257
   33       -1.135511
   34       -1.134228
   35       -1.132942
   36       -0.856886
   37       -0.854434
   38        0.147251
   39        0.151110
   40        0.243709
   41        0.981800
   42        1.153059
   43        1.156595
   44        1.335051
   45        1.402917
   46        1.596281
   47        1.600740
   48        1.797424
   49        2.321750
   50        2.326024
   51        2.437333
   52        2.439316
   53        2.632052
   54        2.767783
   55        2.773025
   56        2.912652
   57        2.997983
   58        4.245681
   59        4.252096
   60        4.252977
   61        4.255975
   62        4.780056
   63        5.874708
   64        5.878219
   65        8.659149
   66        8.661241
   67        9.313418
   68        9.316723
   69        9.318067
   70        9.324979
   71       10.527725
   72       10.531419
   73       10.620017
   74       11.623994
   75       11.629229
   76       13.125928
   77       13.858536
   78       14.617339
   79       14.620180
   80       14.699604
   81       14.944471
   82       14.949687
   83       14.989327
   84       15.249919
 
  0.4444444E+00 -0.5551115E-16  0.0000000E+00  0.6172840E-02
    1      -12.085454
    2      -11.522856
    3      -11.521118
    4      -11.419843
    5      -10.872694
    6      -10.870991
    7      -10.812560
    8      -10.187953
    9       -8.841139
   10       -8.839190
   11       -8.360550
   12       -8.358374
   13       -8.357874
   14       -8.355875
   15       -7.781386
   16       -7.779128
   17       -4.061449
   18       -4.059213
   19       -3.782868
   20       -3.781921
   21       -3.781335
   22       -3.777106
   23       -3.522811
   24       -3.520187
   25       -2.049737
   26       -2.047885
   27       -1.905390
   28       -1.901967
   29       -1.901393
   30       -1.899935
   31       -1.640169
   32       -1.638167
   33       -1.549489
   34       -1.493101
   35       -1.261811
   36       -1.258894
   37       -0.933857
   38       -0.701474
   39       -0.032281
   40        0.196688
   41        0.200186
   42        0.475893
   43        0.745632
   44        0.749955
   45        1.454676
   46        1.466002
   47        1.470181
   48        1.618356
   49        1.622171
   50        1.792694
   51        2.020120
   52        2.172637
   53        2.177041
   54        2.311086
   55        2.313024
   56        2.335629
   57        3.508315
   58        4.124745
   59        4.173666
   60        4.179927
   61        4.180772
   62        4.183903
   63        6.146665
   64        6.150206
   65        8.617454
   66        8.620160
   67        9.567120
   68        9.570567
   69        9.571797
   70        9.578936
   71       10.586296
   72       10.590409
   73       12.237140
   74       13.069261
   75       13.074843
   76       13.898195
   77       14.153331
   78       14.289113
   79       14.295138
   80       14.421986
   81       14.474540
   82       14.945273
   83       14.948986
   84       15.322410
 
  0.1694066E-20  0.1111111E+00  0.0000000E+00  0.6172840E-02
    1      -13.206537
    2      -12.618858
    3      -12.617045
    4      -11.865909
    5       -8.638513
    6       -8.170381
    7       -8.168915
    8       -8.062892
    9       -8.059685
   10       -7.636521
   11       -7.633240
   12       -7.632492
   13       -7.630555
   14       -7.624279
   15       -7.232060
   16       -7.229370
   17       -6.270969
   18       -6.268591
   19       -6.023849
   20       -6.020941
   21       -6.019441
   22       -6.016467
   23       -5.860442
   24       -5.576005
   25       -5.572450
   26       -5.494904
   27       -5.493645
   28       -5.031492
   29       -2.839421
   30       -0.525582
   31       -0.521625
   32        0.098437
   33        0.099549
   34        0.290615
   35        0.291160
   36        0.294004
   37        0.294552
   38        0.410193
   39        0.497288
   40        0.498397
   41        0.590139
   42        0.590799
   43        0.778546
   44        2.390928
   45        2.415706
   46        2.942688
   47        2.945293
   48        3.510534
   49        3.603109
   50        3.604042
   51        3.657818
   52        3.697381
   53        3.744644
   54        3.745699
   55        3.832847
   56        4.121368
   57        4.125925
   58        4.483665
   59        4.488874
   60        4.489536
   61        4.494748
   62        4.966259
   63        4.970248
   64        5.173540
   65        8.613372
   66        8.618558
   67        8.620571
   68        8.625466
   69        8.875552
   70        8.994279
   71        8.998178
   72        9.016304
   73        9.020782
   74       10.104001
   75       10.108050
   76       10.673920
   77       13.484497
   78       13.783523
   79       13.786947
   80       14.249644
   81       14.250970
   82       14.519990
   83       14.536299
   84       14.539411
 
  0.1111111E+00  0.1111111E+00  0.0000000E+00  0.6172840E-02
    1      -13.056218
    2      -12.471859
    3      -12.470056
    4      -11.724727
    5       -9.119447
    6       -9.115867
    7       -8.633136
    8       -8.629306
    9       -8.629287
   10       -8.625431
   11       -8.046177
   12       -8.042322
   13       -7.574772
   14       -7.221977
   15       -7.220008
   16       -7.116838
   17       -6.181489
   18       -6.177636
   19       -6.117242
   20       -5.827644
   21       -5.185785
   22       -5.181910
   23       -4.814251
   24       -4.809247
   25       -4.809187
   26       -4.806120
   27       -4.364760
   28       -4.360654
   29       -2.658337
   30       -0.614042
   31       -0.392016
   32       -0.389151
   33       -0.355868
   34       -0.351920
   35       -0.145475
   36        0.244220
   37        0.247286
   38        0.434648
   39        0.436309
   40        0.436400
   41        0.441136
   42        0.638297
   43        0.641638
   44        1.933741
   45        1.936385
   46        2.544753
   47        2.964693
   48        3.064609
   49        3.070867
   50        3.128538
   51        3.347179
   52        3.386532
   53        3.429310
   54        3.435960
   55        3.524055
   56        3.770488
   57        3.774660
   58        3.774833
   59        3.780628
   60        4.795620
   61        4.801361
   62        4.994107
   63        5.384752
   64        5.388249
   65        8.416616
   66        8.423424
   67        8.945935
   68        8.950034
   69        9.172486
   70        9.538132
   71        9.544488
   72        9.545304
   73        9.546147
   74        9.551007
   75       11.153799
   76       11.156724
   77       13.878392
   78       13.883046
   79       14.460304
   80       14.624309
   81       14.629242
   82       14.629440
   83       14.635138
   84       14.692418
 
  0.2222222E+00  0.1111111E+00  0.0000000E+00  0.6172840E-02
    1      -12.756332
    2      -12.178732
    3      -12.176947
    4      -11.442966
    5      -10.109645
    6       -9.594202
    7       -9.592585
    8       -9.468762
    9       -8.970712
   10       -8.969095
   11       -8.960400
   12       -8.364640
   13       -7.665463
   14       -7.249541
   15       -7.247990
   16       -6.859617
   17       -5.910732
   18       -5.676078
   19       -5.672660
   20       -5.258349
   21       -4.382226
   22       -4.028071
   23       -4.026857
   24       -3.778255
   25       -3.615815
   26       -3.430945
   27       -3.428585
   28       -3.028164
   29       -2.297466
   30       -1.549554
   31       -1.300584
   32       -1.297782
   33       -1.010870
   34       -0.306067
   35       -0.092933
   36       -0.092100
   37       -0.019171
   38       -0.015250
   39        0.144069
   40        0.537388
   41        0.722136
   42        0.725386
   43        0.830205
   44        0.921584
   45        1.567596
   46        1.970586
   47        2.115615
   48        2.121667
   49        2.244786
   50        2.798822
   51        2.843615
   52        2.846566
   53        2.850681
   54        2.886639
   55        2.893364
   56        3.010785
   57        3.451992
   58        3.493144
   59        3.497336
   60        4.994863
   61        5.000433
   62        5.127288
   63        5.454409
   64        5.510561
   65        8.418313
   66        8.424868
   67        8.750693
   68        9.231450
   69        9.550538
   70        9.884377
   71       10.095690
   72       10.100170
   73       10.869380
   74       10.874447
   75       11.479270
   76       12.375937
   77       14.069148
   78       14.719380
   79       14.811722
   80       14.814078
   81       14.882149
   82       15.209968
   83       15.248427
   84       15.257532
 
  0.3333333E+00  0.1111111E+00  0.0000000E+00  0.6172840E-02
    1      -12.308510
    2      -11.740857
    3      -11.739102
    4      -11.022276
    5      -10.979899
    6      -10.442995
    7      -10.441323
    8       -9.775297
    9       -9.682159
   10       -9.177744
   11       -9.176159
   12       -8.561867
   13       -7.830149
   14       -7.386262
   15       -7.384838
   16       -6.877227
   17       -5.217558
   18       -4.903018
   19       -4.899798
   20       -4.532720
   21       -3.542612
   22       -3.234670
   23       -3.233053
   24       -2.900614
   25       -2.472529
   26       -2.290841
   27       -2.244752
   28       -2.241788
   29       -1.985078
   30       -1.982383
   31       -1.936322
   32       -1.759900
   33       -1.636918
   34       -1.001060
   35       -0.799411
   36       -0.797848
   37       -0.541544
   38       -0.181376
   39        0.468956
   40        0.472376
   41        0.670414
   42        0.889774
   43        0.894505
   44        0.961767
   45        1.086729
   46        1.137160
   47        1.140495
   48        1.327824
   49        1.340745
   50        1.941176
   51        1.945374
   52        2.131551
   53        2.265343
   54        2.270967
   55        2.421143
   56        3.293134
   57        3.314584
   58        3.318865
   59        3.407147
   60        4.508806
   61        5.084924
   62        5.090032
   63        5.555723
   64        6.164030
   65        8.068110
   66        8.526017
   67        8.531951
   68        9.588066
   69        9.710333
   70       10.533766
   71       10.538493
   72       11.373675
   73       11.601433
   74       12.313734
   75       12.318830
   76       13.644927
   77       14.331658
   78       14.578202
   79       14.777845
   80       14.784456
   81       14.887941
   82       15.076094
   83       15.079076
   84       15.238156
 
  0.4444444E+00  0.1111111E+00  0.0000000E+00  0.6172840E-02
    1      -11.716817
    2      -11.713438
    3      -11.163750
    4      -11.160186
    5      -11.160052
    6      -11.156368
    7      -10.466747
    8      -10.463156
    9       -9.753759
   10       -9.247500
   11       -9.245909
   12       -8.628368
   13       -7.890723
   14       -7.440890
   15       -7.439473
   16       -6.913588
   17       -4.658824
   18       -4.413904
   19       -4.410974
   20       -4.235244
   21       -2.990912
   22       -2.834592
   23       -2.789727
   24       -2.786866
   25       -2.776249
   26       -2.772623
   27       -2.620926
   28       -2.553570
   29       -1.303502
   30       -1.242256
   31       -1.238485
   32       -1.052870
   33       -1.049918
   34       -1.034455
   35       -0.786070
   36       -0.782529
   37       -0.533303
   38       -0.526794
   39       -0.526522
   40       -0.525906
   41       -0.243386
   42       -0.239804
   43        1.143507
   44        1.147377
   45        1.147840
   46        1.153196
   47        1.263127
   48        1.499776
   49        1.505286
   50        1.661988
   51        1.663758
   52        1.663828
   53        1.673833
   54        1.837282
   55        1.843667
   56        3.253308
   57        3.257614
   58        3.378064
   59        3.858542
   60        3.862051
   61        5.107728
   62        5.112444
   63        5.564066
   64        6.664793
   65        7.593950
   66        8.587279
   67        8.592439
   68        9.762092
   69        9.769783
   70       10.704328
   71       10.709394
   72       11.607780
   73       13.006378
   74       13.010830
   75       13.696155
   76       13.703249
   77       13.704955
   78       13.707192
   79       14.633518
   80       14.637082
   81       14.906826
   82       14.910844
   83       15.423073
   84       15.449101
 
 -0.4444444E+00  0.1111111E+00  0.0000000E+00  0.6172840E-02
    1      -12.308594
    2      -11.740941
    3      -11.739186
    4      -11.022359
    5      -10.979763
    6      -10.442857
    7      -10.441185
    8       -9.775127
    9       -9.682394
   10       -9.177954
   11       -9.176370
   12       -8.562085
   13       -7.829819
   14       -7.385848
   15       -7.384459
   16       -6.876653
   17       -5.217215
   18       -4.901599
   19       -4.900216
   20       -4.532251
   21       -3.543572
   22       -3.236387
   23       -3.233099
   24       -2.901327
   25       -2.473403
   26       -2.291200
   27       -2.244796
   28       -2.243687
   29       -1.985639
   30       -1.982530
   31       -1.937326
   32       -1.760003
   33       -1.637294
   34       -0.999964
   35       -0.799260
   36       -0.795581
   37       -0.540310
   38       -0.181220
   39        0.468877
   40        0.472285
   41        0.670776
   42        0.890871
   43        0.894066
   44        0.962168
   45        1.087034
   46        1.137261
   47        1.141228
   48        1.328140
   49        1.340566
   50        1.941306
   51        1.945522
   52        2.131142
   53        2.265834
   54        2.269564
   55        2.420661
   56        3.292837
   57        3.314389
   58        3.318648
   59        3.407403
   60        4.508939
   61        5.085769
   62        5.090367
   63        5.555022
   64        6.166088
   65        8.066419
   66        8.526451
   67        8.531132
   68        9.588106
   69        9.710163
   70       10.533252
   71       10.538636
   72       11.373678
   73       11.601671
   74       12.313370
   75       12.318794
   76       13.644553
   77       14.331427
   78       14.578030
   79       14.778341
   80       14.784109
   81       14.887857
   82       15.075641
   83       15.079156
   84       15.238237
 
 -0.3333333E+00  0.1111111E+00  0.0000000E+00  0.6172840E-02
    1      -12.756393
    2      -12.178792
    3      -12.177007
    4      -11.443025
    5      -10.109480
    6       -9.594011
    7       -9.592400
    8       -9.469208
    9       -8.970742
   10       -8.969180
   11       -8.960987
   12       -8.365093
   13       -7.664735
   14       -7.248463
   15       -7.247208
   16       -6.858157
   17       -5.911052
   18       -5.674715
   19       -5.673657
   20       -5.258005
   21       -4.383099
   22       -4.029703
   23       -4.026921
   24       -3.778562
   25       -3.616611
   26       -3.431414
   27       -3.428808
   28       -3.028508
   29       -2.297540
   30       -1.550813
   31       -1.300882
   32       -1.300039
   33       -1.012135
   34       -0.304552
   35       -0.092633
   36       -0.089360
   37       -0.019247
   38       -0.015330
   39        0.145567
   40        0.537658
   41        0.722265
   42        0.725767
   43        0.830382
   44        0.921816
   45        1.567149
   46        1.970914
   47        2.117567
   48        2.120233
   49        2.244900
   50        2.798762
   51        2.843760
   52        2.846608
   53        2.850739
   54        2.888118
   55        2.891207
   56        3.010276
   57        3.452406
   58        3.492474
   59        3.496860
   60        4.996368
   61        5.001062
   62        5.127429
   63        5.456735
   64        5.509148
   65        8.418941
   66        8.423554
   67        8.749095
   68        9.231801
   69        9.550186
   70        9.884407
   71       10.094883
   72       10.100505
   73       10.869007
   74       10.874397
   75       11.479565
   76       12.375548
   77       14.068964
   78       14.719147
   79       14.811449
   80       14.814249
   81       14.885585
   82       15.209647
   83       15.251848
   84       15.255163
 
 -0.2222222E+00  0.1111111E+00  0.0000000E+00  0.6172840E-02
    1      -13.056254
    2      -12.471895
    3      -12.470091
    4      -11.724762
    5       -9.118248
    6       -9.117473
    7       -8.630989
    8       -8.629592
    9       -8.629460
   10       -8.628066
   11       -8.045025
   12       -8.044056
   13       -7.573464
   14       -7.219827
   15       -7.218933
   16       -7.115301
   17       -6.180185
   18       -6.179588
   19       -6.117573
   20       -5.827892
   21       -5.184669
   22       -5.183874
   23       -4.811993
   24       -4.810913
   25       -4.809508
   26       -4.808288
   27       -4.363566
   28       -4.362823
   29       -2.658382
   30       -0.615481
   31       -0.392405
   32       -0.391654
   33       -0.355907
   34       -0.351960
   35       -0.146901
   36        0.246637
   37        0.246706
   38        0.436256
   39        0.436549
   40        0.439433
   41        0.439783
   42        0.640718
   43        0.640893
   44        1.934154
   45        1.935512
   46        2.544706
   47        2.964723
   48        3.067401
   49        3.067885
   50        3.128248
   51        3.347798
   52        3.387050
   53        3.432430
   54        3.432918
   55        3.523742
   56        3.770115
   57        3.774632
   58        3.774918
   59        3.779474
   60        4.797444
   61        4.802253
   62        4.996437
   63        5.383678
   64        5.387375
   65        8.417285
   66        8.421948
   67        8.946772
   68        8.950030
   69        9.171450
   70        9.538630
   71        9.543409
   72        9.544661
   73        9.546798
   74        9.550255
   75       11.154004
   76       11.156465
   77       13.881042
   78       13.883980
   79       14.566140
   80       14.629115
   81       14.631422
   82       14.632639
   83       14.638953
   84       14.692049
 
 -0.1111111E+00  0.1111111E+00  0.0000000E+00  0.6172840E-02
    1      -13.206549
    2      -12.618870
    3      -12.617057
    4      -11.865921
    5       -8.639353
    6       -8.171279
    7       -8.169791
    8       -8.061688
    9       -8.059618
   10       -7.635094
   11       -7.632637
   12       -7.632190
   13       -7.629817
   14       -7.625562
   15       -7.231847
   16       -7.227863
   17       -6.271556
   18       -6.268415
   19       -6.023256
   20       -6.019936
   21       -6.019465
   22       -6.018417
   23       -5.860711
   24       -5.575304
   25       -5.573246
   26       -5.496125
   27       -5.493305
   28       -5.031902
   29       -2.839436
   30       -0.525597
   31       -0.521640
   32        0.096869
   33        0.099617
   34        0.289678
   35        0.291014
   36        0.291120
   37        0.295601
   38        0.411781
   39        0.495613
   40        0.498653
   41        0.590525
   42        0.593544
   43        0.780115
   44        2.390855
   45        2.414987
   46        2.943632
   47        2.945265
   48        3.509994
   49        3.600476
   50        3.606577
   51        3.657677
   52        3.697731
   53        3.742120
   54        3.748226
   55        3.833215
   56        4.119943
   57        4.125056
   58        4.485666
   59        4.488542
   60        4.489363
   61        4.496073
   62        4.967876
   63        4.970849
   64        5.171314
   65        8.612603
   66        8.620035
   67        8.620782
   68        8.623858
   69        8.876328
   70        8.993885
   71        8.997635
   72        9.015398
   73        9.022185
   74       10.104134
   75       10.106943
   76       10.674375
   77       13.488277
   78       13.781076
   79       13.785482
   80       14.251591
   81       14.254214
   82       14.526066
   83       14.535163
   84       14.540333
 
  0.0000000E+00  0.2222222E+00  0.0000000E+00  0.6172840E-02
    1      -12.981149
    2      -12.398492
    3      -12.396693
    4      -11.654209
    5       -9.680227
    6       -9.176237
    7       -9.174662
    8       -8.561963
    9       -8.436318
   10       -8.432960
   11       -7.975138
   12       -7.972055
   13       -7.971463
   14       -7.968215
   15       -7.438720
   16       -7.435466
   17       -5.685079
   18       -5.681749
   19       -5.330485
   20       -5.327355
   21       -5.325700
   22       -5.322471
   23       -4.879508
   24       -4.875594
   25       -4.533960
   26       -4.167587
   27       -4.166394
   28       -3.736606
   29       -2.567985
   30       -0.537503
   31       -0.535671
   32       -0.317741
   33       -0.316658
   34       -0.313990
   35       -0.312841
   36       -0.271418
   37       -0.267477
   38       -0.073300
   39       -0.071373
   40        0.627347
   41        0.804693
   42        0.805317
   43        0.990313
   44        1.312008
   45        2.621063
   46        2.640349
   47        2.669048
   48        2.672354
   49        2.780474
   50        2.781060
   51        2.923336
   52        3.213169
   53        3.253472
   54        3.257753
   55        3.327994
   56        3.328531
   57        3.445491
   58        4.366504
   59        4.371906
   60        4.372483
   61        4.377867
   62        5.274686
   63        5.424342
   64        5.428291
   65        8.789266
   66        8.793319
   67        8.935894
   68        8.941349
   69        8.943107
   70        8.948664
   71        9.330198
   72       10.202033
   73       10.206406
   74       10.354714
   75       10.359373
   76       11.850041
   77       13.628447
   78       14.387454
   79       14.389493
   80       14.515871
   81       14.738348
   82       14.742310
   83       15.056827
   84       15.178038
 
  0.1111111E+00  0.2222222E+00  0.0000000E+00  0.6172840E-02
    1      -12.756326
    2      -12.178725
    3      -12.176941
    4      -11.442958
    5      -10.109596
    6       -9.594157
    7       -9.592543
    8       -9.468807
    9       -8.970737
   10       -8.969105
   11       -8.960394
   12       -8.364638
   13       -7.665453
   14       -7.249514
   15       -7.247982
   16       -6.859608
   17       -5.910751
   18       -5.676080
   19       -5.672867
   20       -5.258538
   21       -4.383434
   22       -4.029855
   23       -4.027483
   24       -3.777060
   25       -3.617083
   26       -3.429155
   27       -3.427974
   28       -3.026907
   29       -2.297480
   30       -1.549416
   31       -1.300394
   32       -1.297778
   33       -1.010799
   34       -0.304483
   35       -0.092359
   36       -0.089483
   37       -0.019192
   38       -0.015277
   39        0.145692
   40        0.535757
   41        0.721754
   42        0.722418
   43        0.829866
   44        0.919853
   45        1.568036
   46        1.972225
   47        2.118211
   48        2.121678
   49        2.245409