  16  16   0   0
  0.6078360E+01  0.5161871E-09  0.5161871E-09  0.5161871E-09  0.5000000E-15
  1.000000000000000E-004
  CAR 
 diamond                                 
     20.33568422    -13.79005433  301      8.85379510      1.00000000
    -13.790  0.0000E+00  0.0000E+00
    -13.676  0.0000E+00  0.0000E+00
    -13.563  0.0000E+00  0.0000E+00
    -13.449  0.0000E+00  0.0000E+00
    -13.335  0.0000E+00  0.0000E+00
    -13.221  0.0000E+00  0.0000E+00
    -13.108  0.0000E+00  0.0000E+00
    -12.994  0.0000E+00  0.0000E+00
    -12.880  0.0000E+00  0.0000E+00
    -12.766  0.0000E+00  0.0000E+00
    -12.653  0.0000E+00  0.0000E+00
    -12.539  0.0000E+00  0.0000E+00
    -12.425  0.0000E+00  0.0000E+00
    -12.311  0.0000E+00  0.0000E+00
    -12.198  0.0000E+00  0.0000E+00
    -12.084  0.0000E+00  0.0000E+00
    -11.970  0.0000E+00  0.0000E+00
    -11.856  0.0000E+00  0.0000E+00
    -11.743  0.1896E-01  0.3005E-03
    -11.629  0.2182E+00  0.1173E-01
    -11.515  0.4329E+00  0.5101E-01
    -11.401  0.5370E+00  0.1073E+00
    -11.288  0.6164E+00  0.1723E+00
    -11.174  0.7080E+00  0.2477E+00
    -11.060  0.7798E+00  0.3327E+00
    -10.946  0.8359E+00  0.4244E+00
    -10.832  0.9136E+00  0.5237E+00
    -10.719  0.1008E+01  0.6328E+00
    -10.605  0.1143E+01  0.7547E+00
    -10.491  0.1340E+01  0.8955E+00
    -10.377  0.1565E+01  0.1060E+01
    -10.264  0.1769E+01  0.1253E+01
    -10.150  0.1420E+01  0.1436E+01
    -10.036  0.1319E+01  0.1590E+01
     -9.922  0.1226E+01  0.1736E+01
     -9.809  0.1070E+01  0.1867E+01
     -9.695  0.8703E+00  0.1978E+01
     -9.581  0.9157E+00  0.2079E+01
     -9.467  0.1186E+01  0.2199E+01
     -9.354  0.1489E+01  0.2348E+01
     -9.240  0.2175E+01  0.2552E+01
     -9.126  0.2028E+01  0.2792E+01
     -9.012  0.1673E+01  0.3000E+01
     -8.899  0.1527E+01  0.3180E+01
     -8.785  0.1629E+01  0.3360E+01
     -8.671  0.1725E+01  0.3547E+01
     -8.557  0.1843E+01  0.3751E+01
     -8.444  0.1862E+01  0.3961E+01
     -8.330  0.1963E+01  0.4179E+01
     -8.216  0.2036E+01  0.4407E+01
     -8.102  0.2035E+01  0.4638E+01
     -7.989  0.2081E+01  0.4872E+01
     -7.875  0.2163E+01  0.5113E+01
     -7.761  0.2099E+01  0.5357E+01
     -7.647  0.2092E+01  0.5596E+01
     -7.534  0.2075E+01  0.5833E+01
     -7.420  0.2388E+01  0.6081E+01
     -7.306  0.2492E+01  0.6371E+01
     -7.192  0.2483E+01  0.6654E+01
     -7.079  0.2595E+01  0.6937E+01
     -6.965  0.2713E+01  0.7241E+01
     -6.851  0.2941E+01  0.7559E+01
     -6.737  0.3245E+01  0.7911E+01
     -6.624  0.3627E+01  0.8301E+01
     -6.510  0.4119E+01  0.8740E+01
     -6.396  0.4724E+01  0.9266E+01
     -6.282  0.3074E+01  0.9701E+01
     -6.169  0.1998E+01  0.9982E+01
     -6.055  0.1747E+01  0.1019E+02
     -5.941  0.1918E+01  0.1038E+02
     -5.827  0.2160E+01  0.1062E+02
     -5.714  0.2594E+01  0.1088E+02
     -5.600  0.2934E+01  0.1120E+02
     -5.486  0.3106E+01  0.1155E+02
     -5.372  0.2715E+01  0.1188E+02
     -5.259  0.2627E+01  0.1218E+02
     -5.145  0.2504E+01  0.1247E+02
     -5.031  0.2351E+01  0.1275E+02
     -4.917  0.2225E+01  0.1300E+02
     -4.804  0.2280E+01  0.1326E+02
     -4.690  0.2477E+01  0.1353E+02
     -4.576  0.2756E+01  0.1383E+02
     -4.462  0.2852E+01  0.1415E+02
     -4.349  0.2769E+01  0.1447E+02
     -4.235  0.2695E+01  0.1478E+02
     -4.121  0.2387E+01  0.1507E+02
     -4.007  0.2042E+01  0.1532E+02
     -3.894  0.1660E+01  0.1554E+02
     -3.780  0.1438E+01  0.1572E+02
     -3.666  0.8010E+00  0.1585E+02
     -3.552  0.5848E+00  0.1592E+02
     -3.439  0.1034E+01  0.1602E+02
     -3.325  0.1248E+01  0.1615E+02
     -3.211  0.1463E+01  0.1630E+02
     -3.097  0.1645E+01  0.1648E+02
     -2.984  0.1817E+01  0.1668E+02
     -2.870  0.2176E+01  0.1690E+02
     -2.756  0.2673E+01  0.1718E+02
     -2.642  0.3609E+01  0.1753E+02
     -2.529  0.4522E+01  0.1800E+02
     -2.415  0.5134E+01  0.1855E+02
     -2.301  0.5484E+01  0.1915E+02
     -2.187  0.5831E+01  0.1979E+02
     -2.074  0.5660E+01  0.2046E+02
     -1.960  0.4839E+01  0.2106E+02
     -1.846  0.3964E+01  0.2156E+02
     -1.732  0.3127E+01  0.2196E+02
     -1.619  0.2660E+01  0.2229E+02
     -1.505  0.2502E+01  0.2258E+02
     -1.391  0.2165E+01  0.2286E+02
     -1.277  0.2301E+01  0.2311E+02
     -1.164  0.2646E+01  0.2339E+02
     -1.050  0.3059E+01  0.2371E+02
     -0.936  0.3374E+01  0.2408E+02
     -0.822  0.3377E+01  0.2446E+02
     -0.709  0.3244E+01  0.2484E+02
     -0.595  0.2975E+01  0.2519E+02
     -0.481  0.2748E+01  0.2552E+02
     -0.367  0.2555E+01  0.2582E+02
     -0.254  0.2420E+01  0.2610E+02
     -0.140  0.2436E+01  0.2638E+02
     -0.026  0.2593E+01  0.2666E+02
      0.088  0.2732E+01  0.2697E+02
      0.201  0.2784E+01  0.2728E+02
      0.315  0.2640E+01  0.2759E+02
      0.429  0.2884E+01  0.2788E+02
      0.543  0.3856E+01  0.2827E+02
      0.657  0.3482E+01  0.2869E+02
      0.770  0.3729E+01  0.2911E+02
      0.884  0.3667E+01  0.2952E+02
      0.998  0.4119E+01  0.2996E+02
      1.112  0.4909E+01  0.3051E+02
      1.225  0.4478E+01  0.3105E+02
      1.339  0.3659E+01  0.3150E+02
      1.453  0.3619E+01  0.3188E+02
      1.567  0.4630E+01  0.3235E+02
      1.680  0.4978E+01  0.3291E+02
      1.794  0.4424E+01  0.3344E+02
      1.908  0.4533E+01  0.3394E+02
      2.022  0.4817E+01  0.3447E+02
      2.135  0.5225E+01  0.3504E+02
      2.249  0.5791E+01  0.3568E+02
      2.363  0.4896E+01  0.3629E+02
      2.477  0.5323E+01  0.3686E+02
      2.590  0.5490E+01  0.3747E+02
      2.704  0.6231E+01  0.3814E+02
      2.818  0.6745E+01  0.3889E+02
      2.932  0.6937E+01  0.3967E+02
      3.045  0.8160E+01  0.4051E+02
      3.159  0.6718E+01  0.4138E+02
      3.273  0.6312E+01  0.4211E+02
      3.387  0.6013E+01  0.4282E+02
      3.500  0.5758E+01  0.4345E+02
      3.614  0.5158E+01  0.4412E+02
      3.728  0.4349E+01  0.4464E+02
      3.842  0.4839E+01  0.4515E+02
      3.955  0.5201E+01  0.4571E+02
      4.069  0.5657E+01  0.4633E+02
      4.183  0.6779E+01  0.4704E+02
      4.297  0.7323E+01  0.4787E+02
      4.410  0.7055E+01  0.4866E+02
      4.524  0.7132E+01  0.4946E+02
      4.638  0.7226E+01  0.5028E+02
      4.752  0.7295E+01  0.5111E+02
      4.865  0.6512E+01  0.5189E+02
      4.979  0.5873E+01  0.5260E+02
      5.093  0.5098E+01  0.5322E+02
      5.207  0.5014E+01  0.5379E+02
      5.320  0.5714E+01  0.5440E+02
      5.434  0.5942E+01  0.5507E+02
      5.548  0.5720E+01  0.5574E+02
      5.662  0.6137E+01  0.5639E+02
      5.775  0.5520E+01  0.5705E+02
      5.889  0.4799E+01  0.5765E+02
      6.003  0.3898E+01  0.5814E+02
      6.117  0.3855E+01  0.5857E+02
      6.230  0.4886E+01  0.5905E+02
      6.344  0.4262E+01  0.5961E+02
      6.458  0.3511E+01  0.6003E+02
      6.572  0.3352E+01  0.6042E+02
      6.685  0.3261E+01  0.6080E+02
      6.799  0.3043E+01  0.6116E+02
      6.913  0.2826E+01  0.6149E+02
      7.027  0.2611E+01  0.6180E+02
      7.140  0.2427E+01  0.6208E+02
      7.254  0.2409E+01  0.6236E+02
      7.368  0.2241E+01  0.6262E+02
      7.482  0.1984E+01  0.6286E+02
      7.595  0.1720E+01  0.6307E+02
      7.709  0.1478E+01  0.6326E+02
      7.823  0.1266E+01  0.6341E+02
      7.937  0.1127E+01  0.6355E+02
      8.050  0.9773E+00  0.6367E+02
      8.164  0.8560E+00  0.6377E+02
      8.278  0.7148E+00  0.6386E+02
      8.392  0.4951E+00  0.6393E+02
      8.505  0.2479E+00  0.6398E+02
      8.619  0.9020E-01  0.6399E+02
      8.733  0.1032E-01  0.6400E+02
      8.847  0.0000E+00  0.6400E+02
      8.960  0.0000E+00  0.6400E+02
      9.074  0.0000E+00  0.6400E+02
      9.188  0.0000E+00  0.6400E+02
      9.302  0.0000E+00  0.6400E+02
      9.415  0.0000E+00  0.6400E+02
      9.529  0.0000E+00  0.6400E+02
      9.643  0.0000E+00  0.6400E+02
      9.757  0.0000E+00  0.6400E+02
      9.870  0.0000E+00  0.6400E+02
      9.984  0.0000E+00  0.6400E+02
     10.098  0.0000E+00  0.6400E+02
     10.212  0.0000E+00  0.6400E+02
     10.325  0.0000E+00  0.6400E+02
     10.439  0.0000E+00  0.6400E+02
     10.553  0.0000E+00  0.6400E+02
     10.667  0.0000E+00  0.6400E+02
     10.780  0.0000E+00  0.6400E+02
     10.894  0.0000E+00  0.6400E+02
     11.008  0.0000E+00  0.6400E+02
     11.122  0.0000E+00  0.6400E+02
     11.235  0.0000E+00  0.6400E+02
     11.349  0.0000E+00  0.6400E+02
     11.463  0.0000E+00  0.6400E+02
     11.577  0.0000E+00  0.6400E+02
     11.690  0.0000E+00  0.6400E+02
     11.804  0.0000E+00  0.6400E+02
     11.918  0.0000E+00  0.6400E+02
     12.032  0.0000E+00  0.6400E+02
     12.146  0.0000E+00  0.6400E+02
     12.259  0.0000E+00  0.6400E+02
     12.373  0.0000E+00  0.6400E+02
     12.487  0.0000E+00  0.6400E+02
     12.601  0.0000E+00  0.6400E+02
     12.714  0.0000E+00  0.6400E+02
     12.828  0.7470E-02  0.6400E+02
     12.942  0.1129E+00  0.6400E+02
     13.056  0.4034E+00  0.6403E+02
     13.169  0.7741E+00  0.6410E+02
     13.283  0.1182E+01  0.6421E+02
     13.397  0.1509E+01  0.6437E+02
     13.511  0.1750E+01  0.6455E+02
     13.624  0.2007E+01  0.6477E+02
     13.738  0.2298E+01  0.6501E+02
     13.852  0.2795E+01  0.6530E+02
     13.966  0.3339E+01  0.6565E+02
     14.079  0.3728E+01  0.6605E+02
     14.193  0.4036E+01  0.6649E+02
     14.307  0.4113E+01  0.6696E+02
     14.421  0.3986E+01  0.6742E+02
     14.534  0.3918E+01  0.6789E+02
     14.648  0.3957E+01  0.6833E+02
     14.762  0.3815E+01  0.6877E+02
     14.876  0.3925E+01  0.6921E+02
     14.989  0.3692E+01  0.6964E+02
     15.103  0.4464E+01  0.7010E+02
     15.217  0.4625E+01  0.7062E+02
     15.331  0.5573E+01  0.7119E+02
     15.444  0.5643E+01  0.7185E+02
     15.558  0.5889E+01  0.7252E+02
     15.672  0.6181E+01  0.7318E+02
     15.786  0.6274E+01  0.7392E+02
     15.899  0.6152E+01  0.7462E+02
     16.013  0.6305E+01  0.7533E+02
     16.127  0.6076E+01  0.7603E+02
     16.241  0.6301E+01  0.7673E+02
     16.354  0.5964E+01  0.7742E+02
     16.468  0.6029E+01  0.7811E+02
     16.582  0.5420E+01  0.7877E+02
     16.696  0.4753E+01  0.7934E+02
     16.809  0.4164E+01  0.7985E+02
     16.923  0.3730E+01  0.8030E+02
     17.037  0.3446E+01  0.8071E+02
     17.151  0.2798E+01  0.8107E+02
     17.264  0.2367E+01  0.8136E+02
     17.378  0.1856E+01  0.8160E+02
     17.492  0.1207E+01  0.8178E+02
     17.606  0.6499E+00  0.8188E+02
     17.719  0.3657E+00  0.8193E+02
     17.833  0.2164E+00  0.8196E+02
     17.947  0.1269E+00  0.8198E+02
     18.061  0.6117E-01  0.8199E+02
     18.174  0.1919E-01  0.8200E+02
     18.288  0.9756E-03  0.8200E+02
     18.402  0.0000E+00  0.8200E+02
     18.516  0.0000E+00  0.8200E+02
     18.629  0.0000E+00  0.8200E+02
     18.743  0.0000E+00  0.8200E+02
     18.857  0.0000E+00  0.8200E+02
     18.971  0.0000E+00  0.8200E+02
     19.084  0.0000E+00  0.8200E+02
     19.198  0.0000E+00  0.8200E+02
     19.312  0.0000E+00  0.8200E+02
     19.426  0.0000E+00  0.8200E+02
     19.539  0.0000E+00  0.8200E+02
     19.653  0.0000E+00  0.8200E+02
     19.767  0.0000E+00  0.8200E+02
     19.881  0.0000E+00  0.8200E+02
     19.994  0.0000E+00  0.8200E+02
     20.108  0.0000E+00  0.8200E+02
     20.222  0.0000E+00  0.8200E+02
     20.336  0.0000E+00  0.8200E+02
