diamond                                 
           1
     5.161871    0.000000    0.000000
     2.580935    4.470311    0.000000
     2.580935    1.490104    4.214650
   C 
  16
Direct configuration=     1
   0.00193728  0.00000000  0.00000000
   0.50000000  0.00000000  0.00000000
   0.00000000  0.50000000  0.00000000
   0.50000000  0.50000000  0.00000000
   0.00000000  0.00000000  0.50000000
   0.50000000  0.00000000  0.50000000
   0.00000000  0.50000000  0.50000000
   0.50000000  0.50000000  0.50000000
   0.12500000  0.12500000  0.12499999
   0.62500000  0.12500000  0.12499999
   0.12500000  0.62500000  0.12499999
   0.62500000  0.62500000  0.12499999
   0.12500000  0.12500000  0.62499999
   0.62500000  0.12500000  0.62499999
   0.12500000  0.62500000  0.62499999
   0.62500000  0.62500000  0.62499999
