       N       E                     dE             d eps       ncg     rms          rms(c)
DAV:   1     0.600299787158E+03    0.60030E+03   -0.71493E+04 27384   0.159E+03
DAV:   2    -0.262159513054E+03   -0.86246E+03   -0.83163E+03 34164   0.312E+02
DAV:   3    -0.312818203375E+03   -0.50659E+02   -0.50185E+02 33384   0.760E+01
DAV:   4    -0.313787565958E+03   -0.96936E+00   -0.96752E+00 34980   0.114E+01
DAV:   5    -0.313816307150E+03   -0.28741E-01   -0.28728E-01 35196   0.182E+00    0.220E+01
DAV:   6    -0.299336741247E+03    0.14480E+02   -0.14918E+01 31296   0.107E+01    0.116E+01
DAV:   7    -0.294725946087E+03    0.46108E+01   -0.15837E+01 30936   0.110E+01    0.196E+00
DAV:   8    -0.294788226580E+03   -0.62280E-01   -0.46588E-01 31704   0.199E+00    0.574E-01
DAV:   9    -0.294792646202E+03   -0.44196E-02   -0.37083E-02 31764   0.650E-01    0.225E-01
DAV:  10    -0.294791724564E+03    0.92164E-03   -0.14572E-02 41028   0.367E-01    0.126E-01
DAV:  11    -0.294792498649E+03   -0.77409E-03   -0.99434E-03 31200   0.237E-01    0.107E-01
DAV:  12    -0.294792730702E+03   -0.23205E-03   -0.67302E-03 31212   0.183E-01    0.893E-02
DAV:  13    -0.294792662769E+03    0.67933E-04   -0.28701E-03 31596   0.121E-01    0.568E-02
DAV:  14    -0.294792618427E+03    0.44342E-04   -0.18573E-04 31980   0.440E-02    0.401E-02
DAV:  15    -0.294792654923E+03   -0.36496E-04   -0.10234E-03 35544   0.384E-02    0.527E-02
DAV:  16    -0.294792618593E+03    0.36330E-04   -0.45441E-04 33852   0.362E-02    0.385E-02
DAV:  17    -0.294792625349E+03   -0.67561E-05   -0.10216E-05 30384   0.108E-02    0.422E-02
DAV:  18    -0.294792616643E+03    0.87062E-05   -0.28273E-04 22164   0.188E-02    0.372E-02
DAV:  19    -0.294792611583E+03    0.50596E-05   -0.13096E-04 19308   0.115E-02    0.295E-02
DAV:  20    -0.294792609184E+03    0.23996E-05   -0.12969E-05 19020   0.350E-03    0.123E-02
DAV:  21    -0.294792614175E+03   -0.49913E-05   -0.66828E-05 19392   0.658E-03    0.346E-02
DAV:  22    -0.294792609619E+03    0.45567E-05   -0.56671E-05 19260   0.696E-03    0.195E-02
DAV:  23    -0.294792610195E+03   -0.57636E-06   -0.91326E-07 18672   0.185E-03
   1 F= -.29776795E+03 E0= -.29776795E+03  d E =0.000000E+00
