  32  32   0   0
  0.9341735E+01  0.4932875E-09  0.4932875E-09  0.1419195E-08  0.5000000E-15
  1.000000000000000E-004
  CAR 
 graphite                                
     14.53089221    -17.38716940  301      4.19756262      1.00000000
    -17.387  0.0000E+00  0.0000E+00
    -17.281  0.0000E+00  0.0000E+00
    -17.174  0.0000E+00  0.0000E+00
    -17.068  0.0000E+00  0.0000E+00
    -16.962  0.0000E+00  0.0000E+00
    -16.855  0.0000E+00  0.0000E+00
    -16.749  0.0000E+00  0.0000E+00
    -16.642  0.0000E+00  0.0000E+00
    -16.536  0.0000E+00  0.0000E+00
    -16.430  0.0000E+00  0.0000E+00
    -16.323  0.0000E+00  0.0000E+00
    -16.217  0.0000E+00  0.0000E+00
    -16.110  0.0000E+00  0.0000E+00
    -16.004  0.0000E+00  0.0000E+00
    -15.898  0.0000E+00  0.0000E+00
    -15.791  0.0000E+00  0.0000E+00
    -15.685  0.0000E+00  0.0000E+00
    -15.578  0.0000E+00  0.0000E+00
    -15.472  0.0000E+00  0.0000E+00
    -15.366  0.1425E+00  0.1159E-02
    -15.259  0.2387E+01  0.1178E+00
    -15.153  0.4361E+01  0.4917E+00
    -15.047  0.5017E+01  0.1016E+01
    -14.940  0.4855E+01  0.1514E+01
    -14.834  0.5165E+01  0.2051E+01
    -14.727  0.5044E+01  0.2598E+01
    -14.621  0.4780E+01  0.3119E+01
    -14.515  0.4833E+01  0.3626E+01
    -14.408  0.5046E+01  0.4152E+01
    -14.302  0.5260E+01  0.4700E+01
    -14.195  0.7008E+01  0.5315E+01
    -14.089  0.8191E+01  0.6131E+01
    -13.983  0.6376E+01  0.6990E+01
    -13.876  0.2645E+01  0.7454E+01
    -13.770  0.1891E+01  0.7679E+01
    -13.663  0.2162E+01  0.7891E+01
    -13.557  0.2514E+01  0.8140E+01
    -13.451  0.2865E+01  0.8426E+01
    -13.344  0.5731E+01  0.8802E+01
    -13.238  0.1046E+02  0.9892E+01
    -13.131  0.7456E+01  0.1088E+02
    -13.025  0.3975E+01  0.1137E+02
    -12.919  0.4071E+01  0.1180E+02
    -12.812  0.4168E+01  0.1224E+02
    -12.706  0.4283E+01  0.1269E+02
    -12.599  0.4411E+01  0.1315E+02
    -12.493  0.4533E+01  0.1362E+02
    -12.387  0.4656E+01  0.1411E+02
    -12.280  0.5269E+01  0.1463E+02
    -12.174  0.6262E+01  0.1523E+02
    -12.067  0.6259E+01  0.1593E+02
    -11.961  0.5693E+01  0.1656E+02
    -11.855  0.5363E+01  0.1715E+02
    -11.748  0.5518E+01  0.1772E+02
    -11.642  0.5680E+01  0.1832E+02
    -11.536  0.5842E+01  0.1893E+02
    -11.429  0.6004E+01  0.1956E+02
    -11.323  0.5667E+01  0.2019E+02
    -11.216  0.5281E+01  0.2077E+02
    -11.110  0.5330E+01  0.2134E+02
    -11.004  0.4701E+01  0.2189E+02
    -10.897  0.4276E+01  0.2234E+02
    -10.791  0.4985E+01  0.2284E+02
    -10.684  0.5160E+01  0.2338E+02
    -10.578  0.5334E+01  0.2394E+02
    -10.472  0.6937E+01  0.2455E+02
    -10.365  0.1184E+02  0.2553E+02
    -10.259  0.9577E+01  0.2667E+02
    -10.152  0.7316E+01  0.2757E+02
    -10.046  0.5136E+01  0.2823E+02
     -9.940  0.4458E+01  0.2873E+02
     -9.833  0.4016E+01  0.2918E+02
     -9.727  0.3574E+01  0.2958E+02
     -9.620  0.7632E+01  0.3017E+02
     -9.514  0.2098E+01  0.3082E+02
     -9.408  0.1900E+01  0.3103E+02
     -9.301  0.1701E+01  0.3122E+02
     -9.195  0.1503E+01  0.3139E+02
     -9.088  0.1304E+01  0.3154E+02
     -8.982  0.1316E+01  0.3168E+02
     -8.876  0.1811E+01  0.3184E+02
     -8.769  0.2306E+01  0.3206E+02
     -8.663  0.2802E+01  0.3233E+02
     -8.557  0.5151E+01  0.3271E+02
     -8.450  0.9584E+01  0.3349E+02
     -8.344  0.5167E+01  0.3448E+02
     -8.237  0.5082E+01  0.3500E+02
     -8.131  0.6202E+01  0.3560E+02
     -8.025  0.7321E+01  0.3632E+02
     -7.918  0.8440E+01  0.3716E+02
     -7.812  0.9560E+01  0.3812E+02
     -7.705  0.7229E+01  0.3908E+02
     -7.599  0.5556E+01  0.3970E+02
     -7.493  0.5594E+01  0.4029E+02
     -7.386  0.5592E+01  0.4089E+02
     -7.280  0.5445E+01  0.4147E+02
     -7.173  0.5282E+01  0.4205E+02
     -7.067  0.5143E+01  0.4260E+02
     -6.961  0.5025E+01  0.4314E+02
     -6.854  0.4906E+01  0.4367E+02
     -6.748  0.4788E+01  0.4418E+02
     -6.641  0.4669E+01  0.4469E+02
     -6.535  0.4551E+01  0.4518E+02
     -6.429  0.4432E+01  0.4566E+02
     -6.322  0.4434E+01  0.4612E+02
     -6.216  0.5050E+01  0.4663E+02
     -6.109  0.5622E+01  0.4720E+02
     -6.003  0.6195E+01  0.4783E+02
     -5.897  0.6767E+01  0.4852E+02
     -5.790  0.7340E+01  0.4927E+02
     -5.684  0.7913E+01  0.5008E+02
     -5.577  0.8485E+01  0.5095E+02
     -5.471  0.9058E+01  0.5188E+02
     -5.365  0.3885E+01  0.5249E+02
     -5.258  0.6478E+01  0.5300E+02
     -5.152  0.6603E+01  0.5376E+02
     -5.046  0.5197E+01  0.5439E+02
     -4.939  0.3791E+01  0.5486E+02
     -4.833  0.2385E+01  0.5519E+02
     -4.726  0.1072E+01  0.5537E+02
     -4.620  0.2276E+01  0.5554E+02
     -4.514  0.3689E+01  0.5586E+02
     -4.407  0.5103E+01  0.5633E+02
     -4.301  0.7761E+01  0.5695E+02
     -4.194  0.1139E+02  0.5807E+02
     -4.088  0.1051E+02  0.5923E+02
     -3.982  0.1088E+02  0.6034E+02
     -3.875  0.1059E+02  0.6152E+02
     -3.769  0.5384E+01  0.6225E+02
     -3.662  0.5670E+01  0.6283E+02
     -3.556  0.6506E+01  0.6347E+02
     -3.450  0.1038E+02  0.6433E+02
     -3.343  0.1556E+02  0.6570E+02
     -3.237  0.2708E+02  0.6783E+02
     -3.130  0.6536E+01  0.6904E+02
     -3.024  0.6686E+01  0.6974E+02
     -2.918  0.7015E+01  0.7046E+02
     -2.811  0.7610E+01  0.7124E+02
     -2.705  0.9405E+01  0.7213E+02
     -2.598  0.1674E+02  0.7375E+02
     -2.492  0.1445E+02  0.7540E+02
     -2.386  0.1158E+02  0.7684E+02
     -2.279  0.1619E+02  0.7812E+02
     -2.173  0.1519E+02  0.8135E+02
     -2.066  0.2093E+02  0.8317E+02
     -1.960  0.1252E+02  0.8501E+02
     -1.854  0.1400E+02  0.8641E+02
     -1.747  0.1495E+02  0.8799E+02
     -1.641  0.9094E+01  0.8929E+02
     -1.535  0.6479E+01  0.9009E+02
     -1.428  0.8344E+01  0.9088E+02
     -1.322  0.8386E+01  0.9178E+02
     -1.215  0.9289E+01  0.9272E+02
     -1.109  0.9848E+01  0.9375E+02
     -1.003  0.9576E+01  0.9478E+02
     -0.896  0.1108E+02  0.9586E+02
     -0.790  0.1192E+02  0.9768E+02
     -0.683  0.1120E+02  0.9892E+02
     -0.577  0.1156E+02  0.1001E+03
     -0.471  0.1178E+02  0.1014E+03
     -0.364  0.1038E+02  0.1025E+03
     -0.258  0.1006E+02  0.1036E+03
     -0.151  0.9806E+01  0.1047E+03
     -0.045  0.9583E+01  0.1057E+03
      0.061  0.9510E+01  0.1067E+03
      0.168  0.9536E+01  0.1077E+03
      0.274  0.9144E+01  0.1087E+03
      0.381  0.8992E+01  0.1097E+03
      0.487  0.9023E+01  0.1107E+03
      0.593  0.9788E+01  0.1117E+03
      0.700  0.9849E+01  0.1127E+03
      0.806  0.1018E+02  0.1138E+03
      0.913  0.1059E+02  0.1149E+03
      1.019  0.9542E+01  0.1160E+03
      1.125  0.8088E+01  0.1169E+03
      1.232  0.6620E+01  0.1177E+03
      1.338  0.5545E+01  0.1183E+03
      1.444  0.4934E+01  0.1189E+03
      1.551  0.3911E+01  0.1194E+03
      1.657  0.2934E+01  0.1198E+03
      1.764  0.3577E+01  0.1201E+03
      1.870  0.5404E+01  0.1206E+03
      1.976  0.7986E+01  0.1213E+03
      2.083  0.1353E+02  0.1224E+03
      2.189  0.7457E+01  0.1233E+03
      2.296  0.6386E+01  0.1240E+03
      2.402  0.5672E+01  0.1247E+03
      2.508  0.4631E+01  0.1252E+03
      2.615  0.3736E+01  0.1257E+03
      2.721  0.3273E+01  0.1261E+03
      2.828  0.2929E+01  0.1264E+03
      2.934  0.2574E+01  0.1267E+03
      3.040  0.2237E+01  0.1269E+03
      3.147  0.1911E+01  0.1272E+03
      3.253  0.1553E+01  0.1273E+03
      3.360  0.1352E+01  0.1275E+03
      3.466  0.1151E+01  0.1276E+03
      3.572  0.9496E+00  0.1277E+03
      3.679  0.7484E+00  0.1278E+03
      3.785  0.5520E+00  0.1279E+03
      3.892  0.3860E+00  0.1279E+03
      3.998  0.2381E+00  0.1280E+03
      4.104  0.1045E+00  0.1280E+03
      4.211  0.5868E-02  0.1280E+03
      4.317  0.1140E+00  0.1280E+03
      4.424  0.2367E+00  0.1280E+03
      4.530  0.3762E+00  0.1281E+03
      4.636  0.5367E+00  0.1281E+03
      4.743  0.7365E+00  0.1282E+03
      4.849  0.9527E+00  0.1283E+03
      4.955  0.1169E+01  0.1284E+03
      5.062  0.1385E+01  0.1285E+03
      5.168  0.1602E+01  0.1287E+03
      5.275  0.1819E+01  0.1289E+03
      5.381  0.3006E+01  0.1291E+03
      5.487  0.3866E+01  0.1295E+03
      5.594  0.4027E+01  0.1299E+03
      5.700  0.5550E+01  0.1304E+03
      5.807  0.8174E+01  0.1311E+03
      5.913  0.1280E+02  0.1322E+03
      6.019  0.9073E+01  0.1334E+03
      6.126  0.7127E+01  0.1342E+03
      6.232  0.6355E+01  0.1349E+03
      6.339  0.5969E+01  0.1356E+03
      6.445  0.5436E+01  0.1362E+03
      6.551  0.4664E+01  0.1367E+03
      6.658  0.4505E+01  0.1372E+03
      6.764  0.4019E+01  0.1377E+03
      6.871  0.3794E+01  0.1381E+03
      6.977  0.4006E+01  0.1385E+03
      7.083  0.4483E+01  0.1389E+03
      7.190  0.4793E+01  0.1394E+03
      7.296  0.4742E+01  0.1399E+03
      7.403  0.4646E+01  0.1404E+03
      7.509  0.4475E+01  0.1409E+03
      7.615  0.4303E+01  0.1414E+03
      7.722  0.4173E+01  0.1418E+03
      7.828  0.4090E+01  0.1423E+03
      7.934  0.4037E+01  0.1427E+03
      8.041  0.4002E+01  0.1431E+03
      8.147  0.4022E+01  0.1436E+03
      8.254  0.4312E+01  0.1440E+03
      8.360  0.4574E+01  0.1445E+03
      8.466  0.4265E+01  0.1450E+03
      8.573  0.4127E+01  0.1454E+03
      8.679  0.4053E+01  0.1458E+03
      8.786  0.3982E+01  0.1463E+03
      8.892  0.3867E+01  0.1467E+03
      8.998  0.3914E+01  0.1471E+03
      9.105  0.3969E+01  0.1475E+03
      9.211  0.4019E+01  0.1479E+03
      9.318  0.4070E+01  0.1484E+03
      9.424  0.4101E+01  0.1488E+03
      9.530  0.4160E+01  0.1492E+03
      9.637  0.4591E+01  0.1497E+03
      9.743  0.4757E+01  0.1502E+03
      9.850  0.4759E+01  0.1507E+03
      9.956  0.6494E+01  0.1513E+03
     10.062  0.5333E+01  0.1519E+03
     10.169  0.6122E+01  0.1525E+03
     10.275  0.5700E+01  0.1532E+03
     10.382  0.6184E+01  0.1538E+03
     10.488  0.5057E+01  0.1544E+03
     10.594  0.3365E+01  0.1548E+03
     10.701  0.4189E+01  0.1552E+03
     10.807  0.3196E+01  0.1557E+03
     10.914  0.2951E+01  0.1560E+03
     11.020  0.3055E+01  0.1563E+03
     11.126  0.3230E+01  0.1566E+03
     11.233  0.3343E+01  0.1570E+03
     11.339  0.4047E+01  0.1574E+03
     11.445  0.4644E+01  0.1578E+03
     11.552  0.8619E+01  0.1585E+03
     11.658  0.8637E+01  0.1594E+03
     11.765  0.9851E+01  0.1604E+03
     11.871  0.1183E+02  0.1615E+03
     11.977  0.1279E+02  0.1628E+03
     12.084  0.1270E+02  0.1642E+03
     12.190  0.1296E+02  0.1655E+03
     12.297  0.1152E+02  0.1669E+03
     12.403  0.5115E+01  0.1678E+03
     12.509  0.5454E-01  0.1680E+03
     12.616  0.0000E+00  0.1680E+03
     12.722  0.0000E+00  0.1680E+03
     12.829  0.0000E+00  0.1680E+03
     12.935  0.0000E+00  0.1680E+03
     13.041  0.0000E+00  0.1680E+03
     13.148  0.0000E+00  0.1680E+03
     13.254  0.0000E+00  0.1680E+03
     13.361  0.0000E+00  0.1680E+03
     13.467  0.0000E+00  0.1680E+03
     13.573  0.0000E+00  0.1680E+03
     13.680  0.0000E+00  0.1680E+03
     13.786  0.0000E+00  0.1680E+03
     13.893  0.0000E+00  0.1680E+03
     13.999  0.0000E+00  0.1680E+03
     14.105  0.0000E+00  0.1680E+03
     14.212  0.0000E+00  0.1680E+03
     14.318  0.0000E+00  0.1680E+03
     14.424  0.0000E+00  0.1680E+03
     14.531  0.0000E+00  0.1680E+03
