  32  32   0   0
  0.8992511E+01  0.4932875E-09  0.4932875E-09  0.1366141E-08  0.5000000E-15
  1.000000000000000E-004
  CAR 
 graphite                                
     15.26492453    -17.09225409  301      4.52003320      1.00000000
    -17.092  0.0000E+00  0.0000E+00
    -16.984  0.0000E+00  0.0000E+00
    -16.877  0.0000E+00  0.0000E+00
    -16.769  0.0000E+00  0.0000E+00
    -16.661  0.0000E+00  0.0000E+00
    -16.553  0.0000E+00  0.0000E+00
    -16.445  0.0000E+00  0.0000E+00
    -16.337  0.0000E+00  0.0000E+00
    -16.229  0.0000E+00  0.0000E+00
    -16.122  0.0000E+00  0.0000E+00
    -16.014  0.0000E+00  0.0000E+00
    -15.906  0.0000E+00  0.0000E+00
    -15.798  0.0000E+00  0.0000E+00
    -15.690  0.0000E+00  0.0000E+00
    -15.582  0.0000E+00  0.0000E+00
    -15.474  0.0000E+00  0.0000E+00
    -15.367  0.0000E+00  0.0000E+00
    -15.259  0.0000E+00  0.0000E+00
    -15.151  0.0000E+00  0.0000E+00
    -15.043  0.1003E+01  0.1904E-01
    -14.935  0.2525E+01  0.2251E+00
    -14.827  0.4343E+01  0.5863E+00
    -14.719  0.4815E+01  0.1106E+01
    -14.612  0.5002E+01  0.1640E+01
    -14.504  0.4914E+01  0.2171E+01
    -14.396  0.4950E+01  0.2704E+01
    -14.288  0.4904E+01  0.3235E+01
    -14.180  0.4986E+01  0.3769E+01
    -14.072  0.4983E+01  0.4306E+01
    -13.964  0.4994E+01  0.4844E+01
    -13.857  0.5602E+01  0.5408E+01
    -13.749  0.5901E+01  0.6033E+01
    -13.641  0.6833E+01  0.6736E+01
    -13.533  0.4525E+01  0.7340E+01
    -13.425  0.1774E+01  0.7715E+01
    -13.317  0.3179E+01  0.7951E+01
    -13.209  0.4289E+01  0.8393E+01
    -13.102  0.4570E+01  0.8874E+01
    -12.994  0.6041E+01  0.9606E+01
    -12.886  0.6829E+01  0.1031E+02
    -12.778  0.4339E+01  0.1087E+02
    -12.670  0.4505E+01  0.1134E+02
    -12.562  0.4638E+01  0.1184E+02
    -12.454  0.4751E+01  0.1234E+02
    -12.347  0.5120E+01  0.1287E+02
    -12.239  0.5484E+01  0.1344E+02
    -12.131  0.5687E+01  0.1407E+02
    -12.023  0.5502E+01  0.1467E+02
    -11.915  0.5157E+01  0.1524E+02
    -11.807  0.4952E+01  0.1579E+02
    -11.699  0.4906E+01  0.1632E+02
    -11.592  0.5005E+01  0.1685E+02
    -11.484  0.5065E+01  0.1739E+02
    -11.376  0.5139E+01  0.1794E+02
    -11.268  0.5465E+01  0.1852E+02
    -11.160  0.5903E+01  0.1912E+02
    -11.052  0.5789E+01  0.1975E+02
    -10.944  0.5723E+01  0.2037E+02
    -10.837  0.5765E+01  0.2099E+02
    -10.729  0.5505E+01  0.2162E+02
    -10.621  0.4546E+01  0.2215E+02
    -10.513  0.5117E+01  0.2267E+02
    -10.405  0.5340E+01  0.2324E+02
    -10.297  0.5416E+01  0.2381E+02
    -10.189  0.5603E+01  0.2441E+02
    -10.082  0.5847E+01  0.2503E+02
     -9.974  0.7054E+01  0.2570E+02
     -9.866  0.1039E+02  0.2659E+02
     -9.758  0.7635E+01  0.2760E+02
     -9.650  0.5494E+01  0.2828E+02
     -9.542  0.5975E+01  0.2898E+02
     -9.434  0.3693E+01  0.2955E+02
     -9.327  0.3324E+01  0.2993E+02
     -9.219  0.2956E+01  0.3027E+02
     -9.111  0.2587E+01  0.3057E+02
     -9.003  0.2281E+01  0.3083E+02
     -8.895  0.3449E+01  0.3112E+02
     -8.787  0.2272E+01  0.3143E+02
     -8.679  0.1431E+01  0.3160E+02
     -8.572  0.2274E+01  0.3180E+02
     -8.464  0.4789E+01  0.3213E+02
     -8.356  0.5636E+01  0.3289E+02
     -8.248  0.3821E+01  0.3336E+02
     -8.140  0.4148E+01  0.3379E+02
     -8.032  0.7403E+01  0.3433E+02
     -7.924  0.5950E+01  0.3513E+02
     -7.817  0.7015E+01  0.3583E+02
     -7.709  0.8101E+01  0.3665E+02
     -7.601  0.9181E+01  0.3758E+02
     -7.493  0.6370E+01  0.3840E+02
     -7.385  0.6110E+01  0.3908E+02
     -7.277  0.5851E+01  0.3972E+02
     -7.169  0.5609E+01  0.4034E+02
     -7.062  0.5408E+01  0.4093E+02
     -6.954  0.5228E+01  0.4151E+02
     -6.846  0.5041E+01  0.4206E+02
     -6.738  0.4870E+01  0.4259E+02
     -6.630  0.4830E+01  0.4312E+02
     -6.522  0.4802E+01  0.4364E+02
     -6.414  0.4737E+01  0.4415E+02
     -6.307  0.4493E+01  0.4465E+02
     -6.199  0.4389E+01  0.4513E+02
     -6.091  0.3663E+01  0.4555E+02
     -5.983  0.4086E+01  0.4598E+02
     -5.875  0.4713E+01  0.4646E+02
     -5.767  0.5461E+01  0.4700E+02
     -5.659  0.6284E+01  0.4764E+02
     -5.552  0.9031E+01  0.4842E+02
     -5.444  0.9442E+01  0.4950E+02
     -5.336  0.7167E+01  0.5040E+02
     -5.228  0.4892E+01  0.5105E+02
     -5.120  0.2792E+01  0.5145E+02
     -5.012  0.2734E+01  0.5174E+02
     -4.904  0.3784E+01  0.5208E+02
     -4.797  0.5109E+01  0.5256E+02
     -4.689  0.6524E+01  0.5319E+02
     -4.581  0.8102E+01  0.5399E+02
     -4.473  0.7305E+01  0.5483E+02
     -4.365  0.6095E+01  0.5556E+02
     -4.257  0.5778E+01  0.5618E+02
     -4.149  0.7491E+01  0.5694E+02
     -4.042  0.6974E+01  0.5772E+02
     -3.934  0.6458E+01  0.5845E+02
     -3.826  0.6421E+01  0.5913E+02
     -3.718  0.6220E+01  0.5981E+02
     -3.610  0.1289E+02  0.6071E+02
     -3.502  0.8921E+01  0.6193E+02
     -3.394  0.8294E+01  0.6287E+02
     -3.287  0.7354E+01  0.6371E+02
     -3.179  0.6708E+01  0.6447E+02
     -3.071  0.7224E+01  0.6522E+02
     -2.963  0.8206E+01  0.6605E+02
     -2.855  0.9436E+01  0.6700E+02
     -2.747  0.1317E+02  0.6818E+02
     -2.639  0.1471E+02  0.6971E+02
     -2.532  0.1170E+02  0.7107E+02
     -2.424  0.1287E+02  0.7237E+02
     -2.316  0.1199E+02  0.7373E+02
     -2.208  0.1448E+02  0.7526E+02
     -2.100  0.1286E+02  0.7671E+02
     -1.992  0.1627E+02  0.7854E+02
     -1.884  0.1136E+02  0.7987E+02
     -1.777  0.2091E+02  0.8171E+02
     -1.669  0.1882E+02  0.8362E+02
     -1.561  0.1614E+02  0.8560E+02
     -1.453  0.1315E+02  0.8718E+02
     -1.345  0.1075E+02  0.8844E+02
     -1.237  0.9763E+01  0.8955E+02
     -1.129  0.7839E+01  0.9055E+02
     -1.022  0.9452E+01  0.9143E+02
     -0.914  0.1326E+02  0.9264E+02
     -0.806  0.1305E+02  0.9406E+02
     -0.698  0.1083E+02  0.9568E+02
     -0.590  0.9503E+01  0.9673E+02
     -0.482  0.1065E+02  0.9781E+02
     -0.374  0.1022E+02  0.9894E+02
     -0.267  0.1086E+02  0.1001E+03
     -0.159  0.9769E+01  0.1012E+03
     -0.051  0.9219E+01  0.1022E+03
      0.057  0.1050E+02  0.1033E+03
      0.165  0.9765E+01  0.1044E+03
      0.273  0.9470E+01  0.1054E+03
      0.381  0.9198E+01  0.1064E+03
      0.488  0.9290E+01  0.1074E+03
      0.596  0.9435E+01  0.1084E+03
      0.704  0.9330E+01  0.1094E+03
      0.812  0.9384E+01  0.1104E+03
      0.920  0.9057E+01  0.1114E+03
      1.028  0.9357E+01  0.1124E+03
      1.136  0.9548E+01  0.1134E+03
      1.243  0.1016E+02  0.1145E+03
      1.351  0.9195E+01  0.1155E+03
      1.459  0.8866E+01  0.1166E+03
      1.567  0.6547E+01  0.1174E+03
      1.675  0.6330E+01  0.1181E+03
      1.783  0.5401E+01  0.1187E+03
      1.891  0.4158E+01  0.1192E+03
      1.998  0.4010E+01  0.1197E+03
      2.106  0.5254E+01  0.1201E+03
      2.214  0.8538E+01  0.1209E+03
      2.322  0.8651E+01  0.1218E+03
      2.430  0.6748E+01  0.1225E+03
      2.538  0.7660E+01  0.1235E+03
      2.646  0.5717E+01  0.1242E+03
      2.753  0.4733E+01  0.1247E+03
      2.861  0.3995E+01  0.1252E+03
      2.969  0.3449E+01  0.1256E+03
      3.077  0.3192E+01  0.1260E+03
      3.185  0.3046E+01  0.1263E+03
      3.293  0.2621E+01  0.1266E+03
      3.401  0.2229E+01  0.1269E+03
      3.508  0.1945E+01  0.1271E+03
      3.616  0.1713E+01  0.1273E+03
      3.724  0.1475E+01  0.1275E+03
      3.832  0.1239E+01  0.1276E+03
      3.940  0.1011E+01  0.1277E+03
      4.048  0.8018E+00  0.1278E+03
      4.156  0.5946E+00  0.1279E+03
      4.263  0.4028E+00  0.1280E+03
      4.371  0.2241E+00  0.1280E+03
      4.479  0.5589E-01  0.1280E+03
      4.587  0.6343E-01  0.1280E+03
      4.695  0.1910E+00  0.1280E+03
      4.803  0.3308E+00  0.1280E+03
      4.911  0.4868E+00  0.1281E+03
      5.018  0.6616E+00  0.1281E+03
      5.126  0.8680E+00  0.1282E+03
      5.234  0.1179E+01  0.1283E+03
      5.342  0.1547E+01  0.1285E+03
      5.450  0.1908E+01  0.1287E+03
      5.558  0.2267E+01  0.1289E+03
      5.666  0.2694E+01  0.1292E+03
      5.773  0.2987E+01  0.1295E+03
      5.881  0.3827E+01  0.1299E+03
      5.989  0.4769E+01  0.1303E+03
      6.097  0.1141E+02  0.1312E+03
      6.205  0.8532E+01  0.1322E+03
      6.313  0.7936E+01  0.1331E+03
      6.421  0.8395E+01  0.1339E+03
      6.528  0.6580E+01  0.1348E+03
      6.636  0.6094E+01  0.1355E+03
      6.744  0.6043E+01  0.1361E+03
      6.852  0.5333E+01  0.1367E+03
      6.960  0.4748E+01  0.1373E+03
      7.068  0.3974E+01  0.1377E+03
      7.176  0.3584E+01  0.1381E+03
      7.283  0.3639E+01  0.1385E+03
      7.391  0.4104E+01  0.1389E+03
      7.499  0.4552E+01  0.1394E+03
      7.607  0.4776E+01  0.1399E+03
      7.715  0.4608E+01  0.1404E+03
      7.823  0.4456E+01  0.1409E+03
      7.931  0.4299E+01  0.1414E+03
      8.038  0.4145E+01  0.1418E+03
      8.146  0.3967E+01  0.1423E+03
      8.254  0.3802E+01  0.1427E+03
      8.362  0.3659E+01  0.1431E+03
      8.470  0.3559E+01  0.1435E+03
      8.578  0.3492E+01  0.1439E+03
      8.686  0.3395E+01  0.1442E+03
      8.793  0.3560E+01  0.1446E+03
      8.901  0.3763E+01  0.1450E+03
      9.009  0.3880E+01  0.1454E+03
      9.117  0.4079E+01  0.1458E+03
      9.225  0.4145E+01  0.1463E+03
      9.333  0.4243E+01  0.1467E+03
      9.441  0.4061E+01  0.1472E+03
      9.548  0.3987E+01  0.1476E+03
      9.656  0.3970E+01  0.1481E+03
      9.764  0.3962E+01  0.1485E+03
      9.872  0.3970E+01  0.1489E+03
      9.980  0.4031E+01  0.1493E+03
     10.088  0.4115E+01  0.1498E+03
     10.196  0.4261E+01  0.1502E+03
     10.303  0.4348E+01  0.1507E+03
     10.411  0.4546E+01  0.1512E+03
     10.519  0.5706E+01  0.1517E+03
     10.627  0.5320E+01  0.1523E+03
     10.735  0.4739E+01  0.1529E+03
     10.843  0.4651E+01  0.1534E+03
     10.951  0.5315E+01  0.1539E+03
     11.058  0.3631E+01  0.1544E+03
     11.166  0.3701E+01  0.1548E+03
     11.274  0.3994E+01  0.1552E+03
     11.382  0.3819E+01  0.1556E+03
     11.490  0.2470E+01  0.1560E+03
     11.598  0.2793E+01  0.1562E+03
     11.706  0.3877E+01  0.1566E+03
     11.813  0.6318E+01  0.1571E+03
     11.921  0.6743E+01  0.1578E+03
     12.029  0.9330E+01  0.1587E+03
     12.137  0.1098E+02  0.1598E+03
     12.245  0.1072E+02  0.1610E+03
     12.353  0.9537E+01  0.1621E+03
     12.461  0.6451E+01  0.1629E+03
     12.568  0.3316E+01  0.1635E+03
     12.676  0.1649E+01  0.1637E+03
     12.784  0.9827E+00  0.1639E+03
     12.892  0.5663E+00  0.1639E+03
     13.000  0.2683E+00  0.1640E+03
     13.108  0.8792E-01  0.1640E+03
     13.216  0.3747E-02  0.1640E+03
     13.323  0.0000E+00  0.1640E+03
     13.431  0.0000E+00  0.1640E+03
     13.539  0.0000E+00  0.1640E+03
     13.647  0.0000E+00  0.1640E+03
     13.755  0.0000E+00  0.1640E+03
     13.863  0.0000E+00  0.1640E+03
     13.971  0.0000E+00  0.1640E+03
     14.078  0.0000E+00  0.1640E+03
     14.186  0.0000E+00  0.1640E+03
     14.294  0.0000E+00  0.1640E+03
     14.402  0.0000E+00  0.1640E+03
     14.510  0.0000E+00  0.1640E+03
     14.618  0.0000E+00  0.1640E+03
     14.726  0.0000E+00  0.1640E+03
     14.833  0.0000E+00  0.1640E+03
     14.941  0.0000E+00  0.1640E+03
     15.049  0.0000E+00  0.1640E+03
     15.157  0.0000E+00  0.1640E+03
     15.265  0.0000E+00  0.1640E+03
