  32  32   0   0
  0.8992511E+01  0.4932875E-09  0.4932875E-09  0.1366141E-08  0.5000000E-15
  1.000000000000000E-004
  CAR 
 graphite                                
     15.32759887    -17.09226002  301      4.52000140      1.00000000
    -17.092  0.0000E+00  0.0000E+00
    -16.984  0.0000E+00  0.0000E+00
    -16.876  0.0000E+00  0.0000E+00
    -16.768  0.0000E+00  0.0000E+00
    -16.660  0.0000E+00  0.0000E+00
    -16.552  0.0000E+00  0.0000E+00
    -16.444  0.0000E+00  0.0000E+00
    -16.336  0.0000E+00  0.0000E+00
    -16.228  0.0000E+00  0.0000E+00
    -16.120  0.0000E+00  0.0000E+00
    -16.012  0.0000E+00  0.0000E+00
    -15.904  0.0000E+00  0.0000E+00
    -15.795  0.0000E+00  0.0000E+00
    -15.687  0.0000E+00  0.0000E+00
    -15.579  0.0000E+00  0.0000E+00
    -15.471  0.0000E+00  0.0000E+00
    -15.363  0.0000E+00  0.0000E+00
    -15.255  0.0000E+00  0.0000E+00
    -15.147  0.0000E+00  0.0000E+00
    -15.039  0.1132E+01  0.2327E-01
    -14.931  0.2582E+01  0.2358E+00
    -14.823  0.4454E+01  0.6056E+00
    -14.715  0.4830E+01  0.1129E+01
    -14.607  0.4994E+01  0.1664E+01
    -14.499  0.4917E+01  0.2196E+01
    -14.391  0.4950E+01  0.2730E+01
    -14.283  0.4908E+01  0.3262E+01
    -14.174  0.4987E+01  0.3797E+01
    -14.066  0.4984E+01  0.4335E+01
    -13.958  0.4991E+01  0.4875E+01
    -13.850  0.5635E+01  0.5444E+01
    -13.742  0.5917E+01  0.6071E+01
    -13.634  0.6745E+01  0.6781E+01
    -13.526  0.4640E+01  0.7372E+01
    -13.418  0.1769E+01  0.7727E+01
    -13.310  0.3395E+01  0.7975E+01
    -13.202  0.4300E+01  0.8425E+01
    -13.094  0.4589E+01  0.8910E+01
    -12.986  0.6007E+01  0.9654E+01
    -12.878  0.6689E+01  0.1036E+02
    -12.770  0.4351E+01  0.1090E+02
    -12.662  0.4518E+01  0.1138E+02
    -12.553  0.4647E+01  0.1188E+02
    -12.445  0.4761E+01  0.1239E+02
    -12.337  0.5158E+01  0.1292E+02
    -12.229  0.5548E+01  0.1350E+02
    -12.121  0.5632E+01  0.1413E+02
    -12.013  0.5528E+01  0.1472E+02
    -11.905  0.5141E+01  0.1530E+02
    -11.797  0.4927E+01  0.1584E+02
    -11.689  0.4917E+01  0.1637E+02
    -11.581  0.5012E+01  0.1690E+02
    -11.473  0.5070E+01  0.1745E+02
    -11.365  0.5168E+01  0.1800E+02
    -11.257  0.5489E+01  0.1858E+02
    -11.149  0.5891E+01  0.1919E+02
    -11.041  0.5777E+01  0.1982E+02
    -10.932  0.5723E+01  0.2044E+02
    -10.824  0.5782E+01  0.2106E+02
    -10.716  0.5374E+01  0.2168E+02
    -10.608  0.4565E+01  0.2220E+02
    -10.500  0.5170E+01  0.2273E+02
    -10.392  0.5342E+01  0.2331E+02
    -10.284  0.5436E+01  0.2389E+02
    -10.176  0.5633E+01  0.2448E+02
    -10.068  0.5878E+01  0.2511E+02
     -9.960  0.7254E+01  0.2580E+02
     -9.852  0.1060E+02  0.2674E+02
     -9.744  0.7209E+01  0.2770E+02
     -9.636  0.5775E+01  0.2835E+02
     -9.528  0.5968E+01  0.2907E+02
     -9.420  0.3642E+01  0.2961E+02
     -9.311  0.3273E+01  0.2998E+02
     -9.203  0.2904E+01  0.3031E+02
     -9.095  0.2534E+01  0.3061E+02
     -8.987  0.2347E+01  0.3086E+02
     -8.879  0.3327E+01  0.3118E+02
     -8.771  0.2075E+01  0.3146E+02
     -8.663  0.1527E+01  0.3163E+02
     -8.555  0.2413E+01  0.3184E+02
     -8.447  0.5875E+01  0.3222E+02
     -8.339  0.4611E+01  0.3298E+02
     -8.231  0.3873E+01  0.3343E+02
     -8.123  0.4200E+01  0.3386E+02
     -8.015  0.7244E+01  0.3446E+02
     -7.907  0.6125E+01  0.3524E+02
     -7.799  0.7193E+01  0.3596E+02
     -7.691  0.8283E+01  0.3680E+02
     -7.582  0.8460E+01  0.3774E+02
     -7.474  0.6325E+01  0.3852E+02
     -7.366  0.6065E+01  0.3919E+02
     -7.258  0.5807E+01  0.3983E+02
     -7.150  0.5570E+01  0.4045E+02
     -7.042  0.5375E+01  0.4104E+02
     -6.934  0.5195E+01  0.4161E+02
     -6.826  0.5004E+01  0.4216E+02
     -6.718  0.4855E+01  0.4269E+02
     -6.610  0.4825E+01  0.4321E+02
     -6.502  0.4796E+01  0.4373E+02
     -6.394  0.4667E+01  0.4425E+02
     -6.286  0.4432E+01  0.4474E+02
     -6.178  0.4379E+01  0.4522E+02
     -6.070  0.3996E+01  0.4563E+02
     -5.961  0.4211E+01  0.4607E+02
     -5.853  0.4839E+01  0.4656E+02
     -5.745  0.5624E+01  0.4712E+02
     -5.637  0.6420E+01  0.4778E+02
     -5.529  0.9755E+01  0.4863E+02
     -5.421  0.8966E+01  0.4971E+02
     -5.313  0.6687E+01  0.5055E+02
     -5.205  0.4408E+01  0.5115E+02
     -5.097  0.2658E+01  0.5152E+02
     -4.989  0.2893E+01  0.5181E+02
     -4.881  0.4074E+01  0.5218E+02
     -4.773  0.5401E+01  0.5269E+02
     -4.665  0.6917E+01  0.5335E+02
     -4.557  0.8133E+01  0.5419E+02
     -4.449  0.7028E+01  0.5501E+02
     -4.340  0.5785E+01  0.5570E+02
     -4.232  0.6433E+01  0.5633E+02
     -4.124  0.7371E+01  0.5713E+02
     -4.016  0.6853E+01  0.5790E+02
     -3.908  0.6336E+01  0.5861E+02
     -3.800  0.6457E+01  0.5929E+02
     -3.692  0.6188E+01  0.5997E+02
     -3.584  0.1198E+02  0.6103E+02
     -3.476  0.8904E+01  0.6216E+02
     -3.368  0.8016E+01  0.6309E+02
     -3.260  0.7256E+01  0.6391E+02
     -3.152  0.6766E+01  0.6465E+02
     -3.044  0.7448E+01  0.6542E+02
     -2.936  0.8498E+01  0.6628E+02
     -2.828  0.1006E+02  0.6726E+02
     -2.719  0.1425E+02  0.6856E+02
     -2.611  0.1289E+02  0.7012E+02
     -2.503  0.1169E+02  0.7140E+02
     -2.395  0.1284E+02  0.7274E+02
     -2.287  0.1372E+02  0.7410E+02
     -2.179  0.1404E+02  0.7567E+02
     -2.071  0.1411E+02  0.7711E+02
     -1.963  0.1342E+02  0.7897E+02
     -1.855  0.1277E+02  0.8022E+02
     -1.747  0.1640E+02  0.8226E+02
     -1.639  0.1843E+02  0.8418E+02
     -1.531  0.1519E+02  0.8607E+02
     -1.423  0.1226E+02  0.8756E+02
     -1.315  0.1043E+02  0.8877E+02
     -1.207  0.9228E+01  0.8984E+02
     -1.098  0.7561E+01  0.9078E+02
     -0.990  0.1050E+02  0.9174E+02
     -0.882  0.1326E+02  0.9306E+02
     -0.774  0.1408E+02  0.9449E+02
     -0.666  0.1029E+02  0.9602E+02
     -0.558  0.9666E+01  0.9704E+02
     -0.450  0.1088E+02  0.9815E+02
     -0.342  0.1037E+02  0.9928E+02
     -0.234  0.1107E+02  0.1004E+03
     -0.126  0.9522E+01  0.1015E+03
     -0.018  0.9234E+01  0.1026E+03
      0.090  0.9580E+01  0.1036E+03
      0.198  0.9725E+01  0.1047E+03
      0.306  0.9316E+01  0.1057E+03
      0.414  0.9207E+01  0.1067E+03
      0.523  0.9470E+01  0.1077E+03
      0.631  0.9422E+01  0.1087E+03
      0.739  0.9277E+01  0.1098E+03
      0.847  0.9352E+01  0.1108E+03
      0.955  0.9055E+01  0.1118E+03
      1.063  0.9464E+01  0.1128E+03
      1.171  0.9613E+01  0.1138E+03
      1.279  0.9912E+01  0.1148E+03
      1.387  0.1031E+02  0.1159E+03
      1.495  0.7751E+01  0.1169E+03
      1.603  0.6680E+01  0.1176E+03
      1.711  0.6131E+01  0.1183E+03
      1.819  0.4963E+01  0.1189E+03
      1.927  0.3852E+01  0.1194E+03
      2.035  0.3934E+01  0.1198E+03
      2.144  0.6311E+01  0.1203E+03
      2.252  0.8319E+01  0.1212E+03
      2.360  0.5791E+01  0.1221E+03
      2.468  0.9252E+01  0.1229E+03
      2.576  0.6837E+01  0.1237E+03
      2.684  0.5278E+01  0.1244E+03
      2.792  0.4448E+01  0.1249E+03
      2.900  0.3777E+01  0.1254E+03
      3.008  0.3294E+01  0.1257E+03
      3.116  0.3140E+01  0.1261E+03
      3.224  0.2877E+01  0.1264E+03
      3.332  0.2471E+01  0.1267E+03
      3.440  0.2101E+01  0.1269E+03
      3.548  0.1861E+01  0.1272E+03
      3.656  0.1625E+01  0.1274E+03
      3.765  0.1386E+01  0.1275E+03
      3.873  0.1151E+01  0.1277E+03
      3.981  0.9387E+00  0.1278E+03
      4.089  0.7207E+00  0.1279E+03
      4.197  0.5198E+00  0.1279E+03
      4.305  0.3329E+00  0.1280E+03
      4.413  0.1580E+00  0.1280E+03
      4.521  0.4075E-04  0.1280E+03
      4.629  0.1117E+00  0.1280E+03
      4.737  0.2441E+00  0.1280E+03
      4.845  0.3901E+00  0.1281E+03
      4.953  0.5531E+00  0.1281E+03
      5.061  0.7393E+00  0.1282E+03
      5.169  0.9691E+00  0.1283E+03
      5.277  0.1327E+01  0.1284E+03
      5.386  0.1701E+01  0.1286E+03
      5.494  0.2044E+01  0.1288E+03
      5.602  0.2414E+01  0.1290E+03
      5.710  0.3140E+01  0.1293E+03
      5.818  0.3270E+01  0.1296E+03
      5.926  0.4216E+01  0.1300E+03
      6.034  0.6601E+01  0.1306E+03
      6.142  0.7997E+01  0.1317E+03
      6.250  0.8405E+01  0.1326E+03
      6.358  0.7972E+01  0.1334E+03
      6.466  0.7905E+01  0.1343E+03
      6.574  0.6422E+01  0.1351E+03
      6.682  0.6118E+01  0.1357E+03
      6.790  0.5666E+01  0.1364E+03
      6.898  0.5035E+01  0.1370E+03
      7.007  0.4502E+01  0.1375E+03
      7.115  0.3726E+01  0.1379E+03
      7.223  0.3568E+01  0.1383E+03
      7.331  0.3812E+01  0.1387E+03
      7.439  0.4336E+01  0.1391E+03
      7.547  0.4636E+01  0.1396E+03
      7.655  0.4702E+01  0.1401E+03
      7.763  0.4537E+01  0.1406E+03
      7.871  0.4387E+01  0.1411E+03
      7.979  0.4229E+01  0.1416E+03
      8.087  0.4068E+01  0.1420E+03
      8.195  0.3887E+01  0.1425E+03
      8.303  0.3737E+01  0.1429E+03
      8.411  0.3611E+01  0.1433E+03
      8.519  0.3527E+01  0.1437E+03
      8.627  0.3454E+01  0.1440E+03
      8.736  0.3421E+01  0.1444E+03
      8.844  0.3657E+01  0.1448E+03
      8.952  0.3788E+01  0.1452E+03
      9.060  0.3953E+01  0.1456E+03
      9.168  0.4103E+01  0.1461E+03
      9.276  0.4191E+01  0.1465E+03
      9.384  0.4166E+01  0.1470E+03
      9.492  0.4008E+01  0.1474E+03
      9.600  0.3983E+01  0.1478E+03
      9.708  0.3956E+01  0.1483E+03
      9.816  0.3973E+01  0.1487E+03
      9.924  0.3997E+01  0.1491E+03
     10.032  0.4071E+01  0.1496E+03
     10.140  0.4179E+01  0.1500E+03
     10.248  0.4319E+01  0.1505E+03
     10.357  0.4349E+01  0.1509E+03
     10.465  0.5140E+01  0.1514E+03
     10.573  0.5717E+01  0.1520E+03
     10.681  0.5337E+01  0.1526E+03
     10.789  0.4568E+01  0.1531E+03
     10.897  0.4524E+01  0.1536E+03
     11.005  0.4280E+01  0.1542E+03
     11.113  0.3516E+01  0.1546E+03
     11.221  0.3948E+01  0.1550E+03
     11.329  0.4093E+01  0.1554E+03
     11.437  0.3205E+01  0.1558E+03
     11.545  0.2588E+01  0.1561E+03
     11.653  0.3371E+01  0.1564E+03
     11.761  0.5347E+01  0.1569E+03
     11.869  0.6590E+01  0.1576E+03
     11.978  0.9781E+01  0.1584E+03
     12.086  0.1223E+02  0.1596E+03
     12.194  0.1389E+02  0.1611E+03
     12.302  0.1377E+02  0.1626E+03
     12.410  0.1116E+02  0.1639E+03
     12.518  0.8580E+01  0.1650E+03
     12.626  0.6725E+01  0.1658E+03
     12.734  0.5568E+01  0.1665E+03
     12.842  0.5370E+01  0.1671E+03
     12.950  0.3130E+01  0.1676E+03
     13.058  0.1839E+01  0.1678E+03
     13.166  0.7651E+00  0.1680E+03
     13.274  0.4742E-01  0.1680E+03
     13.382  0.0000E+00  0.1680E+03
     13.490  0.0000E+00  0.1680E+03
     13.599  0.0000E+00  0.1680E+03
     13.707  0.0000E+00  0.1680E+03
     13.815  0.0000E+00  0.1680E+03
     13.923  0.0000E+00  0.1680E+03
     14.031  0.0000E+00  0.1680E+03
     14.139  0.0000E+00  0.1680E+03
     14.247  0.0000E+00  0.1680E+03
     14.355  0.0000E+00  0.1680E+03
     14.463  0.0000E+00  0.1680E+03
     14.571  0.0000E+00  0.1680E+03
     14.679  0.0000E+00  0.1680E+03
     14.787  0.0000E+00  0.1680E+03
     14.895  0.0000E+00  0.1680E+03
     15.003  0.0000E+00  0.1680E+03
     15.111  0.0000E+00  0.1680E+03
     15.220  0.0000E+00  0.1680E+03
     15.328  0.0000E+00  0.1680E+03
