   32   32    1    1
  0.8992511E+01  0.4932875E-09  0.4932875E-09  0.1366141E-08  0.5000000E-15
  1.000000000000000E-004
  CAR 
 graphite                                
    128    163     84
 
  0.0000000E+00  0.0000000E+00  0.0000000E+00  0.3086420E-02
    1      -15.092260
    2      -14.965973
    3      -14.965375
    4      -14.831301
    5       -9.780228
    6       -9.769655
    7       -9.766771
    8       -9.729351
    9       -9.727903
   10       -9.717461
   11       -9.716199
   12       -9.716191
   13       -9.712102
   14       -9.684525
   15       -9.671780
   16       -9.669214
   17       -8.706841
   18       -8.705518
   19       -8.704379
   20       -8.678774
   21       -8.678119
   22       -8.675825
   23       -8.675525
   24       -8.675515
   25       -8.672889
   26       -8.633456
   27       -8.632655
   28       -8.630280
   29       -3.904935
   30       -3.093181
   31       -3.091579
   32       -2.111482
   33       -1.879568
   34       -1.877328
   35       -1.861892
   36       -1.856272
   37       -1.855768
   38       -1.855763
   39       -1.851666
   40       -1.839003
   41       -1.837069
   42       -1.832496
   43       -1.829740
   44       -1.814605
   45        1.514575
   46        1.521011
   47        1.521036
   48        1.526141
   49        1.532764
   50        1.537158
   51        1.537685
   52        1.543870
   53        1.804052
   54        1.807381
   55        1.809437
   56        2.162007
   57        2.164456
   58        2.171814
   59        2.172058
   60        2.172166
   61        2.176171
   62        2.418173
   63        2.435106
   64        2.436880
   65        6.029950
   66        6.032151
   67        6.037339
   68        6.177416
   69        6.180239
   70        6.182320
   71        6.184596
   72        6.184868
   73        6.188208
   74        6.656985
   75        6.663292
   76        6.666543
   77        8.683301
   78       11.181225
   79       11.184515
   80       11.742196
   81       11.746606
   82       11.777849
   83       11.912389
   84       11.915777
 
  0.1111111E+00  0.0000000E+00  0.0000000E+00  0.6172840E-02
    1      -15.018697
    2      -14.892907
    3      -14.892313
    4      -14.758854
    5      -10.561657
    6      -10.472321
    7      -10.471612
    8      -10.379231
    9      -10.025279
   10      -10.016338
   11       -9.948738
   12       -9.948005
   13       -9.939258
   14       -9.938231
   15       -9.870874
   16       -9.860917
   17       -8.398306
   18       -8.394203
   19       -8.337866
   20       -8.335521
   21       -8.332411
   22       -8.331308
   23       -8.268851
   24       -8.264064
   25       -7.881831
   26       -7.812334
   27       -7.810974
   28       -7.738432
   29       -3.815599
   30       -3.006190
   31       -3.004589
   32       -2.105377
   33       -2.088453
   34       -2.079593
   35       -2.079105
   36       -2.063072
   37       -2.061257
   38       -2.052881
   39       -2.035769
   40       -2.027612
   41       -1.805266
   42       -1.783407
   43       -1.780387
   44       -1.758433
   45        1.216544
   46        1.226643
   47        1.233132
   48        1.234779
   49        1.244433
   50        1.360619
   51        1.368836
   52        1.373260
   53        1.383574
   54        1.690453
   55        1.695015
   56        1.745126
   57        1.747742
   58        2.110454
   59        2.112839
   60        2.119764
   61        2.120679
   62        2.263596
   63        2.462789
   64        2.477536
   65        6.115378
   66        6.118961
   67        6.309574
   68        6.313287
   69        6.315060
   70        6.318810
   71        6.419064
   72        6.721781
   73        6.725869
   74        6.791891
   75        6.799783
   76        7.257301
   77        8.772794
   78       11.260446
   79       11.263724
   80       11.784808
   81       11.951029
   82       11.952291
   83       12.094281
   84       12.122386
 
  0.2222222E+00  0.0000000E+00  0.0000000E+00  0.6172840E-02
    1      -14.798207
    2      -14.674037
    3      -14.673454
    4      -14.541856
    5      -11.572095
    6      -11.472228
    7      -11.471711
    8      -11.367524
    9      -10.370782
   10      -10.364826
   11      -10.283297
   12      -10.282917
   13      -10.277282
   14      -10.276178
   15      -10.192016
   16      -10.185693
   17       -7.717027
   18       -7.709697
   19       -7.650482
   20       -7.648268
   21       -7.642253
   22       -7.641289
   23       -7.578198
   24       -7.570735
   25       -6.556469
   26       -6.491780
   27       -6.490508
   28       -6.423577
   29       -3.548416
   30       -2.745886
   31       -2.744295
   32       -2.711635
   33       -2.695594
   34       -2.679602
   35       -2.679324
   36       -2.664084
   37       -2.662372
   38       -2.646375
   39       -2.630224
   40       -1.777010
   41       -1.590296
   42       -1.568925
   43       -1.565824
   44       -1.544257
   45        0.211982
   46        0.395736
   47        0.412767
   48        0.416433
   49        0.433313
   50        0.855186
   51        0.857211
   52        0.940795
   53        0.952708
   54        0.957312
   55        0.970182
   56        1.474383
   57        1.478896
   58        1.583126
   59        1.989666
   60        1.991963
   61        1.997242
   62        1.998172
   63        2.504461
   64        2.514991
   65        6.374400
   66        6.376125
   67        6.643877
   68        6.647071
   69        6.649476
   70        6.652920
   71        7.102134
   72        7.107728
   73        7.563509
   74        7.945121
   75        7.948506
   76        8.470100
   77        9.041934
   78       11.497166
   79       11.500426
   80       11.899453
   81       12.059665
   82       12.061353
   83       12.202816
   84       12.912035
 
  0.3333333E+00  0.0000000E+00  0.0000000E+00  0.6172840E-02
    1      -14.431941
    2      -14.310509
    3      -14.309945
    4      -14.181433
    5      -12.484529
    6      -12.377646
    7      -12.377139
    8      -12.264843
    9      -10.626544
   10      -10.622861
   11      -10.534978
   12      -10.534577
   13      -10.531367
   14      -10.530045
   15      -10.439145
   16      -10.435316
   17       -6.909552
   18       -6.900553
   19       -6.848318
   20       -6.846005
   21       -6.838673
   22       -6.837400
   23       -6.782687
   24       -6.773817
   25       -5.123675
   26       -5.067890
   27       -5.066387
   28       -5.009069
   29       -3.526816
   30       -3.512813
   31       -3.488807
   32       -3.488594
   33       -3.475397
   34       -3.473591
   35       -3.449418
   36       -3.435255
   37       -3.106132
   38       -2.315559
   39       -2.313956
   40       -1.363682
   41       -1.241030
   42       -1.220795
   43       -1.217530
   44       -1.196696
   45       -0.807167
   46       -0.787389
   47       -0.761588
   48       -0.758887
   49       -0.732813
   50       -0.098878
   51       -0.097147
   52        0.377924
   53        0.392972
   54        0.397307
   55        0.412984
   56        0.730165
   57        1.286649
   58        1.290081
   59        1.866156
   60        1.868500
   61        1.871707
   62        1.872668
   63        2.498620
   64        2.505047
   65        6.739092
   66        6.742210
   67        7.035457
   68        7.037781
   69        7.040053
   70        7.043486
   71        7.416100
   72        7.419595
   73        9.071781
   74        9.422794
   75        9.426451
   76        9.491491
   77        9.883283
   78       11.812427
   79       11.876479
   80       11.879889
   81       12.140292
   82       12.225034
   83       12.226979
   84       12.488939
 
  0.4444444E+00  0.0000000E+00  0.0000000E+00  0.6172840E-02
    1      -13.921875
    2      -13.804182
    3      -13.803654
    4      -13.679427
    5      -13.270973
    6      -13.158165
    7      -13.157624
    8      -13.038789
    9      -10.758286
   10      -10.756280
   11      -10.665498
   12      -10.664722
   13      -10.663671
   14      -10.661858
   15      -10.567463
   16      -10.565404
   17       -6.160468
   18       -6.153661
   19       -6.116642
   20       -6.114106
   21       -6.109876
   22       -6.107229
   23       -6.070334
   24       -6.064108
   25       -4.276300
   26       -4.268559
   27       -4.245451
   28       -4.243963
   29       -4.237542
   30       -4.235404
   31       -4.209716
   32       -4.201306
   33       -3.644020
   34       -3.598192
   35       -3.596318
   36       -3.549308
   37       -2.493852
   38       -2.173123
   39       -2.137533
   40       -2.135083
   41       -2.098382
   42       -1.722369
   43       -1.720465
   44       -1.718440
   45       -0.974863
   46       -0.973258
   47       -0.795502
   48       -0.774775
   49       -0.755503
   50       -0.752008
   51       -0.732409
   52       -0.219293
   53       -0.201832
   54       -0.197833
   55       -0.179698
   56       -0.087323
   57        1.182721
   58        1.184978
   59        1.791908
   60        1.794641
   61        1.795734
   62        1.796930
   63        2.480740
   64        2.483765
   65        7.026602
   66        7.029464
   67        7.303538
   68        7.304460
   69        7.305399
   70        7.309611
   71        7.593695
   72        7.596259
   73       10.116821
   74       10.692532
   75       10.911277
   76       10.962273
   77       10.965817
   78       11.346177
   79       12.200843
   80       12.210932
   81       12.282195
   82       12.351452
   83       12.406590
   84       12.409120
 
  0.6776264E-20  0.1111111E+00  0.0000000E+00  0.6172840E-02
    1      -15.018695
    2      -14.892906
    3      -14.892309
    4      -14.758852
    5      -10.561764
    6      -10.472334
    7      -10.471840
    8      -10.379368
    9      -10.025261
   10      -10.016019
   11       -9.948683
   12       -9.948004
   13       -9.939253
   14       -9.937558
   15       -9.870853
   16       -9.860538
   17       -8.398656
   18       -8.395212
   19       -8.337873
   20       -8.337010
   21       -8.332447
   22       -8.332185
   23       -8.269122
   24       -8.264866
   25       -7.880831
   26       -7.811000
   27       -7.810395
   28       -7.737511
   29       -3.815603
   30       -3.006194
   31       -3.004596
   32       -2.104202
   33       -2.088251
   34       -2.079588
   35       -2.076740
   36       -2.063144
   37       -2.061257
   38       -2.051666
   39       -2.035847
   40       -2.027618
   41       -1.806315
   42       -1.783411
   43       -1.782789
   44       -1.759863
   45        1.220255
   46        1.226480
   47        1.234781
   48        1.236954
   49        1.246293
   50        1.359118
   51        1.368832
   52        1.369183
   53        1.378926
   54        1.690624
   55        1.695994
   56        1.745013
   57        1.745967
   58        2.110802
   59        2.112837
   60        2.119783
   61        2.122800
   62        2.262528
   63        2.462852
   64        2.478651
   65        6.113603
   66        6.118840
   67        6.309074
   68        6.311823
   69        6.314629
   70        6.317068
   71        6.420866
   72        6.724287
   73        6.726851
   74        6.791777
   75        6.797709
   76        7.259065
   77        8.772789
   78       11.260425
   79       11.263702
   80       11.784179
   81       11.950714
   82       11.951098
   83       12.082727
   84       12.118111
 
  0.1111111E+00  0.1111111E+00  0.0000000E+00  0.6172840E-02
    1      -14.871529
    2      -14.746820
    3      -14.746233
    4      -14.614013
    5      -11.026687
    6      -11.023744
    7      -10.932668
    8      -10.930226
    9      -10.930207
   10      -10.926746
   11      -10.832125
   12      -10.829127
   13       -9.591070
   14       -9.540853
   15       -9.539893
   16       -9.497404
   17       -8.521271
   18       -8.495216
   19       -8.491560
   20       -8.451893
   21       -7.198712
   22       -7.195454
   23       -7.132304
   24       -7.128818
   25       -7.128798
   26       -7.125950
   27       -7.059538
   28       -7.056394
   29       -3.637219
   30       -2.832379
   31       -2.830783
   32       -2.770829
   33       -2.739045
   34       -2.737277
   35       -2.704973
   36       -1.960691
   37       -1.958346
   38       -1.935571
   39       -1.934646
   40       -1.934642
   41       -1.930393
   42       -1.909164
   43       -1.906143
   44       -1.860214
   45        0.690703
   46        0.702003
   47        0.705971
   48        0.715011
   49        0.793990
   50        0.795649
   51        1.046269
   52        1.052956
   53        1.057380
   54        1.067456
   55        1.384968
   56        1.386217
   57        1.386313
   58        1.389847
   59        2.026950
   60        2.029265
   61        2.071333
   62        2.428436
   63        2.430555
   64        2.679952
   65        6.015526
   66        6.105610
   67        6.110689
   68        6.492196
   69        6.910282
   70        6.912783
   71        7.263643
   72        7.268101
   73        7.268567
   74        7.270310
   75        7.785486
   76        7.788260
   77        8.952428
   78       11.419567
   79       11.422833
   80       12.155771
   81       12.159761
   82       12.322989
   83       12.323975
   84       12.327997
 
  0.2222222E+00  0.1111111E+00  0.0000000E+00  0.6172840E-02
    1      -14.578111
    2      -14.455543
    3      -14.454973
    4      -14.325202
    5      -11.991385
    6      -11.888333
    7      -11.887829
    8      -11.779958
    9      -11.367247
   10      -11.269255
   11      -11.268625
   12      -11.166132
   13       -9.639619
   14       -9.565901
   15       -9.565548
   16       -9.491429
   17       -8.051381
   18       -7.995544
   19       -7.992455
   20       -7.931197
   21       -6.413116
   22       -6.350980
   23       -6.350189
   24       -6.286291
   25       -5.816238
   26       -5.756564
   27       -5.755294
   28       -5.693995
   29       -3.678337
   30       -3.639357
   31       -3.637645
   32       -3.597660
   33       -3.282310
   34       -2.487083
   35       -2.486717
   36       -2.485226
   37       -2.455733
   38       -2.455542
   39       -2.423970
   40       -1.672663
   41       -1.649279
   42       -1.646243
   43       -1.622440
   44       -1.528104
   45       -0.262906
   46       -0.247303
   47       -0.240243
   48       -0.239774
   49       -0.223271
   50        0.434523
   51        0.436158
   52        0.460729
   53        0.502524
   54        0.513456
   55        0.518699
   56        0.531902
   57        1.097904
   58        1.098981
   59        1.218753
   60        1.818185
   61        2.210352
   62        2.630915
   63        2.632967
   64        2.982158
   65        5.996487
   66        6.113902
   67        6.118586
   68        6.441159
   69        7.489845
   70        7.837630
   71        7.839897
   72        8.270274
   73        8.281676
   74        8.636507
   75        8.639446
   76        9.110536
   77        9.312531
   78       11.735553
   79       11.738857
   80       12.259328
   81       12.455078
   82       12.461929
   83       12.463589
   84       12.808912
 
  0.3333333E+00  0.1111111E+00  0.0000000E+00  0.6172840E-02
    1      -14.139798
    2      -14.020498
    3      -14.019955
    4      -13.893905
    5      -12.841415
    6      -12.731844
    7      -12.731316
    8      -12.616129
    9      -11.576026
   10      -11.476294
   11      -11.475653
   12      -11.371184
   13       -9.782444
   14       -9.699813
   15       -9.699498
   16       -9.614045
   17       -7.285528
   18       -7.229518
   19       -7.226597
   20       -7.168566
   21       -5.614157
   22       -5.563308
   23       -5.561804
   24       -5.510041
   25       -4.616681
   26       -4.575968
   27       -4.574073
   28       -4.531370
   29       -4.367586
   30       -4.317592
   31       -4.316097
   32       -4.264884
   33       -3.185803
   34       -3.152485
   35       -3.151817
   36       -3.116969
   37       -2.754705
   38       -1.974504
   39       -1.972852
   40       -1.506733
   41       -1.477974
   42       -1.474551
   43       -1.446643
   44       -1.256327
   45       -1.234317
   46       -1.231171
   47       -1.216194
   48       -1.208758
   49       -1.036725
   50       -0.489502
   51       -0.487901
   52       -0.121971
   53       -0.105837
   54       -0.101155
   55       -0.084172
   56        0.252354
   57        0.369416
   58        0.913572
   59        0.914707
   60        1.675999
   61        2.213146
   62        2.721703
   63        2.723379
   64        3.236860
   65        6.004734
   66        6.232951
   67        6.236708
   68        6.541150
   69        7.997262
   70        8.292792
   71        8.294881
   72        8.619365
   73        9.833308
   74        9.852926
   75       10.143153
   76       10.145969
   77       10.538483
   78       11.442699
   79       12.173982
   80       12.178604
   81       12.552088
   82       12.631220
   83       12.633012
   84       12.864443
 
  0.4444444E+00  0.1111111E+00  0.0000000E+00  0.6172840E-02
    1      -13.561154
    2      -13.558236
    3      -13.447003
    4      -13.445088
    5      -13.444127
    6      -13.441369
    7      -13.324372
    8      -13.321407
    9      -11.646596
   10      -11.546350
   11      -11.545700
   12      -11.440632
   13       -9.836988
   14       -9.752683
   15       -9.752222
   16       -9.664714
   17       -6.777766
   18       -6.742305
   19       -6.739562
   20       -6.705954
   21       -5.142582
   22       -5.141160
   23       -5.120080
   24       -5.118205
   25       -5.113387
   26       -5.110029
   27       -5.091297
   28       -5.082178
   29       -3.603389
   30       -3.584021
   31       -3.581513
   32       -3.558239
   33       -2.910483
   34       -2.906297
   35       -2.872103
   36       -2.867797
   37       -2.865811
   38       -2.865688
   39       -2.828274
   40       -2.824823
   41       -2.062981
   42       -2.060535
   43       -1.304832
   44       -1.303040
   45       -1.302210
   46       -1.299176
   47       -0.730283
   48       -0.726096
   49       -0.709141
   50       -0.709061
   51       -0.706871
   52       -0.700273
   53       -0.686963
   54       -0.679439
   55       -0.398775
   56       -0.396038
   57        0.180915
   58        0.849693
   59        0.850875
   60        1.625246
   61        2.203620
   62        2.745491
   63        2.746685
   64        3.330283
   65        6.021932
   66        6.300407
   67        6.303072
   68        6.596487
   69        8.214970
   70        8.470119
   71        8.472465
   72        8.727211
   73       10.564757
   74       10.566407
   75       11.423132
   76       11.426442
   77       11.628919
   78       11.635689
   79       11.636401
   80       11.640253
   81       11.959520
   82       11.963232
   83       12.675437
   84       12.678568
 
 -0.4444444E+00  0.1111111E+00  0.0000000E+00  0.6172840E-02
    1      -14.140542
    2      -14.021241
    3      -14.020682
    4      -13.894644
    5      -12.840239
    6      -12.730661
    7      -12.730150
    8      -12.614957
    9      -11.577794
   10      -11.478008
   11      -11.477362
   12      -11.372972
   13       -9.779509
   14       -9.696768
   15       -9.696245
   16       -9.610771
   17       -7.278926
   18       -7.222040
   19       -7.220843
   20       -7.162057
   21       -5.624028
   22       -5.573690
   23       -5.570693
   24       -5.519405
   25       -4.627208
   26       -4.585876
   27       -4.585623
   28       -4.542260
   29       -4.370137
   30       -4.320328
   31       -4.318480
   32       -4.267456
   33       -3.173144
   34       -3.140455
   35       -3.138015
   36       -3.103902
   37       -2.755514
   38       -1.975265
   39       -1.973641
   40       -1.505225
   41       -1.475986
   42       -1.473921
   43       -1.445469
   44       -1.253844
   45       -1.232037
   46       -1.228450
   47       -1.214998
   48       -1.206206
   49       -1.037519
   50       -0.488372
   51       -0.486695
   52       -0.123415
   53       -0.106833
   54       -0.103540
   55       -0.086448
   56        0.250584
   57        0.370529
   58        0.911437
   59        0.912664
   60        1.673332
   61        2.214919
   62        2.725788
   63        2.726525
   64        3.244040
   65        6.003574
   66        6.234857
   67        6.236881
   68        6.541620
   69        7.993212
   70        8.288732
   71        8.291791
   72        8.617649
   73        9.833065
   74        9.851924
   75       10.142067
   76       10.145146
   77       10.536870
   78       11.444335
   79       12.173214
   80       12.177809
   81       12.549443
   82       12.628695
   83       12.631327
   84       12.861274
 
 -0.3333333E+00  0.1111111E+00  0.0000000E+00  0.6172840E-02
    1      -14.578646
    2      -14.456071
    3      -14.455489
    4      -14.325740
    5      -11.989991
    6      -11.887003
    7      -11.886506
    8      -11.778564
    9      -11.370824
   10      -11.272852
   11      -11.272236
   12      -11.169767
   13       -9.633076
   14       -9.558927
   15       -9.558393
   16       -9.483734
   17       -8.047061
   18       -7.989584
   19       -7.988914
   20       -7.926135
   21       -6.422994
   22       -6.361627
   23       -6.359108
   24       -6.295958
   25       -5.818794
   26       -5.759178
   27       -5.757713
   28       -5.696348
   29       -3.692125
   30       -3.652560
   31       -3.652157
   32       -3.611566
   33       -3.282898
   34       -2.487463
   35       -2.485888
   36       -2.470761
   37       -2.440560
   38       -2.438462
   39       -2.407775
   40       -1.670717
   41       -1.647439
   42       -1.644201
   43       -1.620497
   44       -1.528684
   45       -0.263365
   46       -0.247502
   47       -0.243150
   48       -0.239050
   49       -0.225170
   50        0.435738
   51        0.437529
   52        0.457225
   53        0.504558
   54        0.516114
   55        0.519036
   56        0.531438
   57        1.093683
   58        1.094960
   59        1.219884
   60        1.812760
   61        2.212957
   62        2.638436
   63        2.638877
   64        2.995563
   65        5.992483
   66        6.116772
   67        6.118909
   68        6.444330
   69        7.485160
   70        7.831401
   71        7.835121
   72        8.269780
   73        8.277307
   74        8.635111
   75        8.638369
   76        9.108752
   77        9.311732
   78       11.734704
   79       11.737999
   80       12.258237
   81       12.454959
   82       12.459817
   83       12.462083
   84       12.807672
 
 -0.2222222E+00  0.1111111E+00  0.0000000E+00  0.6172840E-02
    1      -14.871850
    2      -14.747147
    3      -14.746552
    4      -14.614337
    5      -11.030626
    6      -11.023588
    7      -10.935765
    8      -10.935229
    9      -10.928676
   10      -10.928107
   11      -10.836295
   12      -10.829117
   13       -9.580003
   14       -9.528584
   15       -9.528071
   16       -9.484242
   17       -8.521292
   18       -8.493103
   19       -8.492586
   20       -8.450773
   21       -7.204694
   22       -7.199696
   23       -7.137786
   24       -7.135419
   25       -7.132282
   26       -7.130971
   27       -7.065678
   28       -7.060759
   29       -3.637574
   30       -2.832729
   31       -2.831142
   32       -2.786324
   33       -2.754018
   34       -2.753472
   35       -2.720580
   36       -1.957617
   37       -1.942862
   38       -1.933454
   39       -1.930407
   40       -1.918194
   41       -1.916182
   42       -1.905864
   43       -1.891234
   44       -1.860566
   45        0.685107
   46        0.696029
   47        0.696278
   48        0.706798
   49        0.789674
   50        0.796480
   51        1.054774
   52        1.062788
   53        1.063196
   54        1.072011
   55        1.379684
   56        1.381052
   57        1.387277
   58        1.389569
   59        2.019285
   60        2.029464
   61        2.074179
   62        2.437781
   63        2.438305
   64        2.696753
   65        6.009819
   66        6.109104
   67        6.111549
   68        6.498303
   69        6.909359
   70        6.910130
   71        7.260342
   72        7.264092
   73        7.264558
   74        7.267841
   75        7.781747
   76        7.784365
   77        8.951934
   78       11.418997
   79       11.422260
   80       12.156915
   81       12.190318
   82       12.323638
   83       12.330115
   84       12.357192
 
 -0.1111111E+00  0.1111111E+00  0.0000000E+00  0.6172840E-02
    1      -15.018801
    2      -14.893009
    3      -14.892409
    4      -14.758956
    5      -10.569326
    6      -10.479980
    7      -10.479626
    8      -10.387270
    9      -10.015997
   10      -10.013764
   11       -9.939269
   12       -9.937843
   13       -9.937830
   14       -9.934746
   15       -9.860677
   16       -9.858397
   17       -8.397446
   18       -8.395528
   19       -8.336528
   20       -8.334012
   21       -8.334002
   22       -8.332832
   23       -8.267343
   24       -8.265557
   25       -7.886561
   26       -7.817670
   27       -7.815198
   28       -7.743315
   29       -3.815723
   30       -3.006310
   31       -3.004715
   32       -2.105537
   33       -2.103427
   34       -2.079820
   35       -2.079185
   36       -2.079181
   37       -2.075118
   38       -2.053214
   39       -2.050470
   40       -2.027736
   41       -1.789148
   42       -1.766753
   43       -1.764811
   44       -1.742483
   45        1.212661
   46        1.217627
   47        1.222683
   48        1.228277
   49        1.239631
   50        1.366683
   51        1.377270
   52        1.381010
   53        1.389529
   54        1.695088
   55        1.697245
   56        1.737017
   57        1.738538
   58        2.119798
   59        2.120308
   60        2.120420
   61        2.124349
   62        2.250998
   63        2.477238
   64        2.479217
   65        6.113345
   66        6.115733
   67        6.309967
   68        6.315309
   69        6.315543
   70        6.317267
   71        6.420801
   72        6.718554
   73        6.723137
   74        6.795957
   75        6.798989
   76        7.252604
   77        8.772621
   78       11.260225
   79       11.263502
   80       11.817560
   81       11.983774
   82       11.984770
   83       12.077517
   84       12.086091
 
  0.1355253E-19  0.2222222E+00  0.0000000E+00  0.6172840E-02
    1      -14.798200
    2      -14.674035
    3      -14.673441
    4      -14.541848
    5      -11.572077
    6      -11.472226
    7      -11.471681
    8      -11.367510
    9      -10.370947
   10      -10.364612
   11      -10.283705
   12      -10.282945
   13      -10.277277
   14      -10.275524
   15      -10.192123
   16      -10.185414
   17       -7.717394
   18       -7.710556
   19       -7.650488
   20       -7.649529
   21       -7.642315
   22       -7.642092
   23       -7.578462
   24       -7.571393
   25       -6.555545
   26       -6.490533
   27       -6.489961
   28       -6.422702
   29       -3.548435
   30       -2.745902
   31       -2.744319
   32       -2.710510
   33       -2.695469
   34       -2.679590
   35       -2.676975
   36       -2.663972
   37       -2.662372
   38       -2.645098
   39       -2.630180
   40       -1.777036
   41       -1.591401
   42       -1.568929
   43       -1.568360
   44       -1.545774
   45        0.211509
   46        0.398677
   47        0.416434
   48        0.416973
   49        0.435008
   50        0.855019
   51        0.856249
   52        0.939216
   53        0.952704
   54        0.953167
   55        0.966589
   56        1.474493
   57        1.479812
   58        1.582437
   59        1.989999
   60        1.991946
   61        1.997270
   62        2.000122
   63        2.504603
   64        2.516091
   65        6.372980
   66        6.375492
   67        6.643200
   68        6.645334
   69        6.649309
   70        6.651371
   71        7.101378
   72        7.106396
   73        7.564957
   74        7.946903
   75        7.949348
   76        8.471386
   77        9.041920
   78       11.497087
   79       11.500346
   80       11.898798
   81       12.059609
   82       12.060052
   83       12.202129
   84       12.904655
 
  0.1111111E+00  0.2222222E+00  0.0000000E+00  0.6172840E-02
    1      -14.578106
    2      -14.455542
    3      -14.454963
    4      -14.325196
    5      -11.991346
    6      -11.888327
    7      -11.887757
    8      -11.779919
    9      -11.367274
   10      -11.269258
   11      -11.268676
   12      -11.166158
   13       -9.639608
   14       -9.565883
   15       -9.565546
   16       -9.491419
   17       -8.051448
   18       -7.995544
   19       -7.992616
   20       -7.931293
   21       -6.414128
   22       -6.352187
   23       -6.350962
   24       -6.287263
   25       -5.815229
   26       -5.755312
   27       -5.754575
   28       -5.693029
   29       -3.678244
   30       -3.639202
   31       -3.637645
   32       -3.597593
   33       -3.282325
   34       -2.486944
   35       -2.485789
   36       -2.485125
   37       -2.455716
   38       -2.452973
   39       -2.422554
   40       -1.673869
   41       -1.649285
   42       -1.648940
   43       -1.624000
   44       -1.528124
   45       -0.261035
   46       -0.246788
   47       -0.240241
   48       -0.238930
   49       -0.222602