   32   32    1    1
  0.8992511E+01  0.4932875E-09  0.4932875E-09  0.1366141E-08  0.5000000E-15
  1.000000000000000E-004
  CAR 
 graphite                                
    128    163     82
 
  0.0000000E+00  0.0000000E+00  0.0000000E+00  0.3086420E-02
    1      -15.092254
    2      -14.965870
    3      -14.965466
    4      -14.831295
    5       -9.780219
    6       -9.769647
    7       -9.766767
    8       -9.729491
    9       -9.727748
   10       -9.717603
   11       -9.716043
   12       -9.716037
   13       -9.712245
   14       -9.684521
   15       -9.671777
   16       -9.669204
   17       -8.706827
   18       -8.705514
   19       -8.704376
   20       -8.678915
   21       -8.677967
   22       -8.675961
   23       -8.675373
   24       -8.675367
   25       -8.673027
   26       -8.633452
   27       -8.632650
   28       -8.630272
   29       -3.904931
   30       -3.093153
   31       -3.091598
   32       -2.111477
   33       -1.879557
   34       -1.877327
   35       -1.861891
   36       -1.856410
   37       -1.855604
   38       -1.855600
   39       -1.851813
   40       -1.839145
   41       -1.836905
   42       -1.832497
   43       -1.829729
   44       -1.814604
   45        1.514568
   46        1.520966
   47        1.521195
   48        1.526066
   49        1.532703
   50        1.537326
   51        1.537632
   52        1.543850
   53        1.804059
   54        1.807386
   55        1.809442
   56        2.161885
   57        2.164589
   58        2.171747
   59        2.172192
   60        2.172244
   61        2.176048
   62        2.418177
   63        2.435110
   64        2.436885
   65        6.029958
   66        6.032157
   67        6.037343
   68        6.177451
   69        6.180225
   70        6.182257
   71        6.184653
   72        6.184916
   73        6.188176
   74        6.656989
   75        6.663296
   76        6.666547
   77        8.683303
   78       11.181224
   79       11.184523
   80       11.744485
   81       11.882033
   82       11.917199
 
  0.1111111E+00  0.0000000E+00  0.0000000E+00  0.6172840E-02
    1      -15.018691
    2      -14.892804
    3      -14.892403
    4      -14.758848
    5      -10.561651
    6      -10.472183
    7      -10.471737
    8      -10.379225
    9      -10.025271
   10      -10.016331
   11       -9.948875
   12       -9.947855
   13       -9.939106
   14       -9.938369
   15       -9.870869
   16       -9.860911
   17       -8.398302
   18       -8.394197
   19       -8.337710
   20       -8.335663
   21       -8.332260
   22       -8.331446
   23       -8.268844
   24       -8.264058
   25       -7.881823
   26       -7.812475
   27       -7.810820
   28       -7.738427
   29       -3.815595
   30       -3.006160
   31       -3.004609
   32       -2.105369
   33       -2.088445
   34       -2.079435
   35       -2.079244
   36       -2.063217
   37       -2.061094
   38       -2.052878
   39       -2.035767
   40       -2.027607
   41       -1.805263
   42       -1.783243
   43       -1.780536
   44       -1.758422
   45        1.216550
   46        1.226628
   47        1.233025
   48        1.234946
   49        1.244419
   50        1.360609
   51        1.369004
   52        1.373123
   53        1.383585
   54        1.690458
   55        1.695020
   56        1.745252
   57        1.747626
   58        2.110335
   59        2.112969
   60        2.119881
   61        2.120573
   62        2.263601
   63        2.462794
   64        2.477541
   65        6.115384
   66        6.118965
   67        6.309686
   68        6.313182
   69        6.315124
   70        6.318762
   71        6.419071
   72        6.721689
   73        6.725971
   74        6.791895
   75        6.799788
   76        7.257306
   77        8.772797
   78       11.260446
   79       11.263732
   80       11.784819
   81       11.956155
   82       12.077397
 
  0.2222222E+00  0.0000000E+00  0.0000000E+00  0.6172840E-02
    1      -14.798201
    2      -14.673936
    3      -14.673543
    4      -14.541850
    5      -11.572089
    6      -11.472122
    7      -11.471804
    8      -11.367518
    9      -10.370775
   10      -10.364820
   11      -10.283416
   12      -10.282784
   13      -10.277132
   14      -10.276315
   15      -10.192010
   16      -10.185687
   17       -7.717022
   18       -7.709691
   19       -7.650326
   20       -7.648410
   21       -7.642102
   22       -7.641427
   23       -7.578191
   24       -7.570728
   25       -6.556460
   26       -6.491922
   27       -6.490353
   28       -6.423572
   29       -3.548412
   30       -2.745855
   31       -2.744317
   32       -2.711627
   33       -2.695584
   34       -2.679515
   35       -2.679395
   36       -2.664230
   37       -2.662211
   38       -2.646370
   39       -2.630221
   40       -1.777005
   41       -1.590294
   42       -1.568761
   43       -1.565973
   44       -1.544245
   45        0.211987
   46        0.395753
   47        0.412622
   48        0.416599
   49        0.433307
   50        0.855295
   51        0.857113
   52        0.940790
   53        0.952875
   54        0.957166
   55        0.970197
   56        1.474388
   57        1.478901
   58        1.583131
   59        1.989555
   60        1.992084
   61        1.997340
   62        1.998084
   63        2.504466
   64        2.514996
   65        6.374406
   66        6.376129
   67        6.643989
   68        6.646972
   69        6.649553
   70        6.652853
   71        7.102139
   72        7.107733
   73        7.563515
   74        7.945036
   75        7.948602
   76        8.470106
   77        9.041937
   78       11.497166
   79       11.500434
   80       11.899459
   81       12.060408
   82       12.111356
 
  0.3333333E+00  0.0000000E+00  0.0000000E+00  0.6172840E-02
    1      -14.431935
    2      -14.310411
    3      -14.310032
    4      -14.181427
    5      -12.484523
    6      -12.377550
    7      -12.377223
    8      -12.264837
    9      -10.626538
   10      -10.622855
   11      -10.535099
   12      -10.534443
   13      -10.531216
   14      -10.530184
   15      -10.439140
   16      -10.435309
   17       -6.909547
   18       -6.900546
   19       -6.848161
   20       -6.846149
   21       -6.838517
   22       -6.837542
   23       -6.782680
   24       -6.773811
   25       -5.123666
   26       -5.068034
   27       -5.066229
   28       -5.009065
   29       -3.526808
   30       -3.512802
   31       -3.488938
   32       -3.488448
   33       -3.475542
   34       -3.473432
   35       -3.449413
   36       -3.435251
   37       -3.106128
   38       -2.315522
   39       -2.313984
   40       -1.363677
   41       -1.241028
   42       -1.220631
   43       -1.217679
   44       -1.196684
   45       -0.807162
   46       -0.787376
   47       -0.761734
   48       -0.758723
   49       -0.732813
   50       -0.098794
   51       -0.097221
   52        0.377922
   53        0.393139
   54        0.397158
   55        0.412999
   56        0.730171
   57        1.286655
   58        1.290086
   59        1.866055
   60        1.868612
   61        1.871797
   62        1.872587
   63        2.498625
   64        2.505052
   65        6.739098
   66        6.742215
   67        7.035573
   68        7.037680
   69        7.040159
   70        7.043387
   71        7.416106
   72        7.419601
   73        9.071788
   74        9.422707
   75        9.426551
   76        9.491492
   77        9.883289
   78       11.812431
   79       11.876480
   80       11.879898
   81       12.140561
   82       12.225366
 
  0.4444444E+00  0.0000000E+00  0.0000000E+00  0.6172840E-02
    1      -13.921869
    2      -13.804090
    3      -13.803735
    4      -13.679422
    5      -13.270967
    6      -13.158065
    7      -13.157712
    8      -13.038783
    9      -10.758278
   10      -10.756275
   11      -10.665634
   12      -10.664573
   13      -10.663519
   14      -10.661999
   15      -10.567458
   16      -10.565397
   17       -6.160463
   18       -6.153656
   19       -6.116483
   20       -6.114251
   21       -6.109717
   22       -6.107374
   23       -6.070326
   24       -6.064100
   25       -4.276289
   26       -4.268548
   27       -4.245595
   28       -4.243805
   29       -4.237687
   30       -4.235246
   31       -4.209713
   32       -4.201304
   33       -3.644010
   34       -3.598338
   35       -3.596158
   36       -3.549304
   37       -2.493848
   38       -2.173111
   39       -2.137679
   40       -2.134922
   41       -2.098380
   42       -1.722386
   43       -1.720383
   44       -1.718491
   45       -0.974800
   46       -0.973310
   47       -0.795496
   48       -0.774773
   49       -0.755338
   50       -0.752157
   51       -0.732397
   52       -0.219293
   53       -0.201666
   54       -0.197981
   55       -0.179684
   56       -0.087318
   57        1.182727
   58        1.184983
   59        1.791813
   60        1.794751
   61        1.795833
   62        1.796837
   63        2.480745
   64        2.483771
   65        7.026608
   66        7.029469
   67        7.303660
   68        7.304358
   69        7.305527
   70        7.309487
   71        7.593701
   72        7.596266
   73       10.116824
   74       10.692539
   75       10.911277
   76       10.962277
   77       10.965828
   78       11.346183
   79       12.202334
   80       12.211446
   81       12.294396
   82       12.383064
 
  0.6776264E-20  0.1111111E+00  0.0000000E+00  0.6172840E-02
    1      -15.018689
    2      -14.892803
    3      -14.892400
    4      -14.758846
    5      -10.561758
    6      -10.472224
    7      -10.471937
    8      -10.379362
    9      -10.025253
   10      -10.016013
   11       -9.948819
   12       -9.947855
   13       -9.939099
   14       -9.937699
   15       -9.870848
   16       -9.860532
   17       -8.398650
   18       -8.395205
   19       -8.337723
   20       -8.337147
   21       -8.332426
   22       -8.332193
   23       -8.269116
   24       -8.264860
   25       -7.880824
   26       -7.810861
   27       -7.810521
   28       -7.737504
   29       -3.815599
   30       -3.006165
   31       -3.004615
   32       -2.104199
   33       -2.088239
   34       -2.079425
   35       -2.076888
   36       -2.063291
   37       -2.061094
   38       -2.051657
   39       -2.035845
   40       -2.027612
   41       -1.806307
   42       -1.783249
   43       -1.782936
   44       -1.759856
   45        1.220266
   46        1.226463
   47        1.234949
   48        1.236822
   49        1.246302
   50        1.359130
   51        1.368996
   52        1.369036
   53        1.378930
   54        1.690630
   55        1.695999
   56        1.745090
   57        1.745901
   58        2.110684
   59        2.112967
   60        2.119914
   61        2.122679
   62        2.262534
   63        2.462856
   64        2.478656
   65        6.113611
   66        6.118844
   67        6.309133
   68        6.311779
   69        6.314591
   70        6.317113
   71        6.420872
   72        6.724304
   73        6.726846
   74        6.791782
   75        6.797713
   76        7.259070
   77        8.772792
   78       11.260424
   79       11.263710
   80       11.784234
   81       11.951313
   82       12.018864
 
  0.1111111E+00  0.1111111E+00  0.0000000E+00  0.6172840E-02
    1      -14.871523
    2      -14.746718
    3      -14.746323
    4      -14.614007
    5      -11.026679
    6      -11.023739
    7      -10.932808
    8      -10.930073
    9      -10.930054
   10      -10.926886
   11      -10.832121
   12      -10.829119
   13       -9.591062
   14       -9.540993
   15       -9.539738
   16       -9.497399
   17       -8.521272
   18       -8.495060
   19       -8.491699
   20       -8.451885
   21       -7.198702
   22       -7.195449
   23       -7.132447
   24       -7.128662
   25       -7.128642
   26       -7.126092
   27       -7.059535
   28       -7.056386
   29       -3.637215
   30       -2.832348
   31       -2.830804
   32       -2.770818
   33       -2.739191
   34       -2.737115
   35       -2.704970
   36       -1.960680
   37       -1.958345
   38       -1.935719
   39       -1.934483
   40       -1.934479
   41       -1.930541
   42       -1.909161
   43       -1.906131
   44       -1.860209
   45        0.690717
   46        0.701877
   47        0.706137
   48        0.714990
   49        0.793994
   50        0.795654
   51        1.046254
   52        1.053123
   53        1.057252
   54        1.067463
   55        1.384883
   56        1.386320
   57        1.386422
   58        1.389741
   59        2.026955
   60        2.029271
   61        2.071339
   62        2.428315
   63        2.430688
   64        2.679956
   65        6.015528
   66        6.105725
   67        6.110588
   68        6.492200
   69        6.910289
   70        6.912789
   71        7.263566
   72        7.268224
   73        7.268595
   74        7.270258
   75        7.785491
   76        7.788266
   77        8.952431
   78       11.419567
   79       11.422841
   80       12.157160
   81       12.168888
   82       12.325694
 
  0.2222222E+00  0.1111111E+00  0.0000000E+00  0.6172840E-02
    1      -14.578105
    2      -14.455444
    3      -14.455061
    4      -14.325197
    5      -11.991379
    6      -11.888234
    7      -11.887915
    8      -11.779952
    9      -11.367240
   10      -11.269128
   11      -11.268739
   12      -11.166126
   13       -9.639611
   14       -9.566026
   15       -9.565410
   16       -9.491424
   17       -8.051377
   18       -7.995388
   19       -7.992598
   20       -7.931189
   21       -6.413110
   22       -6.350829
   23       -6.350327
   24       -6.286284
   25       -5.816229
   26       -5.756707
   27       -5.755137
   28       -5.693990
   29       -3.678327
   30       -3.639502
   31       -3.637486
   32       -3.597656
   33       -3.282306
   34       -2.487079
   35       -2.486675
   36       -2.485255
   37       -2.455722
   38       -2.455539
   39       -2.423964
   40       -1.672660
   41       -1.649115
   42       -1.646392
   43       -1.622429
   44       -1.528099
   45       -0.262890
   46       -0.247385
   47       -0.240078
   48       -0.239832
   49       -0.223276
   50        0.434609
   51        0.436083
   52        0.460733
   53        0.502513
   54        0.513623
   55        0.518560
   56        0.531916
   57        1.097916
   58        1.098979
   59        1.218759
   60        1.818190
   61        2.210358
   62        2.630795
   63        2.633098
   64        2.982162
   65        5.996490
   66        6.114023
   67        6.118478
   68        6.441164
   69        7.489851
   70        7.837694
   71        7.839845
   72        8.270281
   73        8.281682
   74        8.636431
   75        8.639534
   76        9.110542
   77        9.312533
   78       11.735553
   79       11.738865
   80       12.259437
   81       12.461489
   82       12.462140
 
  0.3333333E+00  0.1111111E+00  0.0000000E+00  0.6172840E-02
    1      -14.139792
    2      -14.020403
    3      -14.020038
    4      -13.893900
    5      -12.841409
    6      -12.731744
    7      -12.731403
    8      -12.616123
    9      -11.576020
   10      -11.476167
   11      -11.475767
   12      -11.371178
   13       -9.782437
   14       -9.699778
   15       -9.699520
   16       -9.614039
   17       -7.285523
   18       -7.229361
   19       -7.226741
   20       -7.168559
   21       -5.614150
   22       -5.563150
   23       -5.561949
   24       -5.510034
   25       -4.616671
   26       -4.576112
   27       -4.573915
   28       -4.531366
   29       -4.367577
   30       -4.317737
   31       -4.315938
   32       -4.264879
   33       -3.185793
   34       -3.152629
   35       -3.151659
   36       -3.116965
   37       -2.754701
   38       -1.974462
   39       -1.972885
   40       -1.506719
   41       -1.478120
   42       -1.474388
   43       -1.446643
   44       -1.256324
   45       -1.234153
   46       -1.231320
   47       -1.216189
   48       -1.208746
   49       -1.036720
   50       -0.489435
   51       -0.487959
   52       -0.121974
   53       -0.105672
   54       -0.101302
   55       -0.084157
   56        0.252359
   57        0.369421
   58        0.913562
   59        0.914727
   60        1.676004
   61        2.213152
   62        2.721589
   63        2.723504
   64        3.236865
   65        6.004739
   66        6.233081
   67        6.236590
   68        6.541157
   69        7.997267
   70        8.292904
   71        8.294781
   72        8.619371
   73        9.833315
   74        9.852928
   75       10.143105
   76       10.146030
   77       10.538489
   78       11.442702
   79       12.173983
   80       12.178611
   81       12.627771
   82       12.634082
 
  0.4444444E+00  0.1111111E+00  0.0000000E+00  0.6172840E-02
    1      -13.561147
    2      -13.558231
    3      -13.447141
    4      -13.444938
    5      -13.443976
    6      -13.441507
    7      -13.324367
    8      -13.321400
    9      -11.646590
   10      -11.546223
   11      -11.545815
   12      -11.440626
   13       -9.836981
   14       -9.752577
   15       -9.752315
   16       -9.664708
   17       -6.777762
   18       -6.742146
   19       -6.739708
   20       -6.705945
   21       -5.142575
   22       -5.141152
   23       -5.120225
   24       -5.118048
   25       -5.113227
   26       -5.110175
   27       -5.091296
   28       -5.082168
   29       -3.603374
   30       -3.584167
   31       -3.581355
   32       -3.558239
   33       -2.910470
   34       -2.906289
   35       -2.872248
   36       -2.867636
   37       -2.865846
   38       -2.865638
   39       -2.828274
   40       -2.824817
   41       -2.062976
   42       -2.060531
   43       -1.304898
   44       -1.302956
   45       -1.302119
   46       -1.299265
   47       -0.730272
   48       -0.726103
   49       -0.709286
   50       -0.708901
   51       -0.706706
   52       -0.700414
   53       -0.686961
   54       -0.679425
   55       -0.398770
   56       -0.396033
   57        0.180920
   58        0.849661
   59        0.850917
   60        1.625251
   61        2.203625
   62        2.745390
   63        2.746796
   64        3.330288
   65        6.021937
   66        6.300544
   67        6.302947
   68        6.596493
   69        8.214975
   70        8.470259
   71        8.472338
   72        8.727217
   73       10.564760
   74       10.566410
   75       11.423140
   76       11.426447
   77       11.628871
   78       11.635809
   79       11.636364
   80       11.640244
   81       11.959528
   82       11.963239
 
 -0.4444444E+00  0.1111111E+00  0.0000000E+00  0.6172840E-02
    1      -14.140536
    2      -14.021142
    3      -14.020769
    4      -13.894638
    5      -12.840232
    6      -12.730566
    7      -12.730233
    8      -12.614951
    9      -11.577788
   10      -11.477881
   11      -11.477477
   12      -11.372966
   13       -9.779503
   14       -9.696646
   15       -9.696354
   16       -9.610765
   17       -7.278920
   18       -7.221884
   19       -7.220985
   20       -7.162051
   21       -5.624023
   22       -5.573531
   23       -5.570839
   24       -5.519397
   25       -4.627200
   26       -4.586010
   27       -4.585477
   28       -4.542255
   29       -4.370127
   30       -4.320472
   31       -4.318321
   32       -4.267452
   33       -3.173132
   34       -3.140600
   35       -3.137855
   36       -3.103900
   37       -2.755510
   38       -1.975229
   39       -1.973668
   40       -1.505212
   41       -1.476133
   42       -1.473758
   43       -1.445467
   44       -1.253842
   45       -1.231873
   46       -1.228599
   47       -1.214994
   48       -1.206194
   49       -1.037514
   50       -0.488296
   51       -0.486761
   52       -0.123414
   53       -0.106668
   54       -0.103689
   55       -0.086435
   56        0.250589
   57        0.370534
   58        0.911386
   59        0.912725
   60        1.673337
   61        2.214924
   62        2.725715
   63        2.726609
   64        3.244045
   65        6.003580
   66        6.234969
   67        6.236781
   68        6.541626
   69        7.993218
   70        8.288858
   71        8.291677
   72        8.617655
   73        9.833072
   74        9.851926
   75       10.142000
   76       10.145225
   77       10.536876
   78       11.444338
   79       12.173214
   80       12.177817
   81       12.550121
   82       12.630937
 
 -0.3333333E+00  0.1111111E+00  0.0000000E+00  0.6172840E-02
    1      -14.578640
    2      -14.455969
    3      -14.455579
    4      -14.325735
    5      -11.989985
    6      -11.886906
    7      -11.886591
    8      -11.778558
    9      -11.370818
   10      -11.272727
   11      -11.272348
   12      -11.169761
   13       -9.633070
   14       -9.558797
   15       -9.558511
   16       -9.483727
   17       -8.047054
   18       -7.989437
   19       -7.989047
   20       -7.926129
   21       -6.422989
   22       -6.361470
   23       -6.359252
   24       -6.295950
   25       -5.818785
   26       -5.759321
   27       -5.757556
   28       -5.696343
   29       -3.692118
   30       -3.652425
   31       -3.652278
   32       -3.611560
   33       -3.282893
   34       -2.487432
   35       -2.485909
   36       -2.470750
   37       -2.440706
   38       -2.438300
   39       -2.407773
   40       -1.670715
   41       -1.647275
   42       -1.644350
   43       -1.620486
   44       -1.528679
   45       -0.263350
   46       -0.247600
   47       -0.242985
   48       -0.239100
   49       -0.225167
   50        0.435833
   51        0.437444
   52        0.457230
   53        0.504559
   54        0.516280
   55        0.518888
   56        0.531451
   57        1.093612
   58        1.095041
   59        1.219889
   60        1.812765
   61        2.212963
   62        2.638443
   63        2.638881
   64        2.995567
   65        5.992489
   66        6.116822
   67        6.118869
   68        6.444336
   69        7.485165
   70        7.831515
   71        7.835018
   72        8.269787
   73        8.277313
   74        8.635025
   75        8.638467
   76        9.108758
   77        9.311735
   78       11.734704
   79       11.738007
   80       12.258279
   81       12.456541
   82       12.461945
 
 -0.2222222E+00  0.1111111E+00  0.0000000E+00  0.6172840E-02
    1      -14.871844
    2      -14.747044
    3      -14.746643
    4      -14.614332
    5      -11.030620
    6      -11.023581
    7      -10.935651
    8      -10.935330
    9      -10.928556
   10      -10.928215
   11      -10.836289
   12      -10.829111
   13       -9.579996
   14       -9.528439
   15       -9.528202
   16       -9.484236
   17       -8.521285
   18       -8.492955
   19       -8.492722
   20       -8.450767
   21       -7.204689
   22       -7.199688
   23       -7.137630
   24       -7.135562
   25       -7.132423
   26       -7.130816
   27       -7.065671
   28       -7.060754
   29       -3.637570
   30       -2.832701
   31       -2.831161
   32       -2.786316
   33       -2.753863
   34       -2.753614
   35       -2.720574
   36       -1.957614
   37       -1.942849
   38       -1.933290
   39       -1.930555
   40       -1.918341
   41       -1.916019
   42       -1.905853
   43       -1.891233
   44       -1.860561
   45        0.685118
   46        0.696126
   47        0.696198
   48        0.706802
   49        0.789679
   50        0.796484
   51        1.054786
   52        1.062954
   53        1.063045
   54        1.072015
   55        1.379594
   56        1.381152
   57        1.387395
   58        1.389461
   59        2.019290
   60        2.029469
   61        2.074185
   62        2.437894
   63        2.438204
   64        2.696757
   65        6.009825
   66        6.109121
   67        6.111542
   68        6.498307
   69        6.909364
   70        6.910137
   71        7.260433
   72        7.264034
   73        7.264462
   74        7.267926
   75        7.781753
   76        7.784370
   77        8.951937
   78       11.418997
   79       11.422269
   80       12.158541
   81       12.214437
   82       12.336813
 
 -0.1111111E+00  0.1111111E+00  0.0000000E+00  0.6172840E-02
    1      -15.018795
    2      -14.892905
    3      -14.892501
    4      -14.758950
    5      -10.569319
    6      -10.479929
    7      -10.479664
    8      -10.387264
    9      -10.015989
   10      -10.013758
   11       -9.939410
   12       -9.937688
   13       -9.937676
   14       -9.934887
   15       -9.860672
   16       -9.858389
   17       -8.397437
   18       -8.395522
   19       -8.336669
   20       -8.333859
   21       -8.333848
   22       -8.332971
   23       -8.267339
   24       -8.265550
   25       -7.886556
   26       -7.817514
   27       -7.815340
   28       -7.743308
   29       -3.815719
   30       -3.006282
   31       -3.004733
   32       -2.105527
   33       -2.103425
   34       -2.079968
   35       -2.079022
   36       -2.079018
   37       -2.075265
   38       -2.053210
   39       -2.050458
   40       -2.027731
   41       -1.789135
   42       -1.766901
   43       -1.764648
   44       -1.742482
   45        1.212665
   46        1.217599
   47        1.222851
   48        1.228162
   49        1.239640
   50        1.366695
   51        1.377144
   52        1.381177
   53        1.389509
   54        1.695093
   55        1.697250
   56        1.736910
   57        1.738657
   58        2.119702
   59        2.120437
   60        2.120527
   61        2.124230
   62        2.251003
   63        2.477242
   64        2.479222
   65        6.113353
   66        6.115738
   67        6.309885
   68        6.315360
   69        6.315608
   70        6.317255
   71        6.420806
   72        6.718663
   73        6.723039
   74        6.795962
   75        6.798993
   76        7.252609
   77        8.772624
   78       11.260224
   79       11.263511
   80       11.817607
   81       11.986658
   82       12.071172
 
  0.1355253E-19  0.2222222E+00  0.0000000E+00  0.6172840E-02
    1      -14.798194
    2      -14.673932
    3      -14.673533
    4      -14.541843
    5      -11.572071
    6      -11.472114
    7      -11.471781
    8      -11.367504
    9      -10.370940
   10      -10.364606
   11      -10.283842
   12      -10.282796
   13      -10.277124
   14      -10.275664
   15      -10.192118
   16      -10.185407
   17       -7.717388
   18       -7.710549
   19       -7.650337
   20       -7.649668
   21       -7.642348
   22       -7.642045
   23       -7.578456
   24       -7.571387
   25       -6.555538
   26       -6.490393
   27       -6.490087
   28       -6.422695
   29       -3.548431
   30       -2.745874
   31       -2.744338
   32       -2.710505
   33       -2.695459
   34       -2.679428
   35       -2.677122
   36       -2.664118
   37       -2.662210
   38       -2.645089
   39       -2.630177
   40       -1.777031
   41       -1.591393
   42       -1.568768
   43       -1.568507
   44       -1.545768
   45        0.211514
   46        0.398686
   47        0.416599
   48        0.416824
   49        0.435014
   50        0.855072
   51        0.856206
   52        0.939226
   53        0.952870
   54        0.953017
   55        0.966594
   56        1.474498
   57        1.479817
   58        1.582442
   59        1.989888
   60        1.992068
   61        1.997396
   62        2.000006
   63        2.504608
   64        2.516096
   65        6.372987
   66        6.375497
   67        6.643221
   68        6.645326
   69        6.649321
   70        6.651368
   71        7.101383
   72        7.106402
   73        7.564963
   74        7.946917
   75        7.949345
   76        8.471392
   77        9.041923
   78       11.497086
   79       11.500354
   80       11.898803
   81       12.059917
   82       12.088759
 
  0.1111111E+00  0.2222222E+00  0.0000000E+00  0.6172840E-02
    1      -14.578100
    2      -14.455441
    3      -14.455053
    4      -14.325191
    5      -11.991340
    6      -11.888212
    7      -11.887859
    8      -11.779913
    9      -11.367268
   10      -11.269138
   11      -11.268784
   12      -11.166152
   13       -9.639601
   14       -9.566006
   15       -9.565409
   16       -9.491413
   17       -8.051443
   18       -7.995388
   19       -7.992759
   20       -7.931285
   21       -6.414120
   22       -6.352329
   23       -6.350806
   24       -6.287258
   25       -5.815222
   26       -5.755161
   27       -5.754711
   28       -5.693022
   29       -3.678234
   30       -3.639347
   31       -3.637485
   32       -3.597590
   33       -3.282321
   34       -2.486918
   35       -2.485776
   36       -2.485150
   37       -2.455554
   38       -2.453120
   39       -2.422545
   40       -1.673860
   41       -1.649148
   42       -1.649062
   43       -1.623994
   44       -1.528119
   45       -0.261019
   46       -0.246852
   47       -0.240077
   48       -0.239011
   49       -0.222602
   50        0.434291
   51        0.435484
   52        0.461225
   53        0.502049
   54        0.513622
   55        0.516898
   56        0.529453
   57        1.098274
   58        1.099832
   59        1.218193
   60        1.818930
   61        2.210539
   62        2.631104
   63        2.633100
   64        2.982254
   65        5.996420
   66        6.113995
   67        6.117996
   68        6.440771
   69        7.488291
   70        7.835937
   71        7.838758
   72        8.271670
   73        8.280306
   74        8.638047
   75        8.640391
   76        9.111750
   77        9.312530
   78       11.735500
   79       11.738813