       N       E                     dE             d eps       ncg     rms          rms(c)
DAV:   1     0.627579002421E+03    0.62758E+03   -0.71228E+04 26756   0.163E+03
DAV:   2    -0.257033603615E+03   -0.88461E+03   -0.83950E+03 33510   0.322E+02
DAV:   3    -0.312547504141E+03   -0.55514E+02   -0.54798E+02 31612   0.811E+01
DAV:   4    -0.313811318705E+03   -0.12638E+01   -0.12606E+01 33256   0.131E+01
DAV:   5    -0.313853475143E+03   -0.42156E-01   -0.42135E-01 33784   0.217E+00    0.221E+01
DAV:   6    -0.299324427427E+03    0.14529E+02   -0.15018E+01 29920   0.110E+01    0.116E+01
DAV:   7    -0.294702128876E+03    0.46223E+01   -0.15877E+01 29330   0.113E+01    0.195E+00
DAV:   8    -0.294767878013E+03   -0.65749E-01   -0.36044E-01 30210   0.193E+00    0.372E-01
