       N       E                     dE             d eps       ncg     rms          rms(c)
DAV:   1     0.601020953674E+03    0.60102E+03   -0.71507E+04 27384   0.159E+03
DAV:   2    -0.262231201469E+03   -0.86325E+03   -0.83253E+03 34140   0.312E+02
DAV:   3    -0.312847196485E+03   -0.50616E+02   -0.50126E+02 33252   0.760E+01
DAV:   4    -0.313825551535E+03   -0.97836E+00   -0.97657E+00 35076   0.114E+01
DAV:   5    -0.313853808475E+03   -0.28257E-01   -0.28245E-01 35196   0.181E+00    0.221E+01
DAV:   6    -0.299323834962E+03    0.14530E+02   -0.14975E+01 31296   0.107E+01    0.116E+01
DAV:   7    -0.294700827315E+03    0.46230E+01   -0.15828E+01 30768   0.110E+01    0.195E+00
DAV:   8    -0.294767864564E+03   -0.67037E-01   -0.42863E-01 30864   0.190E+00    0.371E-01
DAV:   9    -0.294768341427E+03   -0.47686E-03   -0.24779E-02 32232   0.555E-01    0.163E-01
DAV:  10    -0.294768679087E+03   -0.33766E-03   -0.54541E-03 34452   0.245E-01    0.110E-01
DAV:  11    -0.294769113566E+03   -0.43448E-03   -0.42932E-03 31632   0.146E-01    0.996E-02
DAV:  12    -0.294769474671E+03   -0.36110E-03   -0.19466E-03 31092   0.111E-01    0.497E-02
DAV:  13    -0.294769754105E+03   -0.27943E-03   -0.25554E-03 33840   0.107E-01    0.830E-02
DAV:  14    -0.294769674457E+03    0.79649E-04   -0.19459E-03 33504   0.909E-02    0.383E-02
DAV:  15    -0.294769627436E+03    0.47021E-04   -0.49746E-04 33540   0.564E-02    0.234E-02
DAV:  16    -0.294769622150E+03    0.52853E-05   -0.14680E-04 31620   0.249E-02    0.176E-02
DAV:  17    -0.294769623501E+03   -0.13501E-05   -0.13067E-05 31236   0.102E-02    0.170E-02
DAV:  18    -0.294769629989E+03   -0.64881E-05   -0.23189E-04 26988   0.182E-02    0.206E-02
DAV:  19    -0.294769621187E+03    0.88016E-05   -0.89975E-05 23940   0.160E-02    0.129E-02
DAV:  20    -0.294769620344E+03    0.84284E-06   -0.29100E-06 19536   0.367E-03
   1 F= -.29966626E+03 E0= -.29966626E+03  d E =0.000000E+00
