 vasp.5.3.5 31Mar14 (build Nov 02 2014 15:17:37) complex                        
  
 executed on        ion-Intel-MKL date 2016.08.28  01:00:04
 running on    6 total cores
 distrk:  each k-point on    6 cores,    1 groups
 distr:  one band on NCORES_PER_BAND=   1 cores,    6 groups


--------------------------------------------------------------------------------------------------------


 INCAR:
 POTCAR:   PAW_PBE C 08Apr2002                    

 ----------------------------------------------------------------------------- 
|                                                                             |
|           W    W    AA    RRRRR   N    N  II  N    N   GGGG   !!!           |
|           W    W   A  A   R    R  NN   N  II  NN   N  G    G  !!!           |
|           W    W  A    A  R    R  N N  N  II  N N  N  G       !!!           |
|           W WW W  AAAAAA  RRRRR   N  N N  II  N  N N  G  GGG   !            |
|           WW  WW  A    A  R   R   N   NN  II  N   NN  G    G                |
|           W    W  A    A  R    R  N    N  II  N    N   GGGG   !!!           |
|                                                                             |
|      For optimal performance we recommend to set                            |
|        NCORE= 4 - approx SQRT( number of cores)                             |
|      NCORE specifies how many cores store one orbital (NPAR=cpu/NCORE).     |
|      This setting can  greatly improve the performance of VASP for DFT.     |
|      The default, NPAR=number of cores might be grossly inefficient         |
|      on modern multi-core architectures or massively parallel machines.     |
|      Do your own testing !!!!                                               |
|      Unfortunately you need to use the default for GW and RPA calculations. |
|      (for HF NCORE is supported but not extensively tested yet)             |
|                                                                             |
 ----------------------------------------------------------------------------- 

 POTCAR:   PAW_PBE C 08Apr2002                    
   VRHFIN =C: s2p2                                                              
   LEXCH  = PE                                                                  
   EATOM  =   147.1560 eV,   10.8157 Ry                                         
                                                                                
   TITEL  = PAW_PBE C 08Apr2002                                                 
   LULTRA =        F    use ultrasoft PP ?                                      
   IUNSCR =        0    unscreen: 0-lin 1-nonlin 2-no                           
   RPACOR =     .000    partial core radius                                     
   POMASS =   12.011; ZVAL   =    4.000    mass and valenz                      
   RCORE  =    1.500    outmost cutoff radius                                   
   RWIGS  =    1.630; RWIGS  =     .863    wigner-seitz radius (au A)           
   ENMAX  =  400.000; ENMIN  =  300.000 eV                                      
   ICORE  =        2    local potential                                         
   LCOR   =        T    correct aug charges                                     
   LPAW   =        T    paw PP                                                  
   EAUG   =  644.873                                                            
   DEXC   =     .000                                                            
   RMAX   =    2.266    core radius for proj-oper                               
   RAUG   =    1.300    factor for augmentation sphere                          
   RDEP   =    1.501    radius for radial grids                                 
   RDEPT  =    1.300    core radius for aug-charge                              
   QCUT   =   -5.516; QGAM   =   11.032    optimization parameters              
                                                                                
   Description                                                                  
     l     E      TYP  RCUT    TYP  RCUT                                        
     0   .000     23  1.200                                                     
     0   .000     23  1.200                                                     
     1   .000     23  1.500                                                     
     1  2.500     23  1.500                                                     
     2   .000      7  1.500                                                     
  local pseudopotential read in
  atomic valenz-charges read in
  non local Contribution for L=           0  read in
    real space projection operators read in
  non local Contribution for L=           0  read in
    real space projection operators read in
  non local Contribution for L=           1  read in
    real space projection operators read in
  non local Contribution for L=           1  read in
    real space projection operators read in
    PAW grid and wavefunctions read in
 
   number of l-projection  operators is LMAX  =           4
   number of lm-projection operators is LMMAX =           8
 

 ----------------------------------------------------------------------------- 
|                                                                             |
|  ADVICE TO THIS USER RUNNING 'VASP/VAMP'   (HEAR YOUR MASTER'S VOICE ...):  |
|                                                                             |
|      You have a (more or less) 'large supercell' and for larger cells       |
|      it might be more efficient to use real space projection operators      |
|      So try LREAL= Auto  in the INCAR   file.                               |
|      Mind: If you want to do a very accurate calculations keep the          |
|      reciprocal projection scheme          (i.e. LREAL=.FALSE.)             |
|                                                                             |
 ----------------------------------------------------------------------------- 

 PAW_PBE C 08Apr2002                    :
 energy of atom  1       EATOM= -147.1560
 kinetic energy error for atom=    0.0057 (will be added to EATOM!!)
 
 
 POSCAR: C                                       
  positions in direct lattice
  No initial velocities read in
 exchange correlation table for  LEXCH =        8
   RHO(1)=    0.500       N(1)  =     2000
   RHO(2)=  100.500       N(2)  =     4000
 


--------------------------------------------------------------------------------------------------------


 ion  position               nearest neighbor table
   1  0.500  0.000  0.125-  18 1.42  19 1.42  20 1.42
   2  1.000  0.000  0.125-  20 1.42  17 1.42  19 1.42
   3  0.500  0.500  0.125-  17 1.42  20 1.42  18 1.42
   4  1.000  0.500  0.125-  19 1.42  18 1.42  17 1.43
   5  0.500  0.000  0.625-  22 1.42  23 1.42  24 1.42
   6  1.000  0.000  0.625-  21 1.42  24 1.42  23 1.42
   7  0.500  0.500  0.625-  24 1.42  21 1.42  22 1.42
   8  1.000  0.500  0.625-  23 1.42  22 1.42  21 1.42
   9  0.000  0.500  0.375-  27 1.42  26 1.42  28 1.42
  10  0.500  0.500  0.375-  28 1.42  25 1.42  27 1.42
  11  0.000  1.000  0.375-  25 1.42  28 1.42  26 1.42
  12  0.500  1.000  0.375-  26 1.42  27 1.42  25 1.42
  13  0.000  0.500  0.875-  31 1.42  30 1.42  32 1.42
  14  0.500  0.500  0.875-  32 1.42  29 1.42  31 1.42
  15  0.000  1.000  0.875-  29 1.42  32 1.42  30 1.42
  16  0.500  1.000  0.875-  30 1.42  31 1.42  29 1.42
  17  0.167  0.334  0.126-   3 1.42   2 1.42   4 1.43
  18  0.666  0.334  0.125-   1 1.42   4 1.42   3 1.42
  19  0.166  0.834  0.125-   4 1.42   1 1.42   2 1.42
  20  0.666  0.834  0.125-   3 1.42   2 1.42   1 1.42
  21  0.166  0.334  0.625-   6 1.42   7 1.42   8 1.42
  22  0.666  0.334  0.625-   5 1.42   8 1.42   7 1.42
  23  0.166  0.834  0.625-   8 1.42   5 1.42   6 1.42
  24  0.666  0.834  0.625-   7 1.42   6 1.42   5 1.42
  25  0.334  0.166  0.375-  11 1.42  10 1.42  12 1.42
  26  0.834  0.166  0.375-  12 1.42   9 1.42  11 1.42
  27  0.334  0.666  0.375-   9 1.42  12 1.42  10 1.42
  28  0.834  0.666  0.375-  10 1.42  11 1.42   9 1.42
  29  0.334  0.166  0.875-  15 1.42  14 1.42  16 1.42
  30  0.834  0.166  0.875-  16 1.42  13 1.42  15 1.42
  31  0.334  0.666  0.875-  13 1.42  16 1.42  14 1.42
  32  0.834  0.666  0.875-  14 1.42  15 1.42  13 1.42
 
  LATTYP: Found a base centered orthorhombic cell.
 ALAT       =     4.9295501972
 B/A-ratio  =     1.7336081796
 C/A-ratio  =     2.7713292194
  
  Lattice vectors:
  
 A1 = (   4.9328744980,  -0.0019192860,   0.0000000000)
 A2 = (  -2.4680993993,   4.2710349859,   0.0000000000)
 A3 = (   0.0000000000,   0.0000000000,  13.6614065000)


Analysis of symmetry for initial positions (statically):
=====================================================================
 Subroutine PRICEL returns:
 Original cell was already a primitive cell.
 

 Routine SETGRP: Setting up the symmetry group for a 
 base centered orthorhombic supercell.


 Subroutine GETGRP returns: Found  1 space group operations
 (whereof  1 operations were pure point group operations)
 out of a pool of  8 trial point group operations.


The static configuration has the point symmetry C_1 .


Analysis of symmetry for dynamics (positions and initial velocities):
=====================================================================
 Subroutine PRICEL returns:
 Original cell was already a primitive cell.
 

 Routine SETGRP: Setting up the symmetry group for a 
 base centered orthorhombic supercell.


 Subroutine GETGRP returns: Found  1 space group operations
 (whereof  1 operations were pure point group operations)
 out of a pool of  8 trial point group operations.


The dynamic configuration has the point symmetry C_1 .
 
 
 KPOINTS: B4C B11C-CBC                            

Automatic generation of k-mesh.
Space group operators:
 irot       det(A)        alpha          n_x          n_y          n_z        tau_x        tau_y        tau_z
    1     1.000000     0.000001     1.000000     0.000000     0.000000     0.000000     0.000000     0.000000
 
 Subroutine IBZKPT returns following result:
 ===========================================
 
 Found    163 irreducible k-points:
 
 Following reciprocal coordinates:
            Coordinates               Weight
  0.000000  0.000000  0.000000      1.000000
  0.111111  0.000000  0.000000      2.000000
  0.222222  0.000000  0.000000      2.000000
  0.333333  0.000000  0.000000      2.000000
  0.444444  0.000000  0.000000      2.000000
  0.000000  0.111111  0.000000      2.000000
  0.111111  0.111111  0.000000      2.000000
  0.222222  0.111111  0.000000      2.000000
  0.333333  0.111111  0.000000      2.000000
  0.444444  0.111111  0.000000      2.000000
 -0.444444  0.111111  0.000000      2.000000
 -0.333333  0.111111  0.000000      2.000000
 -0.222222  0.111111  0.000000      2.000000
 -0.111111  0.111111  0.000000      2.000000
  0.000000  0.222222  0.000000      2.000000
  0.111111  0.222222  0.000000      2.000000
  0.222222  0.222222  0.000000      2.000000
  0.333333  0.222222  0.000000      2.000000
  0.444444  0.222222  0.000000      2.000000
 -0.444444  0.222222  0.000000      2.000000
 -0.333333  0.222222  0.000000      2.000000
 -0.222222  0.222222  0.000000      2.000000
 -0.111111  0.222222  0.000000      2.000000
  0.000000  0.333333  0.000000      2.000000
  0.111111  0.333333  0.000000      2.000000
  0.222222  0.333333  0.000000      2.000000
  0.333333  0.333333  0.000000      2.000000
  0.444444  0.333333  0.000000      2.000000
 -0.444444  0.333333  0.000000      2.000000
 -0.333333  0.333333  0.000000      2.000000
 -0.222222  0.333333  0.000000      2.000000
 -0.111111  0.333333  0.000000      2.000000
  0.000000  0.444444  0.000000      2.000000
  0.111111  0.444444  0.000000      2.000000
  0.222222  0.444444  0.000000      2.000000
  0.333333  0.444444  0.000000      2.000000
  0.444444  0.444444  0.000000      2.000000
 -0.444444  0.444444  0.000000      2.000000
 -0.333333  0.444444  0.000000      2.000000
 -0.222222  0.444444  0.000000      2.000000
 -0.111111  0.444444  0.000000      2.000000
  0.000000  0.000000  0.250000      2.000000
  0.111111  0.000000  0.250000      2.000000
  0.222222  0.000000  0.250000      2.000000
  0.333333  0.000000  0.250000      2.000000
  0.444444  0.000000  0.250000      2.000000
 -0.444444  0.000000  0.250000      2.000000
 -0.333333  0.000000  0.250000      2.000000
 -0.222222  0.000000  0.250000      2.000000
 -0.111111  0.000000  0.250000      2.000000
  0.000000  0.111111  0.250000      2.000000
  0.111111  0.111111  0.250000      2.000000
  0.222222  0.111111  0.250000      2.000000
  0.333333  0.111111  0.250000      2.000000
  0.444444  0.111111  0.250000      2.000000
 -0.444444  0.111111  0.250000      2.000000
 -0.333333  0.111111  0.250000      2.000000
 -0.222222  0.111111  0.250000      2.000000
 -0.111111  0.111111  0.250000      2.000000
  0.000000  0.222222  0.250000      2.000000
  0.111111  0.222222  0.250000      2.000000
  0.222222  0.222222  0.250000      2.000000
  0.333333  0.222222  0.250000      2.000000
  0.444444  0.222222  0.250000      2.000000
 -0.444444  0.222222  0.250000      2.000000
 -0.333333  0.222222  0.250000      2.000000
 -0.222222  0.222222  0.250000      2.000000
 -0.111111  0.222222  0.250000      2.000000
  0.000000  0.333333  0.250000      2.000000
  0.111111  0.333333  0.250000      2.000000
  0.222222  0.333333  0.250000      2.000000
  0.333333  0.333333  0.250000      2.000000
  0.444444  0.333333  0.250000      2.000000
 -0.444444  0.333333  0.250000      2.000000
 -0.333333  0.333333  0.250000      2.000000
 -0.222222  0.333333  0.250000      2.000000
 -0.111111  0.333333  0.250000      2.000000
  0.000000  0.444444  0.250000      2.000000
  0.111111  0.444444  0.250000      2.000000
  0.222222  0.444444  0.250000      2.000000
  0.333333  0.444444  0.250000      2.000000
  0.444444  0.444444  0.250000      2.000000
 -0.444444  0.444444  0.250000      2.000000
 -0.333333  0.444444  0.250000      2.000000
 -0.222222  0.444444  0.250000      2.000000
 -0.111111  0.444444  0.250000      2.000000
 -0.000000 -0.444444  0.250000      2.000000
  0.111111 -0.444444  0.250000      2.000000
  0.222222 -0.444444  0.250000      2.000000
  0.333333 -0.444444  0.250000      2.000000
  0.444444 -0.444444  0.250000      2.000000
 -0.444444 -0.444444  0.250000      2.000000
 -0.333333 -0.444444  0.250000      2.000000
 -0.222222 -0.444444  0.250000      2.000000
 -0.111111 -0.444444  0.250000      2.000000
  0.000000 -0.333333  0.250000      2.000000
  0.111111 -0.333333  0.250000      2.000000
  0.222222 -0.333333  0.250000      2.000000
  0.333333 -0.333333  0.250000      2.000000
  0.444444 -0.333333  0.250000      2.000000
 -0.444444 -0.333333  0.250000      2.000000
 -0.333333 -0.333333  0.250000      2.000000
 -0.222222 -0.333333  0.250000      2.000000
 -0.111111 -0.333333  0.250000      2.000000
 -0.000000 -0.222222  0.250000      2.000000
  0.111111 -0.222222  0.250000      2.000000
  0.222222 -0.222222  0.250000      2.000000
  0.333333 -0.222222  0.250000      2.000000
  0.444444 -0.222222  0.250000      2.000000
 -0.444444 -0.222222  0.250000      2.000000
 -0.333333 -0.222222  0.250000      2.000000
 -0.222222 -0.222222  0.250000      2.000000
 -0.111111 -0.222222  0.250000      2.000000
 -0.000000 -0.111111  0.250000      2.000000
  0.111111 -0.111111  0.250000      2.000000
  0.222222 -0.111111  0.250000      2.000000
  0.333333 -0.111111  0.250000      2.000000
  0.444444 -0.111111  0.250000      2.000000
 -0.444444 -0.111111  0.250000      2.000000
 -0.333333 -0.111111  0.250000      2.000000
 -0.222222 -0.111111  0.250000      2.000000
 -0.111111 -0.111111  0.250000      2.000000
  0.000000  0.000000  0.500000      1.000000
  0.111111  0.000000  0.500000      2.000000
  0.222222  0.000000  0.500000      2.000000
  0.333333  0.000000  0.500000      2.000000
  0.444444  0.000000  0.500000      2.000000
  0.000000  0.111111  0.500000      2.000000
  0.111111  0.111111  0.500000      2.000000
  0.222222  0.111111  0.500000      2.000000
  0.333333  0.111111  0.500000      2.000000
  0.444444  0.111111  0.500000      2.000000
 -0.444444  0.111111  0.500000      2.000000
 -0.333333  0.111111  0.500000      2.000000
 -0.222222  0.111111  0.500000      2.000000
 -0.111111  0.111111  0.500000      2.000000
  0.000000  0.222222  0.500000      2.000000
  0.111111  0.222222  0.500000      2.000000
  0.222222  0.222222  0.500000      2.000000
  0.333333  0.222222  0.500000      2.000000
  0.444444  0.222222  0.500000      2.000000
 -0.444444  0.222222  0.500000      2.000000
 -0.333333  0.222222  0.500000      2.000000
 -0.222222  0.222222  0.500000      2.000000
 -0.111111  0.222222  0.500000      2.000000
  0.000000  0.333333  0.500000      2.000000
  0.111111  0.333333  0.500000      2.000000
  0.222222  0.333333  0.500000      2.000000
  0.333333  0.333333  0.500000      2.000000
  0.444444  0.333333  0.500000      2.000000
 -0.444444  0.333333  0.500000      2.000000
 -0.333333  0.333333  0.500000      2.000000
 -0.222222  0.333333  0.500000      2.000000
 -0.111111  0.333333  0.500000      2.000000
  0.000000  0.444444  0.500000      2.000000
  0.111111  0.444444  0.500000      2.000000
  0.222222  0.444444  0.500000      2.000000
  0.333333  0.444444  0.500000      2.000000
  0.444444  0.444444  0.500000      2.000000
 -0.444444  0.444444  0.500000      2.000000
 -0.333333  0.444444  0.500000      2.000000
 -0.222222  0.444444  0.500000      2.000000
 -0.111111  0.444444  0.500000      2.000000
 
 Following cartesian coordinates:
            Coordinates               Weight
  0.000000  0.000000  0.000000      1.000000
  0.022530  0.013019  0.000000      2.000000
  0.045059  0.026038  0.000000      2.000000
  0.067589  0.039058  0.000000      2.000000
  0.090119  0.052077  0.000000      2.000000
  0.000010  0.026021  0.000000      2.000000
  0.022540  0.039040  0.000000      2.000000
  0.045069  0.052059  0.000000      2.000000
  0.067599  0.065079  0.000000      2.000000
  0.090129  0.078098  0.000000      2.000000
 -0.090109 -0.026056  0.000000      2.000000
 -0.067579 -0.013037  0.000000      2.000000
 -0.045049 -0.000018  0.000000      2.000000
 -0.022520  0.013002  0.000000      2.000000
  0.000020  0.052042  0.000000      2.000000
  0.022550  0.065061  0.000000      2.000000
  0.045080  0.078080  0.000000      2.000000
  0.067609  0.091099  0.000000      2.000000
  0.090139  0.104119  0.000000      2.000000
 -0.090098 -0.000035  0.000000      2.000000
 -0.067569  0.012984  0.000000      2.000000
 -0.045039  0.026003  0.000000      2.000000
 -0.022509  0.039023  0.000000      2.000000
  0.000030  0.078063  0.000000      2.000000
  0.022560  0.091082  0.000000      2.000000
  0.045090  0.104101  0.000000      2.000000
  0.067619  0.117120  0.000000      2.000000
  0.090149  0.130139  0.000000      2.000000
 -0.090088  0.025986  0.000000      2.000000
 -0.067559  0.039005  0.000000      2.000000
 -0.045029  0.052024  0.000000      2.000000
 -0.022499  0.065043  0.000000      2.000000
  0.000040  0.104084  0.000000      2.000000
  0.022570  0.117103  0.000000      2.000000
  0.045100  0.130122  0.000000      2.000000
  0.067630  0.143141  0.000000      2.000000
  0.090159  0.156160  0.000000      2.000000
 -0.090078  0.052007  0.000000      2.000000
 -0.067549  0.065026  0.000000      2.000000
 -0.045019  0.078045  0.000000      2.000000
 -0.022489  0.091064  0.000000      2.000000
  0.000000  0.000000  0.018300      2.000000
  0.022530  0.013019  0.018300      2.000000
  0.045059  0.026038  0.018300      2.000000
  0.067589  0.039058  0.018300      2.000000
  0.090119  0.052077  0.018300      2.000000
 -0.090119 -0.052077  0.018300      2.000000
 -0.067589 -0.039058  0.018300      2.000000
 -0.045059 -0.026038  0.018300      2.000000
 -0.022530 -0.013019  0.018300      2.000000
  0.000010  0.026021  0.018300      2.000000
  0.022540  0.039040  0.018300      2.000000
  0.045069  0.052059  0.018300      2.000000
  0.067599  0.065079  0.018300      2.000000
  0.090129  0.078098  0.018300      2.000000
 -0.090109 -0.026056  0.018300      2.000000
 -0.067579 -0.013037  0.018300      2.000000
 -0.045049 -0.000018  0.018300      2.000000
 -0.022520  0.013002  0.018300      2.000000
  0.000020  0.052042  0.018300      2.000000
  0.022550  0.065061  0.018300      2.000000
  0.045080  0.078080  0.018300      2.000000
  0.067609  0.091099  0.018300      2.000000
  0.090139  0.104119  0.018300      2.000000
 -0.090098 -0.000035  0.018300      2.000000
 -0.067569  0.012984  0.018300      2.000000
 -0.045039  0.026003  0.018300      2.000000
 -0.022509  0.039023  0.018300      2.000000
  0.000030  0.078063  0.018300      2.000000
  0.022560  0.091082  0.018300      2.000000
  0.045090  0.104101  0.018300      2.000000
  0.067619  0.117120  0.018300      2.000000
  0.090149  0.130139  0.018300      2.000000
 -0.090088  0.025986  0.018300      2.000000
 -0.067559  0.039005  0.018300      2.000000
 -0.045029  0.052024  0.018300      2.000000
 -0.022499  0.065043  0.018300      2.000000
  0.000040  0.104084  0.018300      2.000000
  0.022570  0.117103  0.018300      2.000000
  0.045100  0.130122  0.018300      2.000000
  0.067630  0.143141  0.018300      2.000000
  0.090159  0.156160  0.018300      2.000000
 -0.090078  0.052007  0.018300      2.000000
 -0.067549  0.065026  0.018300      2.000000
 -0.045019  0.078045  0.018300      2.000000
 -0.022489  0.091064  0.018300      2.000000
 -0.000040 -0.104084  0.018300      2.000000
  0.022489 -0.091064  0.018300      2.000000
  0.045019 -0.078045  0.018300      2.000000
  0.067549 -0.065026  0.018300      2.000000
  0.090078 -0.052007  0.018300      2.000000
 -0.090159 -0.156160  0.018300      2.000000
 -0.067630 -0.143141  0.018300      2.000000
 -0.045100 -0.130122  0.018300      2.000000
 -0.022570 -0.117103  0.018300      2.000000
 -0.000030 -0.078063  0.018300      2.000000
  0.022499 -0.065043  0.018300      2.000000
  0.045029 -0.052024  0.018300      2.000000
  0.067559 -0.039005  0.018300      2.000000
  0.090088 -0.025986  0.018300      2.000000
 -0.090149 -0.130139  0.018300      2.000000
 -0.067619 -0.117120  0.018300      2.000000
 -0.045090 -0.104101  0.018300      2.000000
 -0.022560 -0.091082  0.018300      2.000000
 -0.000020 -0.052042  0.018300      2.000000
  0.022509 -0.039023  0.018300      2.000000
  0.045039 -0.026003  0.018300      2.000000
  0.067569 -0.012984  0.018300      2.000000
  0.090098  0.000035  0.018300      2.000000
 -0.090139 -0.104119  0.018300      2.000000
 -0.067609 -0.091099  0.018300      2.000000
 -0.045080 -0.078080  0.018300      2.000000
 -0.022550 -0.065061  0.018300      2.000000
 -0.000010 -0.026021  0.018300      2.000000
  0.022520 -0.013002  0.018300      2.000000
  0.045049  0.000018  0.018300      2.000000
  0.067579  0.013037  0.018300      2.000000
  0.090109  0.026056  0.018300      2.000000
 -0.090129 -0.078098  0.018300      2.000000
 -0.067599 -0.065079  0.018300      2.000000
 -0.045069 -0.052059  0.018300      2.000000
 -0.022540 -0.039040  0.018300      2.000000
  0.000000  0.000000  0.036599      1.000000
  0.022530  0.013019  0.036599      2.000000
  0.045059  0.026038  0.036599      2.000000
  0.067589  0.039058  0.036599      2.000000
  0.090119  0.052077  0.036599      2.000000
  0.000010  0.026021  0.036599      2.000000
  0.022540  0.039040  0.036599      2.000000
  0.045069  0.052059  0.036599      2.000000
  0.067599  0.065079  0.036599      2.000000
  0.090129  0.078098  0.036599      2.000000
 -0.090109 -0.026056  0.036599      2.000000
 -0.067579 -0.013037  0.036599      2.000000
 -0.045049 -0.000018  0.036599      2.000000
 -0.022520  0.013002  0.036599      2.000000
  0.000020  0.052042  0.036599      2.000000
  0.022550  0.065061  0.036599      2.000000
  0.045080  0.078080  0.036599      2.000000
  0.067609  0.091099  0.036599      2.000000
  0.090139  0.104119  0.036599      2.000000
 -0.090098 -0.000035  0.036599      2.000000
 -0.067569  0.012984  0.036599      2.000000
 -0.045039  0.026003  0.036599      2.000000
 -0.022509  0.039023  0.036599      2.000000
  0.000030  0.078063  0.036599      2.000000
  0.022560  0.091082  0.036599      2.000000
  0.045090  0.104101  0.036599      2.000000
  0.067619  0.117120  0.036599      2.000000
  0.090149  0.130139  0.036599      2.000000
 -0.090088  0.025986  0.036599      2.000000
 -0.067559  0.039005  0.036599      2.000000
 -0.045029  0.052024  0.036599      2.000000
 -0.022499  0.065043  0.036599      2.000000
  0.000040  0.104084  0.036599      2.000000
  0.022570  0.117103  0.036599      2.000000
  0.045100  0.130122  0.036599      2.000000
  0.067630  0.143141  0.036599      2.000000
  0.090159  0.156160  0.036599      2.000000
 -0.090078  0.052007  0.036599      2.000000
 -0.067549  0.065026  0.036599      2.000000
 -0.045019  0.078045  0.036599      2.000000
 -0.022489  0.091064  0.036599      2.000000
 
 TETIRR: Found    970 inequivalent tetrahedra from     1944


--------------------------------------------------------------------------------------------------------




 Dimension of arrays:
   k-points           NKPTS =    163   k-points in BZ     NKDIM =    163   number of bands    NBANDS=     84
   number of dos      NEDOS =    301   number of ions     NIONS =     32
   non local maximal  LDIM  =      4   non local SUM 2l+1 LMDIM =      8
   total plane-waves  NPLWV = 179200
   max r-space proj   IRMAX =      1   max aug-charges    IRDMAX=   7548
   dimension x,y,z NGX =    40 NGY =   40 NGZ =  112
   dimension x,y,z NGXF=    80 NGYF=   80 NGZF=  224
   support grid    NGXF=    80 NGYF=   80 NGZF=  224
   ions per type =              32
 NGX,Y,Z   is equivalent  to a cutoff of  13.48, 13.48, 13.63 a.u.
 NGXF,Y,Z  is equivalent  to a cutoff of  26.96, 26.96, 27.26 a.u.


 I would recommend the setting:
   dimension x,y,z NGX =    39 NGY =   39 NGZ =  109
 SYSTEM =  graphite                                
 POSCAR =  C                                       

 Startparameter for this run:
   NWRITE =      2    write-flag & timer
   PREC   = accura    normal or accurate (medium, high low for compatibility)
   ISTART =      0    job   : 0-new  1-cont  2-samecut
   ICHARG =      2    charge: 1-file 2-atom 10-const
   ISPIN  =      1    spin polarized calculation?
   LNONCOLLINEAR =      F non collinear calculations
   LSORBIT =      F    spin-orbit coupling
   INIWAV =      1    electr: 0-lowe 1-rand  2-diag
   LASPH  =      F    aspherical Exc in radial PAW
   METAGGA=      F    non-selfconsistent MetaGGA calc.

 Electronic Relaxation 1
   ENCUT  =  600.0 eV  44.10 Ry    6.64 a.u.   9.85  9.85 27.29*2*pi/ulx,y,z
   ENINI  =  600.0     initial cutoff
   ENAUG  =  644.9 eV  augmentation charge cutoff
   NELM   =    200;   NELMIN=  2; NELMDL=  0     # of ELM steps 
   EDIFF  = 0.1E-05   stopping-criterion for ELM
   LREAL  =      F    real-space projection
   NLSPLINE    = F    spline interpolate recip. space projectors
   LCOMPAT=      F    compatible to vasp.4.4
   GGA_COMPAT  = T    GGA compatible to vasp.4.4-vasp.4.6
   LMAXPAW     = -100 max onsite density
   LMAXMIX     =    2 max onsite mixed and CHGCAR
   VOSKOWN=      0    Vosko Wilk Nusair interpolation
   ROPT   =    0.00000
 Ionic relaxation
   EDIFFG = 0.1E-02   stopping-criterion for IOM
   NSW    =      0    number of steps for IOM
   NBLOCK =      1;   KBLOCK =      1    inner block; outer block 
   IBRION =     -1    ionic relax: 0-MD 1-quasi-New 2-CG
   NFREE  =      0    steps in history (QN), initial steepest desc. (CG)
   ISIF   =      2    stress and relaxation
   IWAVPR =     10    prediction:  0-non 1-charg 2-wave 3-comb
   ISYM   =      2    0-nonsym 1-usesym 2-fastsym
   LCORR  =      T    Harris-Foulkes like correction to forces

   POTIM  = 0.5000    time-step for ionic-motion
   TEIN   =    0.0    initial temperature
   TEBEG  =    0.0;   TEEND  =   0.0 temperature during run
   SMASS  =  -3.00    Nose mass-parameter (am)
   estimated Nose-frequenzy (Omega)   =  0.10E-29 period in steps =****** mass=  -0.556E-27a.u.
   SCALEE = 1.0000    scale energy and forces
   NPACO  =    256;   APACO  = 16.0  distance and # of slots for P.C.
   PSTRESS=    0.0 pullay stress

  Mass of Ions in am
   POMASS =  12.01
  Ionic Valenz
   ZVAL   =   4.00
  Atomic Wigner-Seitz radii
   RWIGS  =  -1.00
  virtual crystal weights 
   VCA    =   1.00
   NELECT =     128.0000    total number of electrons
   NUPDOWN=      -1.0000    fix difference up-down

 DOS related values:
   EMIN   =  10.00;   EMAX   =-10.00  energy-range for DOS
   EFERMI =   0.00
   ISMEAR =    -5;   SIGMA  =   0.20  broadening in eV -4-tet -1-fermi 0-gaus

 Electronic relaxation 2 (details)
   IALGO  =     38    algorithm
   LDIAG  =      T    sub-space diagonalisation (order eigenvalues)
   LSUBROT=      F    optimize rotation matrix (better conditioning)
   TURBO    =      0    0=normal 1=particle mesh
   IRESTART =      0    0=no restart 2=restart with 2 vectors
   NREBOOT  =      0    no. of reboots
   NMIN     =      0    reboot dimension
   EREF     =   0.00    reference energy to select bands
   IMIX   =      4    mixing-type and parameters
     AMIX     =   0.40;   BMIX     =  1.00
     AMIX_MAG =   1.60;   BMIX_MAG =  1.00
     AMIN     =   0.10
     WC   =   100.;   INIMIX=   1;  MIXPRE=   1;  MAXMIX= -45

 Intra band minimization:
   WEIMIN = 0.0000     energy-eigenvalue tresh-hold
   EBREAK =  0.30E-08  absolut break condition
   DEPER  =   0.30     relativ break condition  

   TIME   =   0.40     timestep for ELM

  volume/ion in A,a.u.               =       8.99        60.68
  Fermi-wavevector in a.u.,A,eV,Ry     =   1.249687  2.361566 21.248450  1.561717
  Thomas-Fermi vector in A             =   2.383716
 
 Write flags
   LWAVE  =      F    write WAVECAR
   LCHARG =      F    write CHGCAR
   LVTOT  =      F    write LOCPOT, total local potential
   LVHAR  =      F    write LOCPOT, Hartree potential only
   LELF   =      F    write electronic localiz. function (ELF)
   LORBIT =      0    0 simple, 1 ext, 2 COOP (PROOUT)


 Dipole corrections
   LMONO  =      F    monopole corrections only (constant potential shift)
   LDIPOL =      F    correct potential (dipole corrections)
   IDIPOL =      0    1-x, 2-y, 3-z, 4-all directions 
   EPSILON=  1.0000000 bulk dielectric constant

 Exchange correlation treatment:
   GGA     =    PE    GGA type
   LEXCH   =     8    internal setting for exchange type
   VOSKOWN=      0    Vosko Wilk Nusair interpolation
   LHFCALC =     F    Hartree Fock is set to
   LHFONE  =     F    Hartree Fock one center treatment
   AEXX    =    0.0000 exact exchange contribution

 Linear response parameters
   LEPSILON=     F    determine dielectric tensor
   LRPA    =     F    only Hartree local field effects (RPA)
   LNABLA  =     F    use nabla operator in PAW spheres
   LVEL    =     F    velocity operator in full k-point grid
   LINTERFAST=   F  fast interpolation
   KINTER  =     0    interpolate to denser k-point grid
   CSHIFT  =0.1000    complex shift for real part using Kramers Kronig
   OMEGAMAX=  -1.0    maximum frequency
   DEG_THRESHOLD= 0.2000000E-02 threshold for treating states as degnerate
   RTIME   =    0.100 relaxation time in fs

 Orbital magnetization related:
   ORBITALMAG=     F  switch on orbital magnetization
   LCHIMAG   =     F  perturbation theory with respect to B field
   DQ        =  0.001000  dq finite difference perturbation B field



--------------------------------------------------------------------------------------------------------


 Static calculation
 charge density and potential will be updated during run
 non-spin polarized calculation
 Variant of blocked Davidson
 Davidson routine will perform the subspace rotation
 perform sub-space diagonalisation
    after iterative eigenvector-optimisation
 modified Broyden-mixing scheme, WC =      100.0
 initial mixing is a Kerker type mixing with AMIX =  0.4000 and BMIX =      1.0000
 Hartree-type preconditioning will be used
 using additional bands           20
 reciprocal scheme for non local part
 calculate Harris-corrections to forces 
   (improved forces if not selfconsistent)
 use gradient corrections 
 use of overlap-Matrix (Vanderbilt PP)
 Fermi weights with tetrahedron method with Bloechl corrections


--------------------------------------------------------------------------------------------------------


  energy-cutoff  :      600.00
  volume of cell :      287.76
      direct lattice vectors                 reciprocal lattice vectors
     4.932874498 -0.001919286  0.000000000     0.202767147  0.117172881  0.000000000
    -2.468099399  4.271034986  0.000000000     0.000091118  0.234187941  0.000000000
     0.000000000  0.000000000 13.661406500     0.000000000  0.000000000  0.073198905

  length of vectors
     4.932874871  4.932874871 13.661406500     0.234187958  0.234187958  0.073198905


 
 k-points in units of 2pi/SCALE and weight: B4C B11C-CBC                            
   0.00000000  0.00000000  0.00000000       0.003
   0.02252968  0.01301921  0.00000000       0.006
   0.04505937  0.02603842  0.00000000       0.006
   0.06758905  0.03905763  0.00000000       0.006
   0.09011873  0.05207684  0.00000000       0.006
   0.00001012  0.02602088  0.00000000       0.006
   0.02253981  0.03904009  0.00000000       0.006
   0.04506949  0.05205930  0.00000000       0.006
   0.06759917  0.06507851  0.00000000       0.006
   0.09012886  0.07809772  0.00000000       0.006
  -0.09010861 -0.02605595  0.00000000       0.006
  -0.06757892 -0.01303674  0.00000000       0.006
  -0.04504924 -0.00001754  0.00000000       0.006
  -0.02251956  0.01300167  0.00000000       0.006
   0.00002025  0.05204176  0.00000000       0.006
   0.02254993  0.06506097  0.00000000       0.006
   0.04507961  0.07808018  0.00000000       0.006
   0.06760930  0.09109939  0.00000000       0.006
   0.09013898  0.10411860  0.00000000       0.006
  -0.09009848 -0.00003507  0.00000000       0.006
  -0.06756880  0.01298414  0.00000000       0.006
  -0.04503912  0.02600335  0.00000000       0.006
  -0.02250943  0.03902256  0.00000000       0.006
   0.00003037  0.07806265  0.00000000       0.006
   0.02256006  0.09108186  0.00000000       0.006
   0.04508974  0.10410106  0.00000000       0.006
   0.06761942  0.11712027  0.00000000       0.006
   0.09014910  0.13013948  0.00000000       0.006
  -0.09008836  0.02598581  0.00000000       0.006
  -0.06755868  0.03900502  0.00000000       0.006
  -0.04502899  0.05202423  0.00000000       0.006
  -0.02249931  0.06504344  0.00000000       0.006
   0.00004050  0.10408353  0.00000000       0.006
   0.02257018  0.11710274  0.00000000       0.006
   0.04509986  0.13012195  0.00000000       0.006
   0.06762955  0.14314116  0.00000000       0.006
   0.09015923  0.15616037  0.00000000       0.006
  -0.09007824  0.05200669  0.00000000       0.006
  -0.06754855  0.06502590  0.00000000       0.006
  -0.04501887  0.07804511  0.00000000       0.006
  -0.02248919  0.09106432  0.00000000       0.006
   0.00000000  0.00000000  0.01829973       0.006
   0.02252968  0.01301921  0.01829973       0.006
   0.04505937  0.02603842  0.01829973       0.006
   0.06758905  0.03905763  0.01829973       0.006
   0.09011873  0.05207684  0.01829973       0.006
  -0.09011873 -0.05207684  0.01829973       0.006
  -0.06758905 -0.03905763  0.01829973       0.006
  -0.04505937 -0.02603842  0.01829973       0.006
  -0.02252968 -0.01301921  0.01829973       0.006
   0.00001012  0.02602088  0.01829973       0.006
   0.02253981  0.03904009  0.01829973       0.006
   0.04506949  0.05205930  0.01829973       0.006
   0.06759917  0.06507851  0.01829973       0.006
   0.09012886  0.07809772  0.01829973       0.006
  -0.09010861 -0.02605595  0.01829973       0.006
  -0.06757892 -0.01303674  0.01829973       0.006
  -0.04504924 -0.00001754  0.01829973       0.006
  -0.02251956  0.01300167  0.01829973       0.006
   0.00002025  0.05204176  0.01829973       0.006
   0.02254993  0.06506097  0.01829973       0.006
   0.04507961  0.07808018  0.01829973       0.006
   0.06760930  0.09109939  0.01829973       0.006
   0.09013898  0.10411860  0.01829973       0.006
  -0.09009848 -0.00003507  0.01829973       0.006
  -0.06756880  0.01298414  0.01829973       0.006
  -0.04503912  0.02600335  0.01829973       0.006
  -0.02250943  0.03902256  0.01829973       0.006
   0.00003037  0.07806265  0.01829973       0.006
   0.02256006  0.09108186  0.01829973       0.006
   0.04508974  0.10410106  0.01829973       0.006
   0.06761942  0.11712027  0.01829973       0.006
   0.09014910  0.13013948  0.01829973       0.006
  -0.09008836  0.02598581  0.01829973       0.006
  -0.06755868  0.03900502  0.01829973       0.006
  -0.04502899  0.05202423  0.01829973       0.006
  -0.02249931  0.06504344  0.01829973       0.006
   0.00004050  0.10408353  0.01829973       0.006
   0.02257018  0.11710274  0.01829973       0.006
   0.04509986  0.13012195  0.01829973       0.006
   0.06762955  0.14314116  0.01829973       0.006
   0.09015923  0.15616037  0.01829973       0.006
  -0.09007824  0.05200669  0.01829973       0.006
  -0.06754855  0.06502590  0.01829973       0.006
  -0.04501887  0.07804511  0.01829973       0.006
  -0.02248919  0.09106432  0.01829973       0.006
  -0.00004050 -0.10408353  0.01829973       0.006
   0.02248919 -0.09106432  0.01829973       0.006
   0.04501887 -0.07804511  0.01829973       0.006
   0.06754855 -0.06502590  0.01829973       0.006
   0.09007824 -0.05200669  0.01829973       0.006
  -0.09015923 -0.15616037  0.01829973       0.006
  -0.06762955 -0.14314116  0.01829973       0.006
  -0.04509986 -0.13012195  0.01829973       0.006
  -0.02257018 -0.11710274  0.01829973       0.006
  -0.00003037 -0.07806265  0.01829973       0.006
   0.02249931 -0.06504344  0.01829973       0.006
   0.04502899 -0.05202423  0.01829973       0.006
   0.06755868 -0.03900502  0.01829973       0.006
   0.09008836 -0.02598581  0.01829973       0.006
  -0.09014910 -0.13013948  0.01829973       0.006
  -0.06761942 -0.11712027  0.01829973       0.006
  -0.04508974 -0.10410106  0.01829973       0.006
  -0.02256006 -0.09108186  0.01829973       0.006
  -0.00002025 -0.05204176  0.01829973       0.006
   0.02250943 -0.03902256  0.01829973       0.006
   0.04503912 -0.02600335  0.01829973       0.006
   0.06756880 -0.01298414  0.01829973       0.006
   0.09009848  0.00003507  0.01829973       0.006
  -0.09013898 -0.10411860  0.01829973       0.006
  -0.06760930 -0.09109939  0.01829973       0.006
  -0.04507961 -0.07808018  0.01829973       0.006
  -0.02254993 -0.06506097  0.01829973       0.006
  -0.00001012 -0.02602088  0.01829973       0.006
   0.02251956 -0.01300167  0.01829973       0.006
   0.04504924  0.00001754  0.01829973       0.006
   0.06757892  0.01303674  0.01829973       0.006
   0.09010861  0.02605595  0.01829973       0.006
  -0.09012886 -0.07809772  0.01829973       0.006
  -0.06759917 -0.06507851  0.01829973       0.006
  -0.04506949 -0.05205930  0.01829973       0.006
  -0.02253981 -0.03904009  0.01829973       0.006
   0.00000000  0.00000000  0.03659945       0.003
   0.02252968  0.01301921  0.03659945       0.006
   0.04505937  0.02603842  0.03659945       0.006
   0.06758905  0.03905763  0.03659945       0.006
   0.09011873  0.05207684  0.03659945       0.006
   0.00001012  0.02602088  0.03659945       0.006
   0.02253981  0.03904009  0.03659945       0.006
   0.04506949  0.05205930  0.03659945       0.006
   0.06759917  0.06507851  0.03659945       0.006
   0.09012886  0.07809772  0.03659945       0.006
  -0.09010861 -0.02605595  0.03659945       0.006
  -0.06757892 -0.01303674  0.03659945       0.006
  -0.04504924 -0.00001754  0.03659945       0.006
  -0.02251956  0.01300167  0.03659945       0.006
   0.00002025  0.05204176  0.03659945       0.006
   0.02254993  0.06506097  0.03659945       0.006
   0.04507961  0.07808018  0.03659945       0.006
   0.06760930  0.09109939  0.03659945       0.006
   0.09013898  0.10411860  0.03659945       0.006
  -0.09009848 -0.00003507  0.03659945       0.006
  -0.06756880  0.01298414  0.03659945       0.006
  -0.04503912  0.02600335  0.03659945       0.006
  -0.02250943  0.03902256  0.03659945       0.006
   0.00003037  0.07806265  0.03659945       0.006
   0.02256006  0.09108186  0.03659945       0.006
   0.04508974  0.10410106  0.03659945       0.006
   0.06761942  0.11712027  0.03659945       0.006
   0.09014910  0.13013948  0.03659945       0.006
  -0.09008836  0.02598581  0.03659945       0.006
  -0.06755868  0.03900502  0.03659945       0.006
  -0.04502899  0.05202423  0.03659945       0.006
  -0.02249931  0.06504344  0.03659945       0.006
   0.00004050  0.10408353  0.03659945       0.006
   0.02257018  0.11710274  0.03659945       0.006
   0.04509986  0.13012195  0.03659945       0.006
   0.06762955  0.14314116  0.03659945       0.006
   0.09015923  0.15616037  0.03659945       0.006
  -0.09007824  0.05200669  0.03659945       0.006
  -0.06754855  0.06502590  0.03659945       0.006
  -0.04501887  0.07804511  0.03659945       0.006
  -0.02248919  0.09106432  0.03659945       0.006
 
 k-points in reciprocal lattice and weights: B4C B11C-CBC                            
   0.00000000  0.00000000  0.00000000       0.003
   0.11111111  0.00000000  0.00000000       0.006
   0.22222222  0.00000000  0.00000000       0.006
   0.33333333  0.00000000  0.00000000       0.006
   0.44444444  0.00000000  0.00000000       0.006
   0.00000000  0.11111111  0.00000000       0.006
   0.11111111  0.11111111  0.00000000       0.006
   0.22222222  0.11111111  0.00000000       0.006
   0.33333333  0.11111111  0.00000000       0.006
   0.44444444  0.11111111  0.00000000       0.006
  -0.44444444  0.11111111  0.00000000       0.006
  -0.33333333  0.11111111  0.00000000       0.006
  -0.22222222  0.11111111  0.00000000       0.006
  -0.11111111  0.11111111  0.00000000       0.006
   0.00000000  0.22222222  0.00000000       0.006
   0.11111111  0.22222222  0.00000000       0.006
   0.22222222  0.22222222  0.00000000       0.006
   0.33333333  0.22222222  0.00000000       0.006
   0.44444444  0.22222222  0.00000000       0.006
  -0.44444444  0.22222222  0.00000000       0.006
  -0.33333333  0.22222222  0.00000000       0.006
  -0.22222222  0.22222222  0.00000000       0.006
  -0.11111111  0.22222222  0.00000000       0.006
   0.00000000  0.33333333  0.00000000       0.006
   0.11111111  0.33333333  0.00000000       0.006
   0.22222222  0.33333333  0.00000000       0.006
   0.33333333  0.33333333  0.00000000       0.006
   0.44444444  0.33333333  0.00000000       0.006
  -0.44444444  0.33333333  0.00000000       0.006
  -0.33333333  0.33333333  0.00000000       0.006
  -0.22222222  0.33333333  0.00000000       0.006
  -0.11111111  0.33333333  0.00000000       0.006
   0.00000000  0.44444444  0.00000000       0.006
   0.11111111  0.44444444  0.00000000       0.006
   0.22222222  0.44444444  0.00000000       0.006
   0.33333333  0.44444444  0.00000000       0.006
   0.44444444  0.44444444  0.00000000       0.006
  -0.44444444  0.44444444  0.00000000       0.006
  -0.33333333  0.44444444  0.00000000       0.006
  -0.22222222  0.44444444  0.00000000       0.006
  -0.11111111  0.44444444  0.00000000       0.006
   0.00000000  0.00000000  0.25000000       0.006
   0.11111111  0.00000000  0.25000000       0.006
   0.22222222  0.00000000  0.25000000       0.006
   0.33333333  0.00000000  0.25000000       0.006
   0.44444444  0.00000000  0.25000000       0.006
  -0.44444444  0.00000000  0.25000000       0.006
  -0.33333333  0.00000000  0.25000000       0.006
  -0.22222222  0.00000000  0.25000000       0.006
  -0.11111111  0.00000000  0.25000000       0.006
   0.00000000  0.11111111  0.25000000       0.006
   0.11111111  0.11111111  0.25000000       0.006
   0.22222222  0.11111111  0.25000000       0.006
   0.33333333  0.11111111  0.25000000       0.006
   0.44444444  0.11111111  0.25000000       0.006
  -0.44444444  0.11111111  0.25000000       0.006
  -0.33333333  0.11111111  0.25000000       0.006
  -0.22222222  0.11111111  0.25000000       0.006
  -0.11111111  0.11111111  0.25000000       0.006
   0.00000000  0.22222222  0.25000000       0.006
   0.11111111  0.22222222  0.25000000       0.006
   0.22222222  0.22222222  0.25000000       0.006
   0.33333333  0.22222222  0.25000000       0.006
   0.44444444  0.22222222  0.25000000       0.006
  -0.44444444  0.22222222  0.25000000       0.006
  -0.33333333  0.22222222  0.25000000       0.006
  -0.22222222  0.22222222  0.25000000       0.006
  -0.11111111  0.22222222  0.25000000       0.006
   0.00000000  0.33333333  0.25000000       0.006
   0.11111111  0.33333333  0.25000000       0.006
   0.22222222  0.33333333  0.25000000       0.006
   0.33333333  0.33333333  0.25000000       0.006
   0.44444444  0.33333333  0.25000000       0.006
  -0.44444444  0.33333333  0.25000000       0.006
  -0.33333333  0.33333333  0.25000000       0.006
  -0.22222222  0.33333333  0.25000000       0.006
  -0.11111111  0.33333333  0.25000000       0.006
   0.00000000  0.44444444  0.25000000       0.006
   0.11111111  0.44444444  0.25000000       0.006
   0.22222222  0.44444444  0.25000000       0.006
   0.33333333  0.44444444  0.25000000       0.006
   0.44444444  0.44444444  0.25000000       0.006
  -0.44444444  0.44444444  0.25000000       0.006
  -0.33333333  0.44444444  0.25000000       0.006
  -0.22222222  0.44444444  0.25000000       0.006
  -0.11111111  0.44444444  0.25000000       0.006
  -0.00000000 -0.44444444  0.25000000       0.006
   0.11111111 -0.44444444  0.25000000       0.006
   0.22222222 -0.44444444  0.25000000       0.006
   0.33333333 -0.44444444  0.25000000       0.006
   0.44444444 -0.44444444  0.25000000       0.006
  -0.44444444 -0.44444444  0.25000000       0.006
  -0.33333333 -0.44444444  0.25000000       0.006
  -0.22222222 -0.44444444  0.25000000       0.006
  -0.11111111 -0.44444444  0.25000000       0.006
   0.00000000 -0.33333333  0.25000000       0.006
   0.11111111 -0.33333333  0.25000000       0.006
   0.22222222 -0.33333333  0.25000000       0.006
   0.33333333 -0.33333333  0.25000000       0.006
   0.44444444 -0.33333333  0.25000000       0.006
  -0.44444444 -0.33333333  0.25000000       0.006
  -0.33333333 -0.33333333  0.25000000       0.006
  -0.22222222 -0.33333333  0.25000000       0.006
  -0.11111111 -0.33333333  0.25000000       0.006
  -0.00000000 -0.22222222  0.25000000       0.006
   0.11111111 -0.22222222  0.25000000       0.006
   0.22222222 -0.22222222  0.25000000       0.006
   0.33333333 -0.22222222  0.25000000       0.006
   0.44444444 -0.22222222  0.25000000       0.006
  -0.44444444 -0.22222222  0.25000000       0.006
  -0.33333333 -0.22222222  0.25000000       0.006
  -0.22222222 -0.22222222  0.25000000       0.006
  -0.11111111 -0.22222222  0.25000000       0.006
  -0.00000000 -0.11111111  0.25000000       0.006
   0.11111111 -0.11111111  0.25000000       0.006
   0.22222222 -0.11111111  0.25000000       0.006
   0.33333333 -0.11111111  0.25000000       0.006
   0.44444444 -0.11111111  0.25000000       0.006
  -0.44444444 -0.11111111  0.25000000       0.006
  -0.33333333 -0.11111111  0.25000000       0.006
  -0.22222222 -0.11111111  0.25000000       0.006
  -0.11111111 -0.11111111  0.25000000       0.006
   0.00000000  0.00000000  0.50000000       0.003
   0.11111111  0.00000000  0.50000000       0.006
   0.22222222  0.00000000  0.50000000       0.006
   0.33333333  0.00000000  0.50000000       0.006
   0.44444444  0.00000000  0.50000000       0.006
   0.00000000  0.11111111  0.50000000       0.006
   0.11111111  0.11111111  0.50000000       0.006
   0.22222222  0.11111111  0.50000000       0.006
   0.33333333  0.11111111  0.50000000       0.006
   0.44444444  0.11111111  0.50000000       0.006
  -0.44444444  0.11111111  0.50000000       0.006
  -0.33333333  0.11111111  0.50000000       0.006
  -0.22222222  0.11111111  0.50000000       0.006
  -0.11111111  0.11111111  0.50000000       0.006
   0.00000000  0.22222222  0.50000000       0.006
   0.11111111  0.22222222  0.50000000       0.006
   0.22222222  0.22222222  0.50000000       0.006
   0.33333333  0.22222222  0.50000000       0.006
   0.44444444  0.22222222  0.50000000       0.006
  -0.44444444  0.22222222  0.50000000       0.006
  -0.33333333  0.22222222  0.50000000       0.006
  -0.22222222  0.22222222  0.50000000       0.006
  -0.11111111  0.22222222  0.50000000       0.006
   0.00000000  0.33333333  0.50000000       0.006
   0.11111111  0.33333333  0.50000000       0.006
   0.22222222  0.33333333  0.50000000       0.006
   0.33333333  0.33333333  0.50000000       0.006
   0.44444444  0.33333333  0.50000000       0.006
  -0.44444444  0.33333333  0.50000000       0.006
  -0.33333333  0.33333333  0.50000000       0.006
  -0.22222222  0.33333333  0.50000000       0.006
  -0.11111111  0.33333333  0.50000000       0.006
   0.00000000  0.44444444  0.50000000       0.006
   0.11111111  0.44444444  0.50000000       0.006
   0.22222222  0.44444444  0.50000000       0.006
   0.33333333  0.44444444  0.50000000       0.006
   0.44444444  0.44444444  0.50000000       0.006
  -0.44444444  0.44444444  0.50000000       0.006
  -0.33333333  0.44444444  0.50000000       0.006
  -0.22222222  0.44444444  0.50000000       0.006
  -0.11111111  0.44444444  0.50000000       0.006
 
 position of ions in fractional coordinates (direct lattice) 
   0.49967330  0.00032672  0.12500000
   0.99967330  0.00032672  0.12500000
   0.49967330  0.50032672  0.12500000
   0.99967330  0.50032672  0.12500000
   0.49967330  0.00032672  0.62500000
   0.99967330  0.00032672  0.62500000
   0.49967330  0.50032672  0.62500000
   0.99967330  0.50032672  0.62500000
   0.00032672  0.49967330  0.37500000
   0.50032672  0.49967330  0.37500000
   0.00032672  0.99967330  0.37500000
   0.50032672  0.99967330  0.37500000
   0.00032672  0.49967330  0.87500000
   0.50032672  0.49967330  0.87500000
   0.00032672  0.99967330  0.87500000
   0.50032672  0.99967330  0.87500000
   0.16698094  0.33370753  0.12568848
   0.66629246  0.33370753  0.12500000
   0.16629246  0.83370753  0.12500000
   0.66629246  0.83370753  0.12500000
   0.16629246  0.33370753  0.62500000
   0.66629246  0.33370753  0.62500000
   0.16629246  0.83370753  0.62500000
   0.66629246  0.83370753  0.62500000
   0.33370753  0.16629246  0.37500000
   0.83370753  0.16629246  0.37500000
   0.33370753  0.66629246  0.37500000
   0.83370753  0.66629246  0.37500000
   0.33370753  0.16629246  0.87500000
   0.83370753  0.16629246  0.87500000
   0.33370753  0.66629246  0.87500000
   0.83370753  0.66629246  0.87500000
 
 position of ions in cartesian coordinates  (Angst):
   2.46401933  0.00043641  1.70767581
   4.93045658 -0.00052323  1.70767581
   1.22996963  2.13595390  1.70767581
   3.69640688  2.13499426  1.70767581
   2.46401933  0.00043641  8.53837906
   4.93045658 -0.00052323  8.53837906
   1.22996963  2.13595390  8.53837906
   3.69640688  2.13499426  8.53837906
  -1.23163172  2.13412154  5.12302744
   1.23480553  2.13316189  5.12302744
  -2.46568142  4.26963903  5.12302744
   0.00075583  4.26867939  5.12302744
  -1.23163172  2.13412154 11.95373069
   1.23480553  2.13316189 11.95373069
  -2.46568142  4.26963903 11.95373069
   0.00075583  4.26867939 11.95373069
   0.00007269  1.42495605  1.71708144
   2.46311374  1.42399773  1.70767581
  -1.23737320  3.56047486  1.70767581
   1.22906405  3.55951522  1.70767581
  -0.00332350  1.42495737  8.53837906
   2.46311374  1.42399773  8.53837906
  -1.23737320  3.56047486  8.53837906
   1.22906405  3.55951522  8.53837906
   1.23571103  0.70960044  5.12302744
   3.70214828  0.70864080  5.12302744
   0.00166133  2.84511794  5.12302744
   2.46809858  2.84415829  5.12302744
   1.23571103  0.70960044 11.95373069
   3.70214828  0.70864080 11.95373069
   0.00166133  2.84511794 11.95373069
   2.46809858  2.84415829 11.95373069
 


--------------------------------------------------------------------------------------------------------


 k-point  1 :   0.0000 0.0000 0.0000  plane waves:    9527
 k-point  2 :   0.1111 0.0000 0.0000  plane waves:    9579
 k-point  3 :   0.2222 0.0000 0.0000  plane waves:    9605
 k-point  4 :   0.3333 0.0000 0.0000  plane waves:    9605
 k-point  5 :   0.4444 0.0000 0.0000  plane waves:    9633
 k-point  6 :   0.0000 0.1111 0.0000  plane waves:    9579
 k-point  7 :   0.1111 0.1111 0.0000  plane waves:    9582
 k-point  8 :   0.2222 0.1111 0.0000  plane waves:    9606
 k-point  9 :   0.3333 0.1111 0.0000  plane waves:    9612
 k-point 10 :   0.4444 0.1111 0.0000  plane waves:    9610
 k-point 11 :  -0.4444 0.1111 0.0000  plane waves:    9606
 k-point 12 :  -0.3333 0.1111 0.0000  plane waves:    9606
 k-point 13 :  -0.2222 0.1111 0.0000  plane waves:    9584
 k-point 14 :  -0.1111 0.1111 0.0000  plane waves:    9575
 k-point 15 :   0.0000 0.2222 0.0000  plane waves:    9605
 k-point 16 :   0.1111 0.2222 0.0000  plane waves:    9606
 k-point 17 :   0.2222 0.2222 0.0000  plane waves:    9608
 k-point 18 :   0.3333 0.2222 0.0000  plane waves:    9600
 k-point 19 :   0.4444 0.2222 0.0000  plane waves:    9604
 k-point 20 :  -0.4444 0.2222 0.0000  plane waves:    9604
 k-point 21 :  -0.3333 0.2222 0.0000  plane waves:    9608
 k-point 22 :  -0.2222 0.2222 0.0000  plane waves:    9609
 k-point 23 :  -0.1111 0.2222 0.0000  plane waves:    9584
 k-point 24 :   0.0000 0.3333 0.0000  plane waves:    9605
 k-point 25 :   0.1111 0.3333 0.0000  plane waves:    9612
 k-point 26 :   0.2222 0.3333 0.0000  plane waves:    9600
 k-point 27 :   0.3333 0.3333 0.0000  plane waves:    9640
 k-point 28 :   0.4444 0.3333 0.0000  plane waves:    9604
 k-point 29 :  -0.4444 0.3333 0.0000  plane waves:    9612
 k-point 30 :  -0.3333 0.3333 0.0000  plane waves:    9605
 k-point 31 :  -0.2222 0.3333 0.0000  plane waves:    9608
 k-point 32 :  -0.1111 0.3333 0.0000  plane waves:    9606
 k-point 33 :   0.0000 0.4444 0.0000  plane waves:    9633
 k-point 34 :   0.1111 0.4444 0.0000  plane waves:    9610
 k-point 35 :   0.2222 0.4444 0.0000  plane waves:    9604
 k-point 36 :   0.3333 0.4444 0.0000  plane waves:    9604
 k-point 37 :   0.4444 0.4444 0.0000  plane waves:    9616
 k-point 38 :  -0.4444 0.4444 0.0000  plane waves:    9635
 k-point 39 :  -0.3333 0.4444 0.0000  plane waves:    9612
 k-point 40 :  -0.2222 0.4444 0.0000  plane waves:    9604
 k-point 41 :  -0.1111 0.4444 0.0000  plane waves:    9606
 k-point 42 :   0.0000 0.0000 0.2500  plane waves:    9517
 k-point 43 :   0.1111 0.0000 0.2500  plane waves:    9581
 k-point 44 :   0.2222 0.0000 0.2500  plane waves:    9603
 k-point 45 :   0.3333 0.0000 0.2500  plane waves:    9620
 k-point 46 :   0.4444 0.0000 0.2500  plane waves:    9619
 k-point 47 :  -0.4444 0.0000 0.2500  plane waves:    9619
 k-point 48 :  -0.3333 0.0000 0.2500  plane waves:    9620
 k-point 49 :  -0.2222 0.0000 0.2500  plane waves:    9603
 k-point 50 :  -0.1111 0.0000 0.2500  plane waves:    9581
 k-point 51 :   0.0000 0.1111 0.2500  plane waves:    9581
 k-point 52 :   0.1111 0.1111 0.2500  plane waves:    9580
 k-point 53 :   0.2222 0.1111 0.2500  plane waves:    9603
 k-point 54 :   0.3333 0.1111 0.2500  plane waves:    9607
 k-point 55 :   0.4444 0.1111 0.2500  plane waves:    9628
 k-point 56 :  -0.4444 0.1111 0.2500  plane waves:    9610
 k-point 57 :  -0.3333 0.1111 0.2500  plane waves:    9602
 k-point 58 :  -0.2222 0.1111 0.2500  plane waves:    9587
 k-point 59 :  -0.1111 0.1111 0.2500  plane waves:    9580
 k-point 60 :   0.0000 0.2222 0.2500  plane waves:    9603
 k-point 61 :   0.1111 0.2222 0.2500  plane waves:    9603
 k-point 62 :   0.2222 0.2222 0.2500  plane waves:    9596
 k-point 63 :   0.3333 0.2222 0.2500  plane waves:    9612
 k-point 64 :   0.4444 0.2222 0.2500  plane waves:    9610
 k-point 65 :  -0.4444 0.2222 0.2500  plane waves:    9598
 k-point 66 :  -0.3333 0.2222 0.2500  plane waves:    9603
 k-point 67 :  -0.2222 0.2222 0.2500  plane waves:    9614
 k-point 68 :  -0.1111 0.2222 0.2500  plane waves:    9587
 k-point 69 :   0.0000 0.3333 0.2500  plane waves:    9620
 k-point 70 :   0.1111 0.3333 0.2500  plane waves:    9607
 k-point 71 :   0.2222 0.3333 0.2500  plane waves:    9612
 k-point 72 :   0.3333 0.3333 0.2500  plane waves:    9625
 k-point 73 :   0.4444 0.3333 0.2500  plane waves:    9615
 k-point 74 :  -0.4444 0.3333 0.2500  plane waves:    9609
 k-point 75 :  -0.3333 0.3333 0.2500  plane waves:    9620
 k-point 76 :  -0.2222 0.3333 0.2500  plane waves:    9603
 k-point 77 :  -0.1111 0.3333 0.2500  plane waves:    9602
 k-point 78 :   0.0000 0.4444 0.2500  plane waves:    9619
 k-point 79 :   0.1111 0.4444 0.2500  plane waves:    9628
 k-point 80 :   0.2222 0.4444 0.2500  plane waves:    9610
 k-point 81 :   0.3333 0.4444 0.2500  plane waves:    9615
 k-point 82 :   0.4444 0.4444 0.2500  plane waves:    9625
 k-point 83 :  -0.4444 0.4444 0.2500  plane waves:    9617
 k-point 84 :  -0.3333 0.4444 0.2500  plane waves:    9609
 k-point 85 :  -0.2222 0.4444 0.2500  plane waves:    9598
 k-point 86 :  -0.1111 0.4444 0.2500  plane waves:    9610
 k-point 87 :  -0.0000-0.4444 0.2500  plane waves:    9619
 k-point 88 :   0.1111-0.4444 0.2500  plane waves:    9610
 k-point 89 :   0.2222-0.4444 0.2500  plane waves:    9598
 k-point 90 :   0.3333-0.4444 0.2500  plane waves:    9609
 k-point 91 :   0.4444-0.4444 0.2500  plane waves:    9617
 k-point 92 :  -0.4444-0.4444 0.2500  plane waves:    9625
 k-point 93 :  -0.3333-0.4444 0.2500  plane waves:    9615
 k-point 94 :  -0.2222-0.4444 0.2500  plane waves:    9610
 k-point 95 :  -0.1111-0.4444 0.2500  plane waves:    9628
 k-point 96 :   0.0000-0.3333 0.2500  plane waves:    9620
 k-point 97 :   0.1111-0.3333 0.2500  plane waves:    9602
 k-point 98 :   0.2222-0.3333 0.2500  plane waves:    9603
 k-point 99 :   0.3333-0.3333 0.2500  plane waves:    9620
 k-point ** :   0.4444-0.3333 0.2500  plane waves:    9609
 k-point ** :  -0.4444-0.3333 0.2500  plane waves:    9615
 k-point ** :  -0.3333-0.3333 0.2500  plane waves:    9625
 k-point ** :  -0.2222-0.3333 0.2500  plane waves:    9612
 k-point ** :  -0.1111-0.3333 0.2500  plane waves:    9607
 k-point ** :  -0.0000-0.2222 0.2500  plane waves:    9603
 k-point ** :   0.1111-0.2222 0.2500  plane waves:    9587
 k-point ** :   0.2222-0.2222 0.2500  plane waves:    9614
 k-point ** :   0.3333-0.2222 0.2500  plane waves:    9603
 k-point ** :   0.4444-0.2222 0.2500  plane waves:    9598
 k-point ** :  -0.4444-0.2222 0.2500  plane waves:    9610
 k-point ** :  -0.3333-0.2222 0.2500  plane waves:    9612
 k-point ** :  -0.2222-0.2222 0.2500  plane waves:    9596
 k-point ** :  -0.1111-0.2222 0.2500  plane waves:    9603
 k-point ** :  -0.0000-0.1111 0.2500  plane waves:    9581
 k-point ** :   0.1111-0.1111 0.2500  plane waves:    9580
 k-point ** :   0.2222-0.1111 0.2500  plane waves:    9587
 k-point ** :   0.3333-0.1111 0.2500  plane waves:    9602
 k-point ** :   0.4444-0.1111 0.2500  plane waves:    9610
 k-point ** :  -0.4444-0.1111 0.2500  plane waves:    9628
 k-point ** :  -0.3333-0.1111 0.2500  plane waves:    9607
 k-point ** :  -0.2222-0.1111 0.2500  plane waves:    9603
 k-point ** :  -0.1111-0.1111 0.2500  plane waves:    9580
 k-point ** :   0.0000 0.0000 0.5000  plane waves:    9586
 k-point ** :   0.1111 0.0000 0.5000  plane waves:    9566
 k-point ** :   0.2222 0.0000 0.5000  plane waves:    9592
 k-point ** :   0.3333 0.0000 0.5000  plane waves:    9626
 k-point ** :   0.4444 0.0000 0.5000  plane waves:    9612
 k-point ** :   0.0000 0.1111 0.5000  plane waves:    9566
 k-point ** :   0.1111 0.1111 0.5000  plane waves:    9578
 k-point ** :   0.2222 0.1111 0.5000  plane waves:    9606
 k-point ** :   0.3333 0.1111 0.5000  plane waves:    9602
 k-point ** :   0.4444 0.1111 0.5000  plane waves:    9604
 k-point ** :  -0.4444 0.1111 0.5000  plane waves:    9608
 k-point ** :  -0.3333 0.1111 0.5000  plane waves:    9604
 k-point ** :  -0.2222 0.1111 0.5000  plane waves:    9580
 k-point ** :  -0.1111 0.1111 0.5000  plane waves:    9566
 k-point ** :   0.0000 0.2222 0.5000  plane waves:    9592
 k-point ** :   0.1111 0.2222 0.5000  plane waves:    9606
 k-point ** :   0.2222 0.2222 0.5000  plane waves:    9614
 k-point ** :   0.3333 0.2222 0.5000  plane waves:    9614
 k-point ** :   0.4444 0.2222 0.5000  plane waves:    9612
 k-point ** :  -0.4444 0.2222 0.5000  plane waves:    9618
 k-point ** :  -0.3333 0.2222 0.5000  plane waves:    9606
 k-point ** :  -0.2222 0.2222 0.5000  plane waves:    9594
 k-point ** :  -0.1111 0.2222 0.5000  plane waves:    9580
 k-point ** :   0.0000 0.3333 0.5000  plane waves:    9626
 k-point ** :   0.1111 0.3333 0.5000  plane waves:    9602
 k-point ** :   0.2222 0.3333 0.5000  plane waves:    9614
 k-point ** :   0.3333 0.3333 0.5000  plane waves:    9582
 k-point ** :   0.4444 0.3333 0.5000  plane waves:    9614
 k-point ** :  -0.4444 0.3333 0.5000  plane waves:    9606
 k-point ** :  -0.3333 0.3333 0.5000  plane waves:    9626
 k-point ** :  -0.2222 0.3333 0.5000  plane waves:    9606
 k-point ** :  -0.1111 0.3333 0.5000  plane waves:    9604
 k-point ** :   0.0000 0.4444 0.5000  plane waves:    9612
 k-point ** :   0.1111 0.4444 0.5000  plane waves:    9604
 k-point ** :   0.2222 0.4444 0.5000  plane waves:    9612
 k-point ** :   0.3333 0.4444 0.5000  plane waves:    9614
 k-point ** :   0.4444 0.4444 0.5000  plane waves:    9606
 k-point ** :  -0.4444 0.4444 0.5000  plane waves:    9618
 k-point ** :  -0.3333 0.4444 0.5000  plane waves:    9606
 k-point ** :  -0.2222 0.4444 0.5000  plane waves:    9618
 k-point ** :  -0.1111 0.4444 0.5000  plane waves:    9608

 maximum and minimum number of plane-waves per node :      9640     9517

 maximum number of plane-waves:      9640
 maximum index in each direction: 
   IXMAX=   10   IYMAX=   10   IZMAX=   27
   IXMIN=  -10   IYMIN=  -10   IZMIN=  -27

 WARNING: aliasing errors must be expected set NGX to  42 to avoid them
 WARNING: aliasing errors must be expected set NGY to  42 to avoid them
 NGZ is ok and might be reduce to 110
 aliasing errors are usually negligible using standard VASP settings
 and one can safely disregard these warnings

 serial   3D FFT for wavefunctions
 parallel 3D FFT for charge:
    minimum data exchange during FFTs selected (reduces bandwidth)


 total amount of memory used by VASP on root node   525499. kBytes
========================================================================

   base      :      30000. kBytes
   nonl-proj :     105522. kBytes
   fftplans  :       9104. kBytes
   grid      :      19307. kBytes
   one-center:         98. kBytes
   wavefun   :     361468. kBytes
 
     INWAV:  cpu time    0.00: real time    0.00
 Broyden mixing: mesh for mixing (old mesh)
   NGX = 19   NGY = 19   NGZ = 55
  (NGX  = 80   NGY  = 80   NGZ  =224)
  gives a total of  19855 points

 initial charge density was supplied:
 charge density of overlapping atoms calculated
 number of electron     128.0000000 magnetization 
 keeping initial charge density in first step


--------------------------------------------------------------------------------------------------------


 Maximum index for augmentation-charges         1460 (set IRDMAX)


--------------------------------------------------------------------------------------------------------


 First call to EWALD:  gamma=   0.268
 Maximum number of real-space cells 4x 4x 2
 Maximum number of reciprocal cells 2x 2x 5

 FEWALD executed in parallel
    FEWALD:  cpu time    0.00: real time    0.00


----------------------------------------- Iteration    1(   1)  ---------------------------------------


    POTLOK:  cpu time    0.14: real time    0.14
    SETDIJ:  cpu time    0.01: real time    0.01
     EDDAV:  cpu time   86.25: real time   86.29
 BZINTS: Fermi energy: 15.729914;128.000000 electrons
         Band energy:  39.556859;  BLOECHL correction: -0.106326
       DOS:  cpu time    0.12: real time    0.12
    --------------------------------------------
      LOOP:  cpu time   86.52: real time   86.60

 eigenvalue-minimisations  : 27384
 total energy-change (2. order) : 0.6010210E+03  (-0.7150747E+04)
 number of electron     128.0000000 magnetization 
 augmentation part      128.0000000 magnetization 

 Free energy of the ion-electron system (eV)
  ---------------------------------------------------
  alpha Z        PSCENC =       289.94852147
  Ewald energy   TEWEN  =     -3597.11167782
  -Hartree energ DENC   =     -1246.23154159
  -exchange      EXHF   =         0.00000000
  -V(xc)+E(xc)   XCENC  =       442.86493376
  PAW double counting   =      1210.60617908    -1247.42152856
  entropy T*S    EENTRO =         0.00000000
  eigenvalues    EBANDS =        39.55685907
  atomic energy  EATOM  =      4708.80920826
  ---------------------------------------------------
  free energy    TOTEN  =       601.02095367 eV

  energy without entropy =      601.02095367  energy(sigma->0) =      601.02095367


--------------------------------------------------------------------------------------------------------




----------------------------------------- Iteration    1(   2)  ---------------------------------------


     EDDAV:  cpu time  100.88: real time  100.94
 BZINTS: Fermi energy:  3.629567;128.000000 electrons
         Band energy:-823.695296;  BLOECHL correction: -0.000158
       DOS:  cpu time    0.08: real time    0.08
    --------------------------------------------
      LOOP:  cpu time  100.97: real time  101.02

 eigenvalue-minimisations  : 34140
 total energy-change (2. order) :-0.8632522E+03  (-0.8325252E+03)
 number of electron     128.0000000 magnetization 
 augmentation part      128.0000000 magnetization 

 Free energy of the ion-electron system (eV)
  ---------------------------------------------------
  alpha Z        PSCENC =       289.94852147
  Ewald energy   TEWEN  =     -3597.11167782
  -Hartree energ DENC   =     -1246.23154159
  -exchange      EXHF   =         0.00000000
  -V(xc)+E(xc)   XCENC  =       442.86493376
  PAW double counting   =      1210.60617908    -1247.42152856
  entropy T*S    EENTRO =         0.00000000
  eigenvalues    EBANDS =      -823.69529607
  atomic energy  EATOM  =      4708.80920826
  ---------------------------------------------------
  free energy    TOTEN  =      -262.23120147 eV

  energy without entropy =     -262.23120147  energy(sigma->0) =     -262.23120147


--------------------------------------------------------------------------------------------------------




----------------------------------------- Iteration    1(   3)  ---------------------------------------


     EDDAV:  cpu time   98.86: real time   98.91
 BZINTS: Fermi energy:  3.005518;128.000000 electrons
         Band energy:-874.311291;  BLOECHL correction: -0.000116
       DOS:  cpu time    0.09: real time    0.09
    --------------------------------------------
      LOOP:  cpu time   98.95: real time   99.12

 eigenvalue-minimisations  : 33252
 total energy-change (2. order) :-0.5061600E+02  (-0.5012586E+02)
 number of electron     128.0000000 magnetization 
 augmentation part      128.0000000 magnetization 

 Free energy of the ion-electron system (eV)
  ---------------------------------------------------
  alpha Z        PSCENC =       289.94852147
  Ewald energy   TEWEN  =     -3597.11167782
  -Hartree energ DENC   =     -1246.23154159
  -exchange      EXHF   =         0.00000000
  -V(xc)+E(xc)   XCENC  =       442.86493376
  PAW double counting   =      1210.60617908    -1247.42152856
  entropy T*S    EENTRO =         0.00000000
  eigenvalues    EBANDS =      -874.31129109
  atomic energy  EATOM  =      4708.80920826
  ---------------------------------------------------
  free energy    TOTEN  =      -312.84719649 eV

  energy without entropy =     -312.84719649  energy(sigma->0) =     -312.84719649


--------------------------------------------------------------------------------------------------------




----------------------------------------- Iteration    1(   4)  ---------------------------------------


     EDDAV:  cpu time  102.84: real time  102.89
 BZINTS: Fermi energy:  2.991771;128.000000 electrons
         Band energy:-875.289646;  BLOECHL correction:  0.000000
       DOS:  cpu time    0.04: real time    0.05
    --------------------------------------------
      LOOP:  cpu time  102.88: real time  102.94

 eigenvalue-minimisations  : 35076
 total energy-change (2. order) :-0.9783550E+00  (-0.9765715E+00)
 number of electron     128.0000000 magnetization 
 augmentation part      128.0000000 magnetization 

 Free energy of the ion-electron system (eV)
  ---------------------------------------------------
  alpha Z        PSCENC =       289.94852147
  Ewald energy   TEWEN  =     -3597.11167782
  -Hartree energ DENC   =     -1246.23154159
  -exchange      EXHF   =         0.00000000
  -V(xc)+E(xc)   XCENC  =       442.86493376
  PAW double counting   =      1210.60617908    -1247.42152856
  entropy T*S    EENTRO =         0.00000000
  eigenvalues    EBANDS =      -875.28964614
  atomic energy  EATOM  =      4708.80920826
  ---------------------------------------------------
  free energy    TOTEN  =      -313.82555154 eV

  energy without entropy =     -313.82555154  energy(sigma->0) =     -313.82555154


--------------------------------------------------------------------------------------------------------




----------------------------------------- Iteration    1(   5)  ---------------------------------------


     EDDAV:  cpu time  103.12: real time  103.18
 BZINTS: Fermi energy:  2.991460;128.000000 electrons
         Band energy:-875.317903;  BLOECHL correction:  0.000000
       DOS:  cpu time    0.04: real time    0.04
    CHARGE:  cpu time    3.72: real time    3.72
    MIXING:  cpu time    0.00: real time    0.00
    --------------------------------------------
      LOOP:  cpu time  106.89: real time  106.94

 eigenvalue-minimisations  : 35196
 total energy-change (2. order) :-0.2825694E-01  (-0.2824458E-01)
 number of electron     128.0000007 magnetization 
 augmentation part        3.4013781 magnetization 

 Broyden mixing:
  rms(total) = 0.22086E+01    rms(broyden)= 0.22083E+01
  rms(prec ) = 0.25982E+01
  weight for this iteration     100.00

 Free energy of the ion-electron system (eV)
  ---------------------------------------------------
  alpha Z        PSCENC =       289.94852147
  Ewald energy   TEWEN  =     -3597.11167782
  -Hartree energ DENC   =     -1246.23154159
  -exchange      EXHF   =         0.00000000
  -V(xc)+E(xc)   XCENC  =       442.86493376
  PAW double counting   =      1210.60617908    -1247.42152856
  entropy T*S    EENTRO =         0.00000000
  eigenvalues    EBANDS =      -875.31790308
  atomic energy  EATOM  =      4708.80920826
  ---------------------------------------------------
  free energy    TOTEN  =      -313.85380847 eV

  energy without entropy =     -313.85380847  energy(sigma->0) =     -313.85380847


--------------------------------------------------------------------------------------------------------




----------------------------------------- Iteration    1(   6)  ---------------------------------------


    POTLOK:  cpu time    0.14: real time    0.14
    SETDIJ:  cpu time    0.01: real time    0.01
     EDDAV:  cpu time   94.46: real time   94.51
 BZINTS: Fermi energy:  3.767529;128.000000 electrons
         Band energy:-733.186863;  BLOECHL correction:  0.000000
       DOS:  cpu time    0.05: real time    0.05
    CHARGE:  cpu time    3.69: real time    3.69
    MIXING:  cpu time    0.00: real time    0.00
    --------------------------------------------
      LOOP:  cpu time   98.35: real time   98.40

 eigenvalue-minimisations  : 31296
 total energy-change (2. order) : 0.1452997E+02  (-0.1497527E+01)
 number of electron     128.0000007 magnetization 
 augmentation part        3.2451345 magnetization 

 Broyden mixing:
  rms(total) = 0.11584E+01    rms(broyden)= 0.11584E+01
  rms(prec ) = 0.13541E+01
  weight for this iteration     100.00

 eigenvalues of (default mixing * dielectric matrix)
  average eigenvalue GAMMA=   2.0334
  2.0334

 Free energy of the ion-electron system (eV)
  ---------------------------------------------------
  alpha Z        PSCENC =       289.94852147
  Ewald energy   TEWEN  =     -3597.11167782
  -Hartree energ DENC   =     -1379.29805709
  -exchange      EXHF   =         0.00000000
  -V(xc)+E(xc)   XCENC  =       451.26356563
  PAW double counting   =      1642.16903507    -1681.91756750
  entropy T*S    EENTRO =         0.00000000
  eigenvalues    EBANDS =      -733.18686300
  atomic energy  EATOM  =      4708.80920826
  ---------------------------------------------------
  free energy    TOTEN  =      -299.32383496 eV

  energy without entropy =     -299.32383496  energy(sigma->0) =     -299.32383496


--------------------------------------------------------------------------------------------------------




----------------------------------------- Iteration    1(   7)  ---------------------------------------


    POTLOK:  cpu time    0.14: real time    0.14
    SETDIJ:  cpu time    0.01: real time    0.01
     EDDAV:  cpu time   92.83: real time   92.88
 BZINTS: Fermi energy:  4.528736;128.000000 electrons
         Band energy:-587.777560;  BLOECHL correction:  0.000000
       DOS:  cpu time    0.04: real time    0.04
    CHARGE:  cpu time    3.68: real time    3.68
    MIXING:  cpu time    0.00: real time    0.00
    --------------------------------------------
      LOOP:  cpu time   96.71: real time   96.76

 eigenvalue-minimisations  : 30768
 total energy-change (2. order) : 0.4623008E+01  (-0.1582834E+01)
 number of electron     128.0000006 magnetization 
 augmentation part        3.0789238 magnetization 

 Broyden mixing:
  rms(total) = 0.19470E+00    rms(broyden)= 0.19455E+00
  rms(prec ) = 0.20844E+00
  weight for this iteration     100.00

 eigenvalues of (default mixing * dielectric matrix)
  average eigenvalue GAMMA=   2.1653
  2.1653  2.1653

 Free energy of the ion-electron system (eV)
  ---------------------------------------------------
  alpha Z        PSCENC =       289.94852147
  Ewald energy   TEWEN  =     -3597.11167782
  -Hartree energ DENC   =     -1527.26648739
  -exchange      EXHF   =         0.00000000
  -V(xc)+E(xc)   XCENC  =       460.83686679
  PAW double counting   =      2180.97248762    -2223.11218628
  entropy T*S    EENTRO =         0.00000000
  eigenvalues    EBANDS =      -587.77755997
  atomic energy  EATOM  =      4708.80920826
  ---------------------------------------------------
  free energy    TOTEN  =      -294.70082732 eV

  energy without entropy =     -294.70082732  energy(sigma->0) =     -294.70082732


--------------------------------------------------------------------------------------------------------




----------------------------------------- Iteration    1(   8)  ---------------------------------------


    POTLOK:  cpu time    0.14: real time    0.14
    SETDIJ:  cpu time    0.01: real time    0.01
     EDDAV:  cpu time   94.31: real time   94.36
 BZINTS: Fermi energy:  4.485780;128.000000 electrons
         Band energy:-590.612098;  BLOECHL correction:  0.000000
       DOS:  cpu time    0.02: real time    0.03
    CHARGE:  cpu time    3.80: real time    3.80
    MIXING:  cpu time    0.00: real time    0.00
    --------------------------------------------
      LOOP:  cpu time   98.29: real time   98.35

 eigenvalue-minimisations  : 30864
 total energy-change (2. order) :-0.6703725E-01  (-0.4286261E-01)
 number of electron     128.0000006 magnetization 
 augmentation part        3.0726604 magnetization 

 Broyden mixing:
  rms(total) = 0.37086E-01    rms(broyden)= 0.37057E-01
  rms(prec ) = 0.52791E-01
  weight for this iteration     100.00

 eigenvalues of (default mixing * dielectric matrix)
  average eigenvalue GAMMA=   1.7038
  2.4053  2.0212  0.6850

 Free energy of the ion-electron system (eV)
  ---------------------------------------------------
  alpha Z        PSCENC =       289.94852147
  Ewald energy   TEWEN  =     -3597.11167782
  -Hartree energ DENC   =     -1525.15228218
  -exchange      EXHF   =         0.00000000
  -V(xc)+E(xc)   XCENC  =       460.71957057
  PAW double counting   =      2210.59797484    -2251.96708159
  entropy T*S    EENTRO =         0.00000000
  eigenvalues    EBANDS =      -590.61209812
  atomic energy  EATOM  =      4708.80920826
  ---------------------------------------------------
  free energy    TOTEN  =      -294.76786456 eV

  energy without entropy =     -294.76786456  energy(sigma->0) =     -294.76786456


--------------------------------------------------------------------------------------------------------




----------------------------------------- Iteration    1(   9)  ---------------------------------------


    POTLOK:  cpu time    0.14: real time    0.14
    SETDIJ:  cpu time    0.01: real time    0.01
     EDDAV:  cpu time   97.59: real time   97.64
 BZINTS: Fermi energy:  4.509118;128.000000 electrons
         Band energy:-588.832513;  BLOECHL correction:  0.000000
       DOS:  cpu time    0.04: real time    0.04
    CHARGE:  cpu time    3.74: real time    3.74
    MIXING:  cpu time    0.00: real time    0.00
    --------------------------------------------
      LOOP:  cpu time  101.53: real time  101.58

 eigenvalue-minimisations  : 32232
 total energy-change (2. order) :-0.4768626E-03  (-0.2477912E-02)
 number of electron     128.0000006 magnetization 
 augmentation part        3.0695767 magnetization 

 Broyden mixing:
  rms(total) = 0.16331E-01    rms(broyden)= 0.16327E-01
  rms(prec ) = 0.23416E-01
  weight for this iteration     100.00

 eigenvalues of (default mixing * dielectric matrix)
  average eigenvalue GAMMA=   1.5126
  2.4456  2.0058  0.7995  0.7995

 Free energy of the ion-electron system (eV)
  ---------------------------------------------------
  alpha Z        PSCENC =       289.94852147
  Ewald energy   TEWEN  =     -3597.11167782
  -Hartree energ DENC   =     -1527.10484513
  -exchange      EXHF   =         0.00000000
  -V(xc)+E(xc)   XCENC  =       460.85569487
  PAW double counting   =      2219.40705727    -2260.73978772
  entropy T*S    EENTRO =         0.00000000
  eigenvalues    EBANDS =      -588.83251264
  atomic energy  EATOM  =      4708.80920826
  ---------------------------------------------------
  free energy    TOTEN  =      -294.76834143 eV

  energy without entropy =     -294.76834143  energy(sigma->0) =     -294.76834143


--------------------------------------------------------------------------------------------------------




----------------------------------------- Iteration    1(  10)  ---------------------------------------


    POTLOK:  cpu time    0.14: real time    0.14
    SETDIJ:  cpu time    0.01: real time    0.01
     EDDAV:  cpu time  102.13: real time  102.18
 BZINTS: Fermi energy:  4.511712;128.000000 electrons
         Band energy:-588.108469;  BLOECHL correction: -0.000001
       DOS:  cpu time    0.07: real time    0.07
    CHARGE:  cpu time    3.72: real time    3.73
    MIXING:  cpu time    0.00: real time    0.00
    --------------------------------------------
      LOOP:  cpu time  106.08: real time  106.13

 eigenvalue-minimisations  : 34452
 total energy-change (2. order) :-0.3376601E-03  (-0.5454064E-03)
 number of electron     128.0000006 magnetization 
 augmentation part        3.0684777 magnetization 

 Broyden mixing:
  rms(total) = 0.11001E-01    rms(broyden)= 0.10998E-01
  rms(prec ) = 0.16546E-01
  weight for this iteration     100.00

 eigenvalues of (default mixing * dielectric matrix)
  average eigenvalue GAMMA=   1.3881
  2.4966  1.9802  1.1142  0.6746  0.6746

 Free energy of the ion-electron system (eV)
  ---------------------------------------------------
[...]
     79      12.0440      0.00000
     80      12.0471      0.00000
     81      12.6178      0.00000
     82      12.6194      0.00000
     83      12.8960      0.00000
     84      12.9072      0.00000

 k-point   162 :      -0.2222    0.4444    0.5000
  band No.  band energies     occupation 
      1     -14.1793      2.00000
      2     -14.1792      2.00000
      3     -14.0049      2.00000
      4     -14.0045      2.00000
      5     -12.2476      2.00000
      6     -12.2462      2.00000
      7     -12.2414      2.00000
      8     -12.2401      2.00000
      9     -12.0948      2.00000
     10     -12.0935      2.00000
     11     -12.0887      2.00000
     12     -12.0873      2.00000
     13      -9.0003      2.00000
     14      -8.9988      2.00000
     15      -8.9361      2.00000
     16      -8.9345      2.00000
     17      -8.0324      2.00000
     18      -8.0289      2.00000
     19      -7.9949      2.00000
     20      -7.9918      2.00000
     21      -5.0252      2.00000
     22      -5.0252      2.00000
     23      -5.0178      2.00000
     24      -5.0170      2.00000
     25      -4.9498      2.00000
     26      -4.9496      2.00000
     27      -4.9427      2.00000
     28      -4.9413      2.00000
     29      -4.7210      2.00000
     30      -4.7191      2.00000
     31      -4.6573      2.00000
     32      -4.6552      2.00000
     33      -2.6258      2.00000
     34      -2.6250      2.00000
     35      -2.1029      2.00000
     36      -2.1028      2.00000
     37      -2.0916      2.00000
     38      -2.0897      2.00000
     39      -2.0616      2.00000
     40      -2.0611      2.00000
     41      -2.0498      2.00000
     42      -2.0484      2.00000
     43      -1.4178      2.00000
     44      -1.4165      2.00000
     45      -1.1591      2.00000
     46      -1.1557      2.00000
     47      -1.1352      2.00000
     48      -1.1303      2.00000
     49      -0.3625      2.00000
     50      -0.3610      2.00000
     51      -0.3565      2.00000
     52      -0.3552      2.00000
     53      -0.1984      2.00000
     54      -0.1932      2.00000
     55      -0.1797      2.00000
     56      -0.1763      2.00000
     57       0.7030      2.00000
     58       0.7046      2.00000
     59       0.7092      2.00000
     60       0.7108      2.00000
     61       2.9795      2.00000
     62       2.9820      2.00000
     63       3.4175      2.00000
     64       3.4197      2.00000
     65       5.7150      0.00000
     66       5.7189      0.00000
     67       5.7472      0.00000
     68       5.7506      0.00000
     69       9.0055      0.00000
     70       9.0068      0.00000
     71       9.0117      0.00000
     72       9.0134      0.00000
     73       9.4950      0.00000
     74       9.4966      0.00000
     75       9.4986      0.00000
     76       9.5002      0.00000
     77      10.4312      0.00000
     78      10.4334      0.00000
     79      12.7235      0.00000
     80      12.7261      0.00000
     81      12.7289      0.00000
     82      12.7303      0.00000
     83      13.1741      0.00000
     84      13.1778      0.00000

 k-point   163 :      -0.1111    0.4444    0.5000
  band No.  band energies     occupation 
      1     -14.1062      2.00000
      2     -14.1061      2.00000
      3     -13.9326      2.00000
      4     -13.9322      2.00000
      5     -12.8086      2.00000
      6     -12.8085      2.00000
      7     -12.6496      2.00000
      8     -12.6492      2.00000
      9     -11.5490      2.00000
     10     -11.5490      2.00000
     11     -11.4044      2.00000
     12     -11.4040      2.00000
     13      -9.7555      2.00000
     14      -9.7552      2.00000
     15      -9.6362      2.00000
     16      -9.6358      2.00000
     17      -7.2645      2.00000
     18      -7.2627      2.00000
     19      -7.1816      2.00000
     20      -7.1800      2.00000
     21      -5.6101      2.00000
     22      -5.6086      2.00000
     23      -5.5364      2.00000
     24      -5.5349      2.00000
     25      -4.6149      2.00000
     26      -4.6133      2.00000
     27      -4.5550      2.00000
     28      -4.5532      2.00000
     29      -4.3545      2.00000
     30      -4.3542      2.00000
     31      -4.2821      2.00000
     32      -4.2817      2.00000
     33      -3.1636      2.00000
     34      -3.1618      2.00000
     35      -3.1148      2.00000
     36      -3.1130      2.00000
     37      -2.5387      2.00000
     38      -2.5379      2.00000
     39      -1.4954      2.00000
     40      -1.4943      2.00000
     41      -1.4530      2.00000
     42      -1.4517      2.00000
     43      -1.3342      2.00000
     44      -1.3331      2.00000
     45      -1.2484      2.00000
     46      -1.2478      2.00000
     47      -1.2150      2.00000
     48      -1.2144      2.00000
     49      -1.0126      2.00000
     50      -1.0118      2.00000
     51      -0.1210      2.00000
     52      -0.1194      2.00000
     53      -0.0951      2.00000
     54      -0.0936      2.00000
     55       0.1003      2.00000
     56       0.1014      2.00000
     57       0.4362      2.00000
     58       0.4369      2.00000
     59       1.4368      2.00000
     60       1.4379      2.00000
     61       2.3630      2.00000
     62       2.3641      2.00000
     63       3.0942      2.00000
     64       3.0956      2.00000
     65       6.0585      0.00000
     66       6.0611      0.00000
     67       6.4432      0.00000
     68       6.4449      0.00000
     69       8.0744      0.00000
     70       8.0759      0.00000
     71       8.5180      0.00000
     72       8.5190      0.00000
     73       9.9096      0.00000
     74       9.9122      0.00000
     75      10.4136      0.00000
     76      10.4162      0.00000
     77      10.5146      0.00000
     78      10.5171      0.00000
     79      12.0452      0.00000
     80      12.0482      0.00000
     81      12.5874      0.00000
     82      12.5880      0.00000
     83      12.8698      0.00000
     84      12.8717      0.00000


--------------------------------------------------------------------------------------------------------


 soft charge-density along one line, spin component           1
         0         1         2         3         4         5         6         7         8         9
 total charge-density along one line
 
 pseudopotential strength for first ion, spin component:           1
  9.783   0.005  -0.000  -0.000   0.000   0.000   0.000  -0.000
  0.005  -0.002   0.000  -0.000  -0.000   0.000   0.000  -0.000
 -0.000   0.000  -3.953  -0.000   0.000  -0.015   0.000  -0.000
 -0.000  -0.000  -0.000  -3.947   0.000   0.000  -0.012  -0.000
  0.000  -0.000   0.000   0.000  -3.953  -0.000  -0.000  -0.015
  0.000   0.000  -0.015   0.000  -0.000  -0.764  -0.000   0.000
  0.000   0.000   0.000  -0.012  -0.000  -0.000  -0.764   0.000
 -0.000  -0.000  -0.000  -0.000  -0.015   0.000   0.000  -0.764
 total augmentation occupancy for first ion, spin component:           1
  1.470  -1.108   0.000  -0.000  -0.000   0.000   0.000  -0.000
 -1.108   1.040  -0.000  -0.000   0.000  -0.000  -0.000   0.000
  0.000  -0.000   1.224  -0.000   0.000   0.225  -0.000  -0.000
 -0.000  -0.000  -0.000   0.928   0.000  -0.000   0.103   0.000
 -0.000   0.000   0.000   0.000   1.224  -0.000   0.000   0.225
  0.000  -0.000   0.225  -0.000  -0.000   0.047   0.000  -0.000
  0.000  -0.000  -0.000   0.103   0.000   0.000   0.013   0.000
 -0.000   0.000  -0.000   0.000   0.225  -0.000   0.000   0.047


------------------------ aborting loop because EDIFF is reached ----------------------------------------


    CHARGE:  cpu time    3.69: real time    3.69
    FORLOC:  cpu time    0.03: real time    0.03
    FORNL :  cpu time   34.14: real time   34.16
    STRESS:  cpu time   92.83: real time   92.89
    FORHAR:  cpu time    0.08: real time    0.08
    MIXING:  cpu time    0.01: real time    0.01
    OFIELD:  cpu time    0.00: real time    0.00

 ---------------------------------------------------------------------------------------------

         DFTD3 V3.0 Rev 1        
 IVDW         = 12
 DF pbe       
 parameters
 VDW_S6       =    1.0000
 VDW_S8       =    0.7875
 VDW_A1       =    0.4289
 VDW_A2       =    4.4407
 k1-k3        =   16.0000    1.3333   -4.0000
 VDW_RADIUS   =   50.2022 A
 VDW_CNRADIUS =   21.1671 A
 Edisp (eV)   -4.89664

 E6    (eV) :    -3.5124
 E8    (eV) :    -1.3842
 % E8        : 28.27
    FORVDW:  cpu time    0.27: real time    0.27

  FORCE on cell =-STRESS in cart. coord.  units (eV):
  Direction    XX          YY          ZZ          XY          YZ          ZX
  --------------------------------------------------------------------------------------
  Alpha Z   289.94852   289.94852   289.94852
  Ewald     706.34250   705.86792 -5009.34001     0.33280     0.00062    -0.00910
  Hartree  1348.80475  1348.81242 -1168.34761     0.10865     0.00019    -0.00204
  E(xc)    -467.51724  -467.52405  -484.84648    -0.00305     0.00002    -0.00004
  Local   -3673.92781 -3673.55978  4288.89640    -0.38353    -0.00042     0.00851
  n-local  -112.45552  -112.56628  -102.65643    -0.09038     0.00031    -0.00060
  augment   -12.37465   -12.37374   -11.33845    -0.00038    -0.00000     0.00003
  Kinetic  1921.51194  1922.32192  2202.22428     0.58507    -0.00455     0.01015
  Fock        0.00000     0.00000     0.00000     0.00000     0.00000     0.00000
  vdW        -0.77900    -0.76937    -5.88418     0.00800    -0.00000    -0.00001
  -------------------------------------------------------------------------------------
  Total      -0.44651     0.15755    -1.34396     0.55716    -0.00383     0.00689
  in kB      -2.48605     0.87722    -7.48280     3.10212    -0.02133     0.03839
  external pressure =       -3.03 kB  Pullay stress =        0.00 kB


 VOLUME and BASIS-vectors are now :
 -----------------------------------------------------------------------------
  energy-cutoff  :      600.00
  volume of cell :      287.76
      direct lattice vectors                 reciprocal lattice vectors
     4.932874498 -0.001919286  0.000000000     0.202767147  0.117172881  0.000000000
    -2.468099399  4.271034986  0.000000000     0.000091118  0.234187941  0.000000000
     0.000000000  0.000000000 13.661406500     0.000000000  0.000000000  0.073198905

  length of vectors
     4.932874871  4.932874871 13.661406500     0.234187958  0.234187958  0.073198905


 FORCES acting on ions
    electron-ion (+dipol)            ewald-force                    non-local-force                 convergence-correction
 -----------------------------------------------------------------------------------------------
   -.192E+00 0.657E-01 0.321E+00   0.183E+00 -.622E-01 -.324E+00   -.430E-02 0.254E-02 0.891E-02   -.140E-04 0.102E-03 0.480E-02
   0.115E+00 0.588E-01 0.845E+00   -.122E+00 -.545E-01 -.881E+00   0.205E-01 0.222E-02 0.776E-01   0.176E-04 0.102E-03 0.480E-02
   -.435E+00 -.252E+00 0.849E+00   0.481E+00 0.287E+00 -.886E+00   0.128E-01 -.192E-02 0.779E-01   -.136E-05 0.912E-04 0.480E-02
   -.445E+00 0.388E+00 0.841E+00   0.492E+00 -.415E+00 -.876E+00   0.117E-01 0.749E-02 0.773E-01   0.357E-05 0.110E-03 0.480E-02
   -.111E+00 0.658E-01 -.926E-01   0.108E+00 -.621E-01 0.944E-01   -.367E-02 0.261E-02 -.138E-02   -.617E-03 0.743E-04 -.197E-02
   -.111E+00 0.658E-01 -.929E-01   0.107E+00 -.621E-01 0.947E-01   -.367E-02 0.261E-02 -.134E-02   -.603E-03 0.672E-04 -.197E-02
   -.111E+00 0.658E-01 -.929E-01   0.107E+00 -.620E-01 0.947E-01   -.367E-02 0.261E-02 -.134E-02   -.602E-03 0.588E-04 -.197E-02
   -.111E+00 0.658E-01 -.929E-01   0.107E+00 -.621E-01 0.947E-01   -.367E-02 0.261E-02 -.134E-02   -.621E-03 0.678E-04 -.197E-02
   0.134E+00 -.762E-01 -.104E+00   -.126E+00 0.708E-01 0.934E-01   0.487E-02 -.302E-02 0.194E-02   -.237E-03 0.269E-03 0.109E-01
   0.963E-01 -.803E-01 -.118E+00   -.883E-01 0.750E-01 0.107E+00   0.488E-02 -.304E-02 0.167E-02   -.231E-03 0.268E-03 0.109E-01
   0.119E+00 -.457E-01 -.111E+00   -.111E+00 0.403E-01 0.100E+00   0.490E-02 -.303E-02 0.180E-02   -.235E-03 0.255E-03 0.109E-01
   0.112E+00 -.675E-01 -.878E-01   -.104E+00 0.621E-01 0.771E-01   0.483E-02 -.303E-02 0.105E-02   -.234E-03 0.260E-03 0.109E-01
   0.959E-01 -.527E-01 -.929E-01   -.886E-01 0.492E-01 0.107E+00   0.470E-02 -.249E-02 0.164E-02   -.112E-03 -.700E-04 -.137E-01
   0.133E+00 -.568E-01 -.796E-01   -.126E+00 0.535E-01 0.933E-01   0.469E-02 -.251E-02 0.189E-02   -.122E-03 -.737E-04 -.137E-01
   0.118E+00 -.869E-01 -.861E-01   -.111E+00 0.835E-01 0.100E+00   0.472E-02 -.249E-02 0.176E-02   -.110E-03 -.604E-04 -.137E-01
   0.112E+00 -.654E-01 -.634E-01   -.104E+00 0.620E-01 0.774E-01   0.463E-02 -.249E-02 0.102E-02   -.121E-03 -.661E-04 -.137E-01
   0.856E+00 -.629E-01 -.177E+01   -.964E+00 0.589E-01 0.181E+01   -.884E-01 -.260E-02 -.182E+00   -.105E-04 -.923E-04 0.466E-02
   -.820E-01 -.648E-01 0.382E+00   0.108E+00 0.617E-01 -.370E+00   0.228E-01 -.250E-02 -.240E-01   0.333E-05 -.930E-04 0.479E-02
   0.899E-01 0.344E-01 0.382E+00   -.884E-01 -.515E-01 -.370E+00   0.121E-01 -.855E-02 -.240E-01   -.841E-05 -.987E-04 0.479E-02
   0.904E-01 -.165E+00 0.383E+00   -.887E-01 0.175E+00 -.371E+00   0.121E-01 0.376E-02 -.241E-01   -.579E-05 -.870E-04 0.479E-02
   0.110E+00 -.652E-01 -.932E-01   -.107E+00 0.618E-01 0.951E-01   0.342E-02 -.245E-02 0.403E-03   0.632E-03 -.912E-04 -.199E-02
   0.110E+00 -.652E-01 -.926E-01   -.107E+00 0.618E-01 0.945E-01   0.342E-02 -.245E-02 0.278E-03   0.618E-03 -.771E-04 -.199E-02
   0.110E+00 -.651E-01 -.926E-01   -.107E+00 0.618E-01 0.945E-01   0.342E-02 -.245E-02 0.277E-03   0.615E-03 -.720E-04 -.199E-02
   0.110E+00 -.652E-01 -.926E-01   -.107E+00 0.619E-01 0.945E-01   0.342E-02 -.245E-02 0.276E-03   0.632E-03 -.794E-04 -.199E-02
   -.134E+00 0.801E-01 -.117E+00   0.126E+00 -.749E-01 0.107E+00   -.457E-02 0.286E-02 -.324E-03   0.258E-03 -.267E-03 0.110E-01
   -.958E-01 0.759E-01 -.104E+00   0.885E-01 -.706E-01 0.934E-01   -.487E-02 0.279E-02 0.364E-04   0.251E-03 -.271E-03 0.110E-01
   -.111E+00 0.447E-01 -.111E+00   0.104E+00 -.400E-01 0.100E+00   -.466E-02 0.309E-02 -.161E-03   0.256E-03 -.257E-03 0.110E-01
   -.118E+00 0.669E-01 -.881E-01   0.110E+00 -.618E-01 0.771E-01   -.482E-02 0.291E-02 -.200E-03   0.252E-03 -.260E-03 0.110E-01
   -.950E-01 0.560E-01 -.795E-01   0.888E-01 -.532E-01 0.932E-01   -.454E-02 0.248E-02 0.431E-04   0.728E-04 0.777E-04 -.137E-01
   -.133E+00 0.518E-01 -.929E-01   0.126E+00 -.489E-01 0.107E+00   -.425E-02 0.241E-02 -.369E-03   0.831E-04 0.853E-04 -.137E-01
   -.110E+00 0.867E-01 -.863E-01   0.104E+00 -.833E-01 0.100E+00   -.433E-02 0.219E-02 -.179E-03   0.748E-04 0.678E-04 -.137E-01
   -.117E+00 0.649E-01 -.637E-01   0.110E+00 -.619E-01 0.774E-01   -.450E-02 0.236E-02 -.227E-03   0.839E-04 0.737E-04 -.137E-01
 -----------------------------------------------------------------------------------------------
   0.995E-04 -.547E-04 0.435E-02   0.666E-14 0.225E-13 0.145E-13   -.596E-04 0.416E-04 -.478E-02   -.327E-04 0.138E-04 0.636E-03
 
 
 POSITION                                       TOTAL-FORCE (eV/Angst)
 -----------------------------------------------------------------------------------
      2.46402      0.00044      1.70768        -0.013113      0.006138      0.010910
      4.93046     -0.00052      1.70768         0.013724      0.006668      0.046105
      1.22997      2.13595      1.70768         0.058976      0.032239      0.045682
      3.69641      2.13499      1.70768         0.058504     -0.019669      0.046475
      2.46402      0.00044      8.53838        -0.007584      0.006427     -0.001537
      4.93046     -0.00052      8.53838        -0.007578      0.006425     -0.001524
      1.22997      2.13595      8.53838        -0.007579      0.006422     -0.001526
      3.69641      2.13499      8.53838        -0.007585      0.006425     -0.001520
     -1.23163      2.13412      5.12303         0.012573     -0.008207      0.001852
      1.23481      2.13316      5.12303         0.012668     -0.008131      0.001968
     -2.46568      4.26964      5.12303         0.012557     -0.008225      0.001906
      0.00076      4.26868      5.12303         0.012684     -0.008186      0.001295
     -1.23163      2.13412     11.95373         0.011895     -0.006069      0.001991
      1.23481      2.13316     11.95373         0.011811     -0.005952      0.001849
     -2.46568      4.26964     11.95373         0.011755     -0.005963      0.001912
      0.00076      4.26868     11.95373         0.011917     -0.005998      0.001312
      0.00007      1.42496      1.71708        -0.197936     -0.006693     -0.135322
      2.46311      1.42400      1.70768         0.049570     -0.005743     -0.007308
     -1.23737      3.56047      1.70768         0.013964     -0.026319     -0.007370
      1.22906      3.55952      1.70768         0.014064      0.014829     -0.007352
     -0.00332      1.42496      8.53838         0.006741     -0.005910      0.000294
      2.46311      1.42400      8.53838         0.006733     -0.005905      0.000190
     -1.23737      3.56047      8.53838         0.006732     -0.005903      0.000191
      1.22906      3.55952      8.53838         0.006738     -0.005906      0.000191
      1.23571      0.70960      5.12303        -0.012318      0.007863     -0.000075
      3.70215      0.70864      5.12303        -0.011998      0.007868      0.000015
      0.00166      2.84512      5.12303        -0.012160      0.007594     -0.000044
      2.46810      2.84416      5.12303        -0.012155      0.007768     -0.000277
      1.23571      0.70960     11.95373        -0.010734      0.005432      0.000066
      3.70215      0.70864     11.95373        -0.011055      0.005437     -0.000074
      0.00166      2.84512     11.95373        -0.010895      0.005710     -0.000020
      2.46810      2.84416     11.95373        -0.010915      0.005535     -0.000256
 -----------------------------------------------------------------------------------
    total drift:                                0.000007      0.000001      0.000210


--------------------------------------------------------------------------------------------------------



  FREE ENERGIE OF THE ION-ELECTRON SYSTEM (eV)
  ---------------------------------------------------
  free  energy   TOTEN  =      -299.66625587 eV

  energy  without entropy=     -299.66625587  energy(sigma->0) =     -299.66625587
 


--------------------------------------------------------------------------------------------------------


    POTLOK:  cpu time    0.22: real time    0.22


--------------------------------------------------------------------------------------------------------


     LOOP+:  cpu time 2075.38: real time 2076.65
    4ORBIT:  cpu time    0.00: real time    0.00
 BZINTS: Fermi energy:  4.520001;128.000000 electrons
         Band energy:-586.833745;  BLOECHL correction: -0.000001

 total amount of memory used by VASP on root node   525499. kBytes
========================================================================

   base      :      30000. kBytes
   nonl-proj :     105522. kBytes
   fftplans  :       9104. kBytes
   grid      :      19307. kBytes
   one-center:         98. kBytes
   wavefun   :     361468. kBytes
 
  
  
 General timing and accounting informations for this job:
 ========================================================
  
                  Total CPU time used (sec):     2101.510
                            User time (sec):     1746.033
                          System time (sec):      355.477
                         Elapsed time (sec):     2103.087
  
                   Maximum memory used (kb):      631968.
                   Average memory used (kb):           0.
  
                          Minor page faults:     58417068
                          Major page faults:            0
                 Voluntary context switches:         1015
