 vasp.5.3.5 31Mar14 (build Nov 02 2014 15:17:37) complex                        
  
 executed on        ion-Intel-MKL date 2016.10.08  04:47:50
 running on    2 total cores
 distrk:  each k-point on    2 cores,    1 groups
 distr:  one band on NCORES_PER_BAND=   1 cores,    2 groups


--------------------------------------------------------------------------------------------------------


 INCAR:
 POTCAR:   PAW_PBE C 08Apr2002                    
 POTCAR:   PAW_PBE C 08Apr2002                    
   VRHFIN =C: s2p2                                                              
   LEXCH  = PE                                                                  
   EATOM  =   147.1560 eV,   10.8157 Ry                                         
                                                                                
   TITEL  = PAW_PBE C 08Apr2002                                                 
   LULTRA =        F    use ultrasoft PP ?                                      
   IUNSCR =        0    unscreen: 0-lin 1-nonlin 2-no                           
   RPACOR =     .000    partial core radius                                     
   POMASS =   12.011; ZVAL   =    4.000    mass and valenz                      
   RCORE  =    1.500    outmost cutoff radius                                   
   RWIGS  =    1.630; RWIGS  =     .863    wigner-seitz radius (au A)           
   ENMAX  =  400.000; ENMIN  =  300.000 eV                                      
   ICORE  =        2    local potential                                         
   LCOR   =        T    correct aug charges                                     
   LPAW   =        T    paw PP                                                  
   EAUG   =  644.873                                                            
   DEXC   =     .000                                                            
   RMAX   =    2.266    core radius for proj-oper                               
   RAUG   =    1.300    factor for augmentation sphere                          
   RDEP   =    1.501    radius for radial grids                                 
   RDEPT  =    1.300    core radius for aug-charge                              
   QCUT   =   -5.516; QGAM   =   11.032    optimization parameters              
                                                                                
   Description                                                                  
     l     E      TYP  RCUT    TYP  RCUT                                        
     0   .000     23  1.200                                                     
     0   .000     23  1.200                                                     
     1   .000     23  1.500                                                     
     1  2.500     23  1.500                                                     
     2   .000      7  1.500                                                     
  local pseudopotential read in
  atomic valenz-charges read in
  non local Contribution for L=           0  read in
    real space projection operators read in
  non local Contribution for L=           0  read in
    real space projection operators read in
  non local Contribution for L=           1  read in
    real space projection operators read in
  non local Contribution for L=           1  read in
    real space projection operators read in
    PAW grid and wavefunctions read in
 
   number of l-projection  operators is LMAX  =           4
   number of lm-projection operators is LMMAX =           8
 

 ----------------------------------------------------------------------------- 
|                                                                             |
|  ADVICE TO THIS USER RUNNING 'VASP/VAMP'   (HEAR YOUR MASTER'S VOICE ...):  |
|                                                                             |
|      You have a (more or less) 'large supercell' and for larger cells       |
|      it might be more efficient to use real space projection operators      |
|      So try LREAL= Auto  in the INCAR   file.                               |
|      Mind: If you want to do a very accurate calculations keep the          |
|      reciprocal projection scheme          (i.e. LREAL=.FALSE.)             |
|                                                                             |
 ----------------------------------------------------------------------------- 

 PAW_PBE C 08Apr2002                    :
 energy of atom  1       EATOM= -147.1560
 kinetic energy error for atom=    0.0057 (will be added to EATOM!!)
 
 
 POSCAR: C                                       
  positions in direct lattice
  No initial velocities read in
 exchange correlation table for  LEXCH =        8
   RHO(1)=    0.500       N(1)  =     2000
   RHO(2)=  100.500       N(2)  =     4000
 


--------------------------------------------------------------------------------------------------------


 ion  position               nearest neighbor table
   1  0.500  0.000  0.125-  18 1.42  19 1.42  20 1.42
   2  1.000  0.000  0.125-  20 1.42  17 1.42  19 1.42
   3  0.500  0.500  0.125-  17 1.42  20 1.42  18 1.42
   4  1.000  0.500  0.125-  19 1.42  18 1.42  17 1.43
   5  0.500  0.000  0.625-  22 1.42  23 1.42  24 1.42
   6  1.000  0.000  0.625-  21 1.42  24 1.42  23 1.42
   7  0.500  0.500  0.625-  24 1.42  21 1.42  22 1.42
   8  1.000  0.500  0.625-  23 1.42  22 1.42  21 1.42
   9  0.000  0.500  0.375-  27 1.42  26 1.42  28 1.42
  10  0.500  0.500  0.375-  28 1.42  25 1.42  27 1.42
  11  0.000  1.000  0.375-  25 1.42  28 1.42  26 1.42
  12  0.500  1.000  0.375-  26 1.42  27 1.42  25 1.42
  13  0.000  0.500  0.875-  31 1.42  30 1.42  32 1.42
  14  0.500  0.500  0.875-  32 1.42  29 1.42  31 1.42
  15  0.000  1.000  0.875-  29 1.42  32 1.42  30 1.42
  16  0.500  1.000  0.875-  30 1.42  31 1.42  29 1.42
  17  0.167  0.334  0.126-   3 1.42   2 1.42   4 1.43
  18  0.666  0.334  0.125-   1 1.42   4 1.42   3 1.42
  19  0.166  0.834  0.125-   4 1.42   1 1.42   2 1.42
  20  0.666  0.834  0.125-   3 1.42   2 1.42   1 1.42
  21  0.166  0.334  0.625-   6 1.42   7 1.42   8 1.42
  22  0.666  0.334  0.625-   5 1.42   8 1.42   7 1.42
  23  0.166  0.834  0.625-   8 1.42   5 1.42   6 1.42
  24  0.666  0.834  0.625-   7 1.42   6 1.42   5 1.42
  25  0.334  0.166  0.375-  11 1.42  10 1.42  12 1.42
  26  0.834  0.166  0.375-  12 1.42   9 1.42  11 1.42
  27  0.334  0.666  0.375-   9 1.42  12 1.42  10 1.42
  28  0.834  0.666  0.375-  10 1.42  11 1.42   9 1.42
  29  0.334  0.166  0.875-  15 1.42  14 1.42  16 1.42
  30  0.834  0.166  0.875-  16 1.42  13 1.42  15 1.42
  31  0.334  0.666  0.875-  13 1.42  16 1.42  14 1.42
  32  0.834  0.666  0.875-  14 1.42  15 1.42  13 1.42
 
  LATTYP: Found a base centered orthorhombic cell.
 ALAT       =     4.9295501972
 B/A-ratio  =     1.7336081796
 C/A-ratio  =     2.7175170016
  
  Lattice vectors:
  
 A1 = (   4.9328744980,  -0.0019192860,   0.0000000000)
 A2 = (  -2.4680993993,   4.2710349859,   0.0000000000)
 A3 = (   0.0000000000,   0.0000000000,  13.3961364709)


Analysis of symmetry for initial positions (statically):
=====================================================================
 Subroutine PRICEL returns:
 Original cell was already a primitive cell.
 

 Routine SETGRP: Setting up the symmetry group for a 
 base centered orthorhombic supercell.


 Subroutine GETGRP returns: Found  1 space group operations
 (whereof  1 operations were pure point group operations)
 out of a pool of  8 trial point group operations.


The static configuration has the point symmetry C_1 .


Analysis of symmetry for dynamics (positions and initial velocities):
=====================================================================
 Subroutine PRICEL returns:
 Original cell was already a primitive cell.
 

 Routine SETGRP: Setting up the symmetry group for a 
 base centered orthorhombic supercell.


 Subroutine GETGRP returns: Found  1 space group operations
 (whereof  1 operations were pure point group operations)
 out of a pool of  8 trial point group operations.


The dynamic configuration has the point symmetry C_1 .
 
 
 KPOINTS: B4C B11C-CBC                            

Automatic generation of k-mesh.
Space group operators:
 irot       det(A)        alpha          n_x          n_y          n_z        tau_x        tau_y        tau_z
    1     1.000000     0.000000     1.000000     0.000000     0.000000     0.000000     0.000000     0.000000
 
 Subroutine IBZKPT returns following result:
 ===========================================
 
 Found    163 irreducible k-points:
 
 Following reciprocal coordinates:
            Coordinates               Weight
  0.000000  0.000000  0.000000      1.000000
  0.111111 -0.000000  0.000000      2.000000
  0.222222 -0.000000  0.000000      2.000000
  0.333333  0.000000  0.000000      2.000000
  0.444444 -0.000000  0.000000      2.000000
 -0.000000  0.111111  0.000000      2.000000
  0.111111  0.111111  0.000000      2.000000
  0.222222  0.111111  0.000000      2.000000
  0.333333  0.111111  0.000000      2.000000
  0.444444  0.111111  0.000000      2.000000
 -0.444444  0.111111  0.000000      2.000000
 -0.333333  0.111111  0.000000      2.000000
 -0.222222  0.111111  0.000000      2.000000
 -0.111111  0.111111  0.000000      2.000000
 -0.000000  0.222222  0.000000      2.000000
  0.111111  0.222222  0.000000      2.000000
  0.222222  0.222222  0.000000      2.000000
  0.333333  0.222222  0.000000      2.000000
  0.444444  0.222222  0.000000      2.000000
 -0.444444  0.222222  0.000000      2.000000
 -0.333333  0.222222  0.000000      2.000000
 -0.222222  0.222222  0.000000      2.000000
 -0.111111  0.222222  0.000000      2.000000
  0.000000  0.333333  0.000000      2.000000
  0.111111  0.333333  0.000000      2.000000
  0.222222  0.333333  0.000000      2.000000
  0.333333  0.333333  0.000000      2.000000
  0.444444  0.333333  0.000000      2.000000
 -0.444444  0.333333  0.000000      2.000000
 -0.333333  0.333333  0.000000      2.000000
 -0.222222  0.333333  0.000000      2.000000
 -0.111111  0.333333  0.000000      2.000000
 -0.000000  0.444444  0.000000      2.000000
  0.111111  0.444444  0.000000      2.000000
  0.222222  0.444444  0.000000      2.000000
  0.333333  0.444444  0.000000      2.000000
  0.444444  0.444444  0.000000      2.000000
 -0.444444  0.444444  0.000000      2.000000
 -0.333333  0.444444  0.000000      2.000000
 -0.222222  0.444444  0.000000      2.000000
 -0.111111  0.444444  0.000000      2.000000
  0.000000  0.000000  0.250000      2.000000
  0.111111 -0.000000  0.250000      2.000000
  0.222222 -0.000000  0.250000      2.000000
  0.333333  0.000000  0.250000      2.000000
  0.444444 -0.000000  0.250000      2.000000
 -0.444444  0.000000  0.250000      2.000000
 -0.333333 -0.000000  0.250000      2.000000
 -0.222222  0.000000  0.250000      2.000000
 -0.111111  0.000000  0.250000      2.000000
 -0.000000  0.111111  0.250000      2.000000
  0.111111  0.111111  0.250000      2.000000
  0.222222  0.111111  0.250000      2.000000
  0.333333  0.111111  0.250000      2.000000
  0.444444  0.111111  0.250000      2.000000
 -0.444444  0.111111  0.250000      2.000000
 -0.333333  0.111111  0.250000      2.000000
 -0.222222  0.111111  0.250000      2.000000
 -0.111111  0.111111  0.250000      2.000000
 -0.000000  0.222222  0.250000      2.000000
  0.111111  0.222222  0.250000      2.000000
  0.222222  0.222222  0.250000      2.000000
  0.333333  0.222222  0.250000      2.000000
  0.444444  0.222222  0.250000      2.000000
 -0.444444  0.222222  0.250000      2.000000
 -0.333333  0.222222  0.250000      2.000000
 -0.222222  0.222222  0.250000      2.000000
 -0.111111  0.222222  0.250000      2.000000
  0.000000  0.333333  0.250000      2.000000
  0.111111  0.333333  0.250000      2.000000
  0.222222  0.333333  0.250000      2.000000
  0.333333  0.333333  0.250000      2.000000
  0.444444  0.333333  0.250000      2.000000
 -0.444444  0.333333  0.250000      2.000000
 -0.333333  0.333333  0.250000      2.000000
 -0.222222  0.333333  0.250000      2.000000
 -0.111111  0.333333  0.250000      2.000000
 -0.000000  0.444444  0.250000      2.000000
  0.111111  0.444444  0.250000      2.000000
  0.222222  0.444444  0.250000      2.000000
  0.333333  0.444444  0.250000      2.000000
  0.444444  0.444444  0.250000      2.000000
 -0.444444  0.444444  0.250000      2.000000
 -0.333333  0.444444  0.250000      2.000000
 -0.222222  0.444444  0.250000      2.000000
 -0.111111  0.444444  0.250000      2.000000
  0.000000 -0.444444  0.250000      2.000000
  0.111111 -0.444444  0.250000      2.000000
  0.222222 -0.444444  0.250000      2.000000
  0.333333 -0.444444  0.250000      2.000000
  0.444444 -0.444444  0.250000      2.000000
 -0.444444 -0.444444  0.250000      2.000000
 -0.333333 -0.444444  0.250000      2.000000
 -0.222222 -0.444444  0.250000      2.000000
 -0.111111 -0.444444  0.250000      2.000000
  0.000000 -0.333333  0.250000      2.000000
  0.111111 -0.333333  0.250000      2.000000
  0.222222 -0.333333  0.250000      2.000000
  0.333333 -0.333333  0.250000      2.000000
  0.444444 -0.333333  0.250000      2.000000
 -0.444444 -0.333333  0.250000      2.000000
 -0.333333 -0.333333  0.250000      2.000000
 -0.222222 -0.333333  0.250000      2.000000
 -0.111111 -0.333333  0.250000      2.000000
  0.000000 -0.222222  0.250000      2.000000
  0.111111 -0.222222  0.250000      2.000000
  0.222222 -0.222222  0.250000      2.000000
  0.333333 -0.222222  0.250000      2.000000
  0.444444 -0.222222  0.250000      2.000000
 -0.444444 -0.222222  0.250000      2.000000
 -0.333333 -0.222222  0.250000      2.000000
 -0.222222 -0.222222  0.250000      2.000000
 -0.111111 -0.222222  0.250000      2.000000
  0.000000 -0.111111  0.250000      2.000000
  0.111111 -0.111111  0.250000      2.000000
  0.222222 -0.111111  0.250000      2.000000
  0.333333 -0.111111  0.250000      2.000000
  0.444444 -0.111111  0.250000      2.000000
 -0.444444 -0.111111  0.250000      2.000000
 -0.333333 -0.111111  0.250000      2.000000
 -0.222222 -0.111111  0.250000      2.000000
 -0.111111 -0.111111  0.250000      2.000000
  0.000000  0.000000  0.500000      1.000000
  0.111111 -0.000000  0.500000      2.000000
  0.222222 -0.000000  0.500000      2.000000
  0.333333  0.000000  0.500000      2.000000
  0.444444 -0.000000  0.500000      2.000000
 -0.000000  0.111111  0.500000      2.000000
  0.111111  0.111111  0.500000      2.000000
  0.222222  0.111111  0.500000      2.000000
  0.333333  0.111111  0.500000      2.000000
  0.444444  0.111111  0.500000      2.000000
 -0.444444  0.111111  0.500000      2.000000
 -0.333333  0.111111  0.500000      2.000000
 -0.222222  0.111111  0.500000      2.000000
 -0.111111  0.111111  0.500000      2.000000
 -0.000000  0.222222  0.500000      2.000000
  0.111111  0.222222  0.500000      2.000000
  0.222222  0.222222  0.500000      2.000000
  0.333333  0.222222  0.500000      2.000000
  0.444444  0.222222  0.500000      2.000000
 -0.444444  0.222222  0.500000      2.000000
 -0.333333  0.222222  0.500000      2.000000
 -0.222222  0.222222  0.500000      2.000000
 -0.111111  0.222222  0.500000      2.000000
  0.000000  0.333333  0.500000      2.000000
  0.111111  0.333333  0.500000      2.000000
  0.222222  0.333333  0.500000      2.000000
  0.333333  0.333333  0.500000      2.000000
  0.444444  0.333333  0.500000      2.000000
 -0.444444  0.333333  0.500000      2.000000
 -0.333333  0.333333  0.500000      2.000000
 -0.222222  0.333333  0.500000      2.000000
 -0.111111  0.333333  0.500000      2.000000
 -0.000000  0.444444  0.500000      2.000000
  0.111111  0.444444  0.500000      2.000000
  0.222222  0.444444  0.500000      2.000000
  0.333333  0.444444  0.500000      2.000000
  0.444444  0.444444  0.500000      2.000000
 -0.444444  0.444444  0.500000      2.000000
 -0.333333  0.444444  0.500000      2.000000
 -0.222222  0.444444  0.500000      2.000000
 -0.111111  0.444444  0.500000      2.000000
 
 Following cartesian coordinates:
            Coordinates               Weight
  0.000000  0.000000  0.000000      1.000000
  0.022530  0.013019  0.000000      2.000000
  0.045059  0.026038  0.000000      2.000000
  0.067589  0.039058  0.000000      2.000000
  0.090119  0.052077  0.000000      2.000000
  0.000010  0.026021  0.000000      2.000000
  0.022540  0.039040  0.000000      2.000000
  0.045069  0.052059  0.000000      2.000000
  0.067599  0.065079  0.000000      2.000000
  0.090129  0.078098  0.000000      2.000000
 -0.090109 -0.026056  0.000000      2.000000
 -0.067579 -0.013037  0.000000      2.000000
 -0.045049 -0.000018  0.000000      2.000000
 -0.022520  0.013002  0.000000      2.000000
  0.000020  0.052042  0.000000      2.000000
  0.022550  0.065061  0.000000      2.000000
  0.045080  0.078080  0.000000      2.000000
  0.067609  0.091099  0.000000      2.000000
  0.090139  0.104119  0.000000      2.000000
 -0.090098 -0.000035  0.000000      2.000000
 -0.067569  0.012984  0.000000      2.000000
 -0.045039  0.026003  0.000000      2.000000
 -0.022509  0.039023  0.000000      2.000000
  0.000030  0.078063  0.000000      2.000000
  0.022560  0.091082  0.000000      2.000000
  0.045090  0.104101  0.000000      2.000000
  0.067619  0.117120  0.000000      2.000000
  0.090149  0.130139  0.000000      2.000000
 -0.090088  0.025986  0.000000      2.000000
 -0.067559  0.039005  0.000000      2.000000
 -0.045029  0.052024  0.000000      2.000000
 -0.022499  0.065043  0.000000      2.000000
  0.000040  0.104084  0.000000      2.000000
  0.022570  0.117103  0.000000      2.000000
  0.045100  0.130122  0.000000      2.000000
  0.067630  0.143141  0.000000      2.000000
  0.090159  0.156160  0.000000      2.000000
 -0.090078  0.052007  0.000000      2.000000
 -0.067549  0.065026  0.000000      2.000000
 -0.045019  0.078045  0.000000      2.000000
 -0.022489  0.091064  0.000000      2.000000
  0.000000  0.000000  0.018662      2.000000
  0.022530  0.013019  0.018662      2.000000
  0.045059  0.026038  0.018662      2.000000
  0.067589  0.039058  0.018662      2.000000
  0.090119  0.052077  0.018662      2.000000
 -0.090119 -0.052077  0.018662      2.000000
 -0.067589 -0.039058  0.018662      2.000000
 -0.045059 -0.026038  0.018662      2.000000
 -0.022530 -0.013019  0.018662      2.000000
  0.000010  0.026021  0.018662      2.000000
  0.022540  0.039040  0.018662      2.000000
  0.045069  0.052059  0.018662      2.000000
  0.067599  0.065079  0.018662      2.000000
  0.090129  0.078098  0.018662      2.000000
 -0.090109 -0.026056  0.018662      2.000000
 -0.067579 -0.013037  0.018662      2.000000
 -0.045049 -0.000018  0.018662      2.000000
 -0.022520  0.013002  0.018662      2.000000
  0.000020  0.052042  0.018662      2.000000
  0.022550  0.065061  0.018662      2.000000
  0.045080  0.078080  0.018662      2.000000
  0.067609  0.091099  0.018662      2.000000
  0.090139  0.104119  0.018662      2.000000
 -0.090098 -0.000035  0.018662      2.000000
 -0.067569  0.012984  0.018662      2.000000
 -0.045039  0.026003  0.018662      2.000000
 -0.022509  0.039023  0.018662      2.000000
  0.000030  0.078063  0.018662      2.000000
  0.022560  0.091082  0.018662      2.000000
  0.045090  0.104101  0.018662      2.000000
  0.067619  0.117120  0.018662      2.000000
  0.090149  0.130139  0.018662      2.000000
 -0.090088  0.025986  0.018662      2.000000
 -0.067559  0.039005  0.018662      2.000000
 -0.045029  0.052024  0.018662      2.000000
 -0.022499  0.065043  0.018662      2.000000
  0.000040  0.104084  0.018662      2.000000
  0.022570  0.117103  0.018662      2.000000
  0.045100  0.130122  0.018662      2.000000
  0.067630  0.143141  0.018662      2.000000
  0.090159  0.156160  0.018662      2.000000
 -0.090078  0.052007  0.018662      2.000000
 -0.067549  0.065026  0.018662      2.000000
 -0.045019  0.078045  0.018662      2.000000
 -0.022489  0.091064  0.018662      2.000000
 -0.000040 -0.104084  0.018662      2.000000
  0.022489 -0.091064  0.018662      2.000000
  0.045019 -0.078045  0.018662      2.000000
  0.067549 -0.065026  0.018662      2.000000
  0.090078 -0.052007  0.018662      2.000000
 -0.090159 -0.156160  0.018662      2.000000
 -0.067630 -0.143141  0.018662      2.000000
 -0.045100 -0.130122  0.018662      2.000000
 -0.022570 -0.117103  0.018662      2.000000
 -0.000030 -0.078063  0.018662      2.000000
  0.022499 -0.065043  0.018662      2.000000
  0.045029 -0.052024  0.018662      2.000000
  0.067559 -0.039005  0.018662      2.000000
  0.090088 -0.025986  0.018662      2.000000
 -0.090149 -0.130139  0.018662      2.000000
 -0.067619 -0.117120  0.018662      2.000000
 -0.045090 -0.104101  0.018662      2.000000
 -0.022560 -0.091082  0.018662      2.000000
 -0.000020 -0.052042  0.018662      2.000000
  0.022509 -0.039023  0.018662      2.000000
  0.045039 -0.026003  0.018662      2.000000
  0.067569 -0.012984  0.018662      2.000000
  0.090098  0.000035  0.018662      2.000000
 -0.090139 -0.104119  0.018662      2.000000
 -0.067609 -0.091099  0.018662      2.000000
 -0.045080 -0.078080  0.018662      2.000000
 -0.022550 -0.065061  0.018662      2.000000
 -0.000010 -0.026021  0.018662      2.000000
  0.022520 -0.013002  0.018662      2.000000
  0.045049  0.000018  0.018662      2.000000
  0.067579  0.013037  0.018662      2.000000
  0.090109  0.026056  0.018662      2.000000
 -0.090129 -0.078098  0.018662      2.000000
 -0.067599 -0.065079  0.018662      2.000000
 -0.045069 -0.052059  0.018662      2.000000
 -0.022540 -0.039040  0.018662      2.000000
  0.000000  0.000000  0.037324      1.000000
  0.022530  0.013019  0.037324      2.000000
  0.045059  0.026038  0.037324      2.000000
  0.067589  0.039058  0.037324      2.000000
  0.090119  0.052077  0.037324      2.000000
  0.000010  0.026021  0.037324      2.000000
  0.022540  0.039040  0.037324      2.000000
  0.045069  0.052059  0.037324      2.000000
  0.067599  0.065079  0.037324      2.000000
  0.090129  0.078098  0.037324      2.000000
 -0.090109 -0.026056  0.037324      2.000000
 -0.067579 -0.013037  0.037324      2.000000
 -0.045049 -0.000018  0.037324      2.000000
 -0.022520  0.013002  0.037324      2.000000
  0.000020  0.052042  0.037324      2.000000
  0.022550  0.065061  0.037324      2.000000
  0.045080  0.078080  0.037324      2.000000
  0.067609  0.091099  0.037324      2.000000
  0.090139  0.104119  0.037324      2.000000
 -0.090098 -0.000035  0.037324      2.000000
 -0.067569  0.012984  0.037324      2.000000
 -0.045039  0.026003  0.037324      2.000000
 -0.022509  0.039023  0.037324      2.000000
  0.000030  0.078063  0.037324      2.000000
  0.022560  0.091082  0.037324      2.000000
  0.045090  0.104101  0.037324      2.000000
  0.067619  0.117120  0.037324      2.000000
  0.090149  0.130139  0.037324      2.000000
 -0.090088  0.025986  0.037324      2.000000
 -0.067559  0.039005  0.037324      2.000000
 -0.045029  0.052024  0.037324      2.000000
 -0.022499  0.065043  0.037324      2.000000
  0.000040  0.104084  0.037324      2.000000
  0.022570  0.117103  0.037324      2.000000
  0.045100  0.130122  0.037324      2.000000
  0.067630  0.143141  0.037324      2.000000
  0.090159  0.156160  0.037324      2.000000
 -0.090078  0.052007  0.037324      2.000000
 -0.067549  0.065026  0.037324      2.000000
 -0.045019  0.078045  0.037324      2.000000
 -0.022489  0.091064  0.037324      2.000000
 
 TETIRR: Found    970 inequivalent tetrahedra from     1944


--------------------------------------------------------------------------------------------------------




 Dimension of arrays:
   k-points           NKPTS =    163   k-points in BZ     NKDIM =    163   number of bands    NBANDS=     82
   number of dos      NEDOS =    301   number of ions     NIONS =     32
   non local maximal  LDIM  =      4   non local SUM 2l+1 LMDIM =      8
   total plane-waves  NPLWV = 172800
   max r-space proj   IRMAX =      1   max aug-charges    IRDMAX=   7425
   dimension x,y,z NGX =    40 NGY =   40 NGZ =  108
   dimension x,y,z NGXF=    80 NGYF=   80 NGZF=  216
   support grid    NGXF=    80 NGYF=   80 NGZF=  216
   ions per type =              32
 NGX,Y,Z   is equivalent  to a cutoff of  13.48, 13.48, 13.40 a.u.
 NGXF,Y,Z  is equivalent  to a cutoff of  26.96, 26.96, 26.81 a.u.


 I would recommend the setting:
   dimension x,y,z NGX =    39 NGY =   39 NGZ =  107
 SYSTEM =  graphite                                
 POSCAR =  C                                       

 Startparameter for this run:
   NWRITE =      2    write-flag & timer
   PREC   = accura    normal or accurate (medium, high low for compatibility)
   ISTART =      0    job   : 0-new  1-cont  2-samecut
   ICHARG =      2    charge: 1-file 2-atom 10-const
   ISPIN  =      1    spin polarized calculation?
   LNONCOLLINEAR =      F non collinear calculations
   LSORBIT =      F    spin-orbit coupling
   INIWAV =      1    electr: 0-lowe 1-rand  2-diag
   LASPH  =      F    aspherical Exc in radial PAW
   METAGGA=      F    non-selfconsistent MetaGGA calc.

 Electronic Relaxation 1
   ENCUT  =  600.0 eV  44.10 Ry    6.64 a.u.   9.85  9.85 26.76*2*pi/ulx,y,z
   ENINI  =  600.0     initial cutoff
   ENAUG  =  644.9 eV  augmentation charge cutoff
   NELM   =    200;   NELMIN=  2; NELMDL=  0     # of ELM steps 
   EDIFF  = 0.1E-05   stopping-criterion for ELM
   LREAL  =      F    real-space projection
   NLSPLINE    = F    spline interpolate recip. space projectors
   LCOMPAT=      F    compatible to vasp.4.4
   GGA_COMPAT  = T    GGA compatible to vasp.4.4-vasp.4.6
   LMAXPAW     = -100 max onsite density
   LMAXMIX     =    2 max onsite mixed and CHGCAR
   VOSKOWN=      0    Vosko Wilk Nusair interpolation
   ROPT   =    0.00000
 Ionic relaxation
   EDIFFG = 0.1E-02   stopping-criterion for IOM
   NSW    =      0    number of steps for IOM
   NBLOCK =      1;   KBLOCK =      1    inner block; outer block 
   IBRION =     -1    ionic relax: 0-MD 1-quasi-New 2-CG
   NFREE  =      0    steps in history (QN), initial steepest desc. (CG)
   ISIF   =      2    stress and relaxation
   IWAVPR =     10    prediction:  0-non 1-charg 2-wave 3-comb
   ISYM   =      2    0-nonsym 1-usesym 2-fastsym
   LCORR  =      T    Harris-Foulkes like correction to forces

   POTIM  = 0.5000    time-step for ionic-motion
   TEIN   =    0.0    initial temperature
   TEBEG  =    0.0;   TEEND  =   0.0 temperature during run
   SMASS  =  -3.00    Nose mass-parameter (am)
   estimated Nose-frequenzy (Omega)   =  0.10E-29 period in steps =****** mass=  -0.556E-27a.u.
   SCALEE = 1.0000    scale energy and forces
   NPACO  =    256;   APACO  = 16.0  distance and # of slots for P.C.
   PSTRESS=    0.0 pullay stress

  Mass of Ions in am
   POMASS =  12.01
  Ionic Valenz
   ZVAL   =   4.00
  Atomic Wigner-Seitz radii
   RWIGS  =  -1.00
  virtual crystal weights 
   VCA    =   1.00
   NELECT =     128.0000    total number of electrons
   NUPDOWN=      -1.0000    fix difference up-down

 DOS related values:
   EMIN   =  10.00;   EMAX   =-10.00  energy-range for DOS
   EFERMI =   0.00
   ISMEAR =    -5;   SIGMA  =   0.20  broadening in eV -4-tet -1-fermi 0-gaus

 Electronic relaxation 2 (details)
   IALGO  =     38    algorithm
   LDIAG  =      T    sub-space diagonalisation (order eigenvalues)
   LSUBROT=      F    optimize rotation matrix (better conditioning)
   TURBO    =      0    0=normal 1=particle mesh
   IRESTART =      0    0=no restart 2=restart with 2 vectors
   NREBOOT  =      0    no. of reboots
   NMIN     =      0    reboot dimension
   EREF     =   0.00    reference energy to select bands
   IMIX   =      4    mixing-type and parameters
     AMIX     =   0.40;   BMIX     =  1.00
     AMIX_MAG =   1.60;   BMIX_MAG =  1.00
     AMIN     =   0.10
     WC   =   100.;   INIMIX=   1;  MIXPRE=   1;  MAXMIX= -45

 Intra band minimization:
   WEIMIN = 0.0000     energy-eigenvalue tresh-hold
   EBREAK =  0.30E-08  absolut break condition
   DEPER  =   0.30     relativ break condition  

   TIME   =   0.40     timestep for ELM

  volume/ion in A,a.u.               =       8.82        59.51
  Fermi-wavevector in a.u.,A,eV,Ry     =   1.257882  2.377052 21.528040  1.582266
  Thomas-Fermi vector in A             =   2.391519
 
 Write flags
   LWAVE  =      F    write WAVECAR
   LCHARG =      F    write CHGCAR
   LVTOT  =      F    write LOCPOT, total local potential
   LVHAR  =      F    write LOCPOT, Hartree potential only
   LELF   =      F    write electronic localiz. function (ELF)
   LORBIT =      0    0 simple, 1 ext, 2 COOP (PROOUT)


 Dipole corrections
   LMONO  =      F    monopole corrections only (constant potential shift)
   LDIPOL =      F    correct potential (dipole corrections)
   IDIPOL =      0    1-x, 2-y, 3-z, 4-all directions 
   EPSILON=  1.0000000 bulk dielectric constant

 Exchange correlation treatment:
   GGA     =    PE    GGA type
   LEXCH   =     8    internal setting for exchange type
   VOSKOWN=      0    Vosko Wilk Nusair interpolation
   LHFCALC =     F    Hartree Fock is set to
   LHFONE  =     F    Hartree Fock one center treatment
   AEXX    =    0.0000 exact exchange contribution

 Linear response parameters
   LEPSILON=     F    determine dielectric tensor
   LRPA    =     F    only Hartree local field effects (RPA)
   LNABLA  =     F    use nabla operator in PAW spheres
   LVEL    =     F    velocity operator in full k-point grid
   LINTERFAST=   F  fast interpolation
   KINTER  =     0    interpolate to denser k-point grid
   CSHIFT  =0.1000    complex shift for real part using Kramers Kronig
   OMEGAMAX=  -1.0    maximum frequency
   DEG_THRESHOLD= 0.2000000E-02 threshold for treating states as degnerate
   RTIME   =    0.100 relaxation time in fs

 Orbital magnetization related:
   ORBITALMAG=     F  switch on orbital magnetization
   LCHIMAG   =     F  perturbation theory with respect to B field
   DQ        =  0.001000  dq finite difference perturbation B field



--------------------------------------------------------------------------------------------------------


 Static calculation
 charge density and potential will be updated during run
 non-spin polarized calculation
 Variant of blocked Davidson
 Davidson routine will perform the subspace rotation
 perform sub-space diagonalisation
    after iterative eigenvector-optimisation
 modified Broyden-mixing scheme, WC =      100.0
 initial mixing is a Kerker type mixing with AMIX =  0.4000 and BMIX =      1.0000
 Hartree-type preconditioning will be used
 using additional bands           18
 reciprocal scheme for non local part
 calculate Harris-corrections to forces 
   (improved forces if not selfconsistent)
 use gradient corrections 
 use of overlap-Matrix (Vanderbilt PP)
 Fermi weights with tetrahedron method with Bloechl corrections


--------------------------------------------------------------------------------------------------------


  energy-cutoff  :      600.00
  volume of cell :      282.17
      direct lattice vectors                 reciprocal lattice vectors
     4.932874498 -0.001919286  0.000000000     0.202767147  0.117172881  0.000000000
    -2.468099399  4.271034986  0.000000000     0.000091118  0.234187941  0.000000000
     0.000000000  0.000000000 13.396136471     0.000000000  0.000000000  0.074648389

  length of vectors
     4.932874871  4.932874871 13.396136471     0.234187958  0.234187958  0.074648389


 
 k-points in units of 2pi/SCALE and weight: B4C B11C-CBC                            
   0.00000000  0.00000000  0.00000000       0.003
   0.02252968  0.01301921  0.00000000       0.006
   0.04505937  0.02603842  0.00000000       0.006
   0.06758905  0.03905763  0.00000000       0.006
   0.09011873  0.05207684  0.00000000       0.006
   0.00001012  0.02602088  0.00000000       0.006
   0.02253981  0.03904009  0.00000000       0.006
   0.04506949  0.05205930  0.00000000       0.006
   0.06759917  0.06507851  0.00000000       0.006
   0.09012886  0.07809772  0.00000000       0.006
  -0.09010861 -0.02605595  0.00000000       0.006
  -0.06757892 -0.01303674  0.00000000       0.006
  -0.04504924 -0.00001754  0.00000000       0.006
  -0.02251956  0.01300167  0.00000000       0.006
   0.00002025  0.05204176  0.00000000       0.006
   0.02254993  0.06506097  0.00000000       0.006
   0.04507961  0.07808018  0.00000000       0.006
   0.06760930  0.09109939  0.00000000       0.006
   0.09013898  0.10411860  0.00000000       0.006
  -0.09009848 -0.00003507  0.00000000       0.006
  -0.06756880  0.01298414  0.00000000       0.006
  -0.04503912  0.02600335  0.00000000       0.006
  -0.02250943  0.03902256  0.00000000       0.006
   0.00003037  0.07806265  0.00000000       0.006
   0.02256006  0.09108186  0.00000000       0.006
   0.04508974  0.10410106  0.00000000       0.006
   0.06761942  0.11712027  0.00000000       0.006
   0.09014910  0.13013948  0.00000000       0.006
  -0.09008836  0.02598581  0.00000000       0.006
  -0.06755868  0.03900502  0.00000000       0.006
  -0.04502899  0.05202423  0.00000000       0.006
  -0.02249931  0.06504344  0.00000000       0.006
   0.00004050  0.10408353  0.00000000       0.006
   0.02257018  0.11710274  0.00000000       0.006
   0.04509986  0.13012195  0.00000000       0.006
   0.06762955  0.14314116  0.00000000       0.006
   0.09015923  0.15616037  0.00000000       0.006
  -0.09007824  0.05200669  0.00000000       0.006
  -0.06754855  0.06502590  0.00000000       0.006
  -0.04501887  0.07804511  0.00000000       0.006
  -0.02248919  0.09106432  0.00000000       0.006
   0.00000000  0.00000000  0.01866210       0.006
   0.02252968  0.01301921  0.01866210       0.006
   0.04505937  0.02603842  0.01866210       0.006
   0.06758905  0.03905763  0.01866210       0.006
   0.09011873  0.05207684  0.01866210       0.006
  -0.09011873 -0.05207684  0.01866210       0.006
  -0.06758905 -0.03905763  0.01866210       0.006
  -0.04505937 -0.02603842  0.01866210       0.006
  -0.02252968 -0.01301921  0.01866210       0.006
   0.00001012  0.02602088  0.01866210       0.006
   0.02253981  0.03904009  0.01866210       0.006
   0.04506949  0.05205930  0.01866210       0.006
   0.06759917  0.06507851  0.01866210       0.006
   0.09012886  0.07809772  0.01866210       0.006
  -0.09010861 -0.02605595  0.01866210       0.006
  -0.06757892 -0.01303674  0.01866210       0.006
  -0.04504924 -0.00001754  0.01866210       0.006
  -0.02251956  0.01300167  0.01866210       0.006
   0.00002025  0.05204176  0.01866210       0.006
   0.02254993  0.06506097  0.01866210       0.006
   0.04507961  0.07808018  0.01866210       0.006
   0.06760930  0.09109939  0.01866210       0.006
   0.09013898  0.10411860  0.01866210       0.006
  -0.09009848 -0.00003507  0.01866210       0.006
  -0.06756880  0.01298414  0.01866210       0.006
  -0.04503912  0.02600335  0.01866210       0.006
  -0.02250943  0.03902256  0.01866210       0.006
   0.00003037  0.07806265  0.01866210       0.006
   0.02256006  0.09108186  0.01866210       0.006
   0.04508974  0.10410106  0.01866210       0.006
   0.06761942  0.11712027  0.01866210       0.006
   0.09014910  0.13013948  0.01866210       0.006
  -0.09008836  0.02598581  0.01866210       0.006
  -0.06755868  0.03900502  0.01866210       0.006
  -0.04502899  0.05202423  0.01866210       0.006
  -0.02249931  0.06504344  0.01866210       0.006
   0.00004050  0.10408353  0.01866210       0.006
   0.02257018  0.11710274  0.01866210       0.006
   0.04509986  0.13012195  0.01866210       0.006
   0.06762955  0.14314116  0.01866210       0.006
   0.09015923  0.15616037  0.01866210       0.006
  -0.09007824  0.05200669  0.01866210       0.006
  -0.06754855  0.06502590  0.01866210       0.006
  -0.04501887  0.07804511  0.01866210       0.006
  -0.02248919  0.09106432  0.01866210       0.006
  -0.00004050 -0.10408353  0.01866210       0.006
   0.02248919 -0.09106432  0.01866210       0.006
   0.04501887 -0.07804511  0.01866210       0.006
   0.06754855 -0.06502590  0.01866210       0.006
   0.09007824 -0.05200669  0.01866210       0.006
  -0.09015923 -0.15616037  0.01866210       0.006
  -0.06762955 -0.14314116  0.01866210       0.006
  -0.04509986 -0.13012195  0.01866210       0.006
  -0.02257018 -0.11710274  0.01866210       0.006
  -0.00003037 -0.07806265  0.01866210       0.006
   0.02249931 -0.06504344  0.01866210       0.006
   0.04502899 -0.05202423  0.01866210       0.006
   0.06755868 -0.03900502  0.01866210       0.006
   0.09008836 -0.02598581  0.01866210       0.006
  -0.09014910 -0.13013948  0.01866210       0.006
  -0.06761942 -0.11712027  0.01866210       0.006
  -0.04508974 -0.10410106  0.01866210       0.006
  -0.02256006 -0.09108186  0.01866210       0.006
  -0.00002025 -0.05204176  0.01866210       0.006
   0.02250943 -0.03902256  0.01866210       0.006
   0.04503912 -0.02600335  0.01866210       0.006
   0.06756880 -0.01298414  0.01866210       0.006
   0.09009848  0.00003507  0.01866210       0.006
  -0.09013898 -0.10411860  0.01866210       0.006
  -0.06760930 -0.09109939  0.01866210       0.006
  -0.04507961 -0.07808018  0.01866210       0.006
  -0.02254993 -0.06506097  0.01866210       0.006
  -0.00001012 -0.02602088  0.01866210       0.006
   0.02251956 -0.01300167  0.01866210       0.006
   0.04504924  0.00001754  0.01866210       0.006
   0.06757892  0.01303674  0.01866210       0.006
   0.09010861  0.02605595  0.01866210       0.006
  -0.09012886 -0.07809772  0.01866210       0.006
  -0.06759917 -0.06507851  0.01866210       0.006
  -0.04506949 -0.05205930  0.01866210       0.006
  -0.02253981 -0.03904009  0.01866210       0.006
   0.00000000  0.00000000  0.03732419       0.003
   0.02252968  0.01301921  0.03732419       0.006
   0.04505937  0.02603842  0.03732419       0.006
   0.06758905  0.03905763  0.03732419       0.006
   0.09011873  0.05207684  0.03732419       0.006
   0.00001012  0.02602088  0.03732419       0.006
   0.02253981  0.03904009  0.03732419       0.006
   0.04506949  0.05205930  0.03732419       0.006
   0.06759917  0.06507851  0.03732419       0.006
   0.09012886  0.07809772  0.03732419       0.006
  -0.09010861 -0.02605595  0.03732419       0.006
  -0.06757892 -0.01303674  0.03732419       0.006
  -0.04504924 -0.00001754  0.03732419       0.006
  -0.02251956  0.01300167  0.03732419       0.006
   0.00002025  0.05204176  0.03732419       0.006
   0.02254993  0.06506097  0.03732419       0.006
   0.04507961  0.07808018  0.03732419       0.006
   0.06760930  0.09109939  0.03732419       0.006
   0.09013898  0.10411860  0.03732419       0.006
  -0.09009848 -0.00003507  0.03732419       0.006
  -0.06756880  0.01298414  0.03732419       0.006
  -0.04503912  0.02600335  0.03732419       0.006
  -0.02250943  0.03902256  0.03732419       0.006
   0.00003037  0.07806265  0.03732419       0.006
   0.02256006  0.09108186  0.03732419       0.006
   0.04508974  0.10410106  0.03732419       0.006
   0.06761942  0.11712027  0.03732419       0.006
   0.09014910  0.13013948  0.03732419       0.006
  -0.09008836  0.02598581  0.03732419       0.006
  -0.06755868  0.03900502  0.03732419       0.006
  -0.04502899  0.05202423  0.03732419       0.006
  -0.02249931  0.06504344  0.03732419       0.006
   0.00004050  0.10408353  0.03732419       0.006
   0.02257018  0.11710274  0.03732419       0.006
   0.04509986  0.13012195  0.03732419       0.006
   0.06762955  0.14314116  0.03732419       0.006
   0.09015923  0.15616037  0.03732419       0.006
  -0.09007824  0.05200669  0.03732419       0.006
  -0.06754855  0.06502590  0.03732419       0.006
  -0.04501887  0.07804511  0.03732419       0.006
  -0.02248919  0.09106432  0.03732419       0.006
 
 k-points in reciprocal lattice and weights: B4C B11C-CBC                            
   0.00000000  0.00000000  0.00000000       0.003
   0.11111111 -0.00000000  0.00000000       0.006
   0.22222222 -0.00000000  0.00000000       0.006
   0.33333333  0.00000000  0.00000000       0.006
   0.44444444 -0.00000000  0.00000000       0.006
  -0.00000000  0.11111111  0.00000000       0.006
   0.11111111  0.11111111  0.00000000       0.006
   0.22222222  0.11111111  0.00000000       0.006
   0.33333333  0.11111111  0.00000000       0.006
   0.44444444  0.11111111  0.00000000       0.006
  -0.44444444  0.11111111  0.00000000       0.006
  -0.33333333  0.11111111  0.00000000       0.006
  -0.22222222  0.11111111  0.00000000       0.006
  -0.11111111  0.11111111  0.00000000       0.006
  -0.00000000  0.22222222  0.00000000       0.006
   0.11111111  0.22222222  0.00000000       0.006
   0.22222222  0.22222222  0.00000000       0.006
   0.33333333  0.22222222  0.00000000       0.006
   0.44444444  0.22222222  0.00000000       0.006
  -0.44444444  0.22222222  0.00000000       0.006
  -0.33333333  0.22222222  0.00000000       0.006
  -0.22222222  0.22222222  0.00000000       0.006
  -0.11111111  0.22222222  0.00000000       0.006
   0.00000000  0.33333333  0.00000000       0.006
   0.11111111  0.33333333  0.00000000       0.006
   0.22222222  0.33333333  0.00000000       0.006
   0.33333333  0.33333333  0.00000000       0.006
   0.44444444  0.33333333  0.00000000       0.006
  -0.44444444  0.33333333  0.00000000       0.006
  -0.33333333  0.33333333  0.00000000       0.006
  -0.22222222  0.33333333  0.00000000       0.006
  -0.11111111  0.33333333  0.00000000       0.006
  -0.00000000  0.44444444  0.00000000       0.006
   0.11111111  0.44444444  0.00000000       0.006
   0.22222222  0.44444444  0.00000000       0.006
   0.33333333  0.44444444  0.00000000       0.006
   0.44444444  0.44444444  0.00000000       0.006
  -0.44444444  0.44444444  0.00000000       0.006
  -0.33333333  0.44444444  0.00000000       0.006
  -0.22222222  0.44444444  0.00000000       0.006
  -0.11111111  0.44444444  0.00000000       0.006
   0.00000000  0.00000000  0.25000000       0.006
   0.11111111 -0.00000000  0.25000000       0.006
   0.22222222 -0.00000000  0.25000000       0.006
   0.33333333  0.00000000  0.25000000       0.006
   0.44444444 -0.00000000  0.25000000       0.006
  -0.44444444  0.00000000  0.25000000       0.006
  -0.33333333 -0.00000000  0.25000000       0.006
  -0.22222222  0.00000000  0.25000000       0.006
  -0.11111111  0.00000000  0.25000000       0.006
  -0.00000000  0.11111111  0.25000000       0.006
   0.11111111  0.11111111  0.25000000       0.006
   0.22222222  0.11111111  0.25000000       0.006
   0.33333333  0.11111111  0.25000000       0.006
   0.44444444  0.11111111  0.25000000       0.006
  -0.44444444  0.11111111  0.25000000       0.006
  -0.33333333  0.11111111  0.25000000       0.006
  -0.22222222  0.11111111  0.25000000       0.006
  -0.11111111  0.11111111  0.25000000       0.006
  -0.00000000  0.22222222  0.25000000       0.006
   0.11111111  0.22222222  0.25000000       0.006
   0.22222222  0.22222222  0.25000000       0.006
   0.33333333  0.22222222  0.25000000       0.006
   0.44444444  0.22222222  0.25000000       0.006
  -0.44444444  0.22222222  0.25000000       0.006
  -0.33333333  0.22222222  0.25000000       0.006
  -0.22222222  0.22222222  0.25000000       0.006
  -0.11111111  0.22222222  0.25000000       0.006
   0.00000000  0.33333333  0.25000000       0.006
   0.11111111  0.33333333  0.25000000       0.006
   0.22222222  0.33333333  0.25000000       0.006
   0.33333333  0.33333333  0.25000000       0.006
   0.44444444  0.33333333  0.25000000       0.006
  -0.44444444  0.33333333  0.25000000       0.006
  -0.33333333  0.33333333  0.25000000       0.006
  -0.22222222  0.33333333  0.25000000       0.006
  -0.11111111  0.33333333  0.25000000       0.006
  -0.00000000  0.44444444  0.25000000       0.006
   0.11111111  0.44444444  0.25000000       0.006
   0.22222222  0.44444444  0.25000000       0.006
   0.33333333  0.44444444  0.25000000       0.006
   0.44444444  0.44444444  0.25000000       0.006
  -0.44444444  0.44444444  0.25000000       0.006
  -0.33333333  0.44444444  0.25000000       0.006
  -0.22222222  0.44444444  0.25000000       0.006
  -0.11111111  0.44444444  0.25000000       0.006
   0.00000000 -0.44444444  0.25000000       0.006
   0.11111111 -0.44444444  0.25000000       0.006
   0.22222222 -0.44444444  0.25000000       0.006
   0.33333333 -0.44444444  0.25000000       0.006
   0.44444444 -0.44444444  0.25000000       0.006
  -0.44444444 -0.44444444  0.25000000       0.006
  -0.33333333 -0.44444444  0.25000000       0.006
  -0.22222222 -0.44444444  0.25000000       0.006
  -0.11111111 -0.44444444  0.25000000       0.006
   0.00000000 -0.33333333  0.25000000       0.006
   0.11111111 -0.33333333  0.25000000       0.006
   0.22222222 -0.33333333  0.25000000       0.006
   0.33333333 -0.33333333  0.25000000       0.006
   0.44444444 -0.33333333  0.25000000       0.006
  -0.44444444 -0.33333333  0.25000000       0.006
  -0.33333333 -0.33333333  0.25000000       0.006
  -0.22222222 -0.33333333  0.25000000       0.006
  -0.11111111 -0.33333333  0.25000000       0.006
   0.00000000 -0.22222222  0.25000000       0.006
   0.11111111 -0.22222222  0.25000000       0.006
   0.22222222 -0.22222222  0.25000000       0.006
   0.33333333 -0.22222222  0.25000000       0.006
   0.44444444 -0.22222222  0.25000000       0.006
  -0.44444444 -0.22222222  0.25000000       0.006
  -0.33333333 -0.22222222  0.25000000       0.006
  -0.22222222 -0.22222222  0.25000000       0.006
  -0.11111111 -0.22222222  0.25000000       0.006
   0.00000000 -0.11111111  0.25000000       0.006
   0.11111111 -0.11111111  0.25000000       0.006
   0.22222222 -0.11111111  0.25000000       0.006
   0.33333333 -0.11111111  0.25000000       0.006
   0.44444444 -0.11111111  0.25000000       0.006
  -0.44444444 -0.11111111  0.25000000       0.006
  -0.33333333 -0.11111111  0.25000000       0.006
  -0.22222222 -0.11111111  0.25000000       0.006
  -0.11111111 -0.11111111  0.25000000       0.006
   0.00000000  0.00000000  0.50000000       0.003
   0.11111111 -0.00000000  0.50000000       0.006
   0.22222222 -0.00000000  0.50000000       0.006
   0.33333333  0.00000000  0.50000000       0.006
   0.44444444 -0.00000000  0.50000000       0.006
  -0.00000000  0.11111111  0.50000000       0.006
   0.11111111  0.11111111  0.50000000       0.006
   0.22222222  0.11111111  0.50000000       0.006
   0.33333333  0.11111111  0.50000000       0.006
   0.44444444  0.11111111  0.50000000       0.006
  -0.44444444  0.11111111  0.50000000       0.006
  -0.33333333  0.11111111  0.50000000       0.006
  -0.22222222  0.11111111  0.50000000       0.006
  -0.11111111  0.11111111  0.50000000       0.006
  -0.00000000  0.22222222  0.50000000       0.006
   0.11111111  0.22222222  0.50000000       0.006
   0.22222222  0.22222222  0.50000000       0.006
   0.33333333  0.22222222  0.50000000       0.006
   0.44444444  0.22222222  0.50000000       0.006
  -0.44444444  0.22222222  0.50000000       0.006
  -0.33333333  0.22222222  0.50000000       0.006
  -0.22222222  0.22222222  0.50000000       0.006
  -0.11111111  0.22222222  0.50000000       0.006
   0.00000000  0.33333333  0.50000000       0.006
   0.11111111  0.33333333  0.50000000       0.006
   0.22222222  0.33333333  0.50000000       0.006
   0.33333333  0.33333333  0.50000000       0.006
   0.44444444  0.33333333  0.50000000       0.006
  -0.44444444  0.33333333  0.50000000       0.006
  -0.33333333  0.33333333  0.50000000       0.006
  -0.22222222  0.33333333  0.50000000       0.006
  -0.11111111  0.33333333  0.50000000       0.006
  -0.00000000  0.44444444  0.50000000       0.006
   0.11111111  0.44444444  0.50000000       0.006
   0.22222222  0.44444444  0.50000000       0.006
   0.33333333  0.44444444  0.50000000       0.006
   0.44444444  0.44444444  0.50000000       0.006
  -0.44444444  0.44444444  0.50000000       0.006
  -0.33333333  0.44444444  0.50000000       0.006
  -0.22222222  0.44444444  0.50000000       0.006
  -0.11111111  0.44444444  0.50000000       0.006
 
 position of ions in fractional coordinates (direct lattice) 
   0.49967330  0.00032672  0.12500000
   0.99967330  0.00032672  0.12500000
   0.49967330  0.50032672  0.12500000
   0.99967330  0.50032672  0.12500000
   0.49967330  0.00032672  0.62500000
   0.99967330  0.00032672  0.62500000
   0.49967330  0.50032672  0.62500000
   0.99967330  0.50032672  0.62500000
   0.00032672  0.49967330  0.37500000
   0.50032672  0.49967330  0.37500000
   0.00032672  0.99967330  0.37500000
   0.50032672  0.99967330  0.37500000
   0.00032672  0.49967330  0.87500000
   0.50032672  0.49967330  0.87500000
   0.00032672  0.99967330  0.87500000
   0.50032672  0.99967330  0.87500000
   0.16699296  0.33370753  0.12570050
   0.66629246  0.33370753  0.12500000
   0.16629246  0.83370753  0.12500000
   0.66629246  0.83370753  0.12500000
   0.16629246  0.33370753  0.62500000
   0.66629246  0.33370753  0.62500000
   0.16629246  0.83370753  0.62500000
   0.66629246  0.83370753  0.62500000
   0.33370753  0.16629246  0.37500000
   0.83370753  0.16629246  0.37500000
   0.33370753  0.66629246  0.37500000
   0.83370753  0.66629246  0.37500000
   0.33370753  0.16629246  0.87500000
   0.83370753  0.16629246  0.87500000
   0.33370753  0.66629246  0.87500000
   0.83370753  0.66629246  0.87500000
 
 position of ions in cartesian coordinates  (Angst):
   2.46401933  0.00043641  1.67451706
   4.93045658 -0.00052323  1.67451706
   1.22996963  2.13595390  1.67451706
   3.69640688  2.13499426  1.67451706
   2.46401933  0.00043641  8.37258529
   4.93045658 -0.00052323  8.37258529
   1.22996963  2.13595390  8.37258529
   3.69640688  2.13499426  8.37258529
  -1.23163172  2.13412154  5.02355118
   1.23480553  2.13316189  5.02355118
  -2.46568142  4.26963903  5.02355118
   0.00075583  4.26867939  5.02355118
  -1.23163172  2.13412154 11.72161941
   1.23480553  2.13316189 11.72161941
  -2.46568142  4.26963903 11.72161941
   0.00075583  4.26867939 11.72161941
   0.00013198  1.42495602  1.68390107
   2.46311374  1.42399773  1.67451706
  -1.23737320  3.56047486  1.67451706
   1.22906405  3.55951522  1.67451706
  -0.00332350  1.42495737  8.37258529
   2.46311374  1.42399773  8.37258529
  -1.23737320  3.56047486  8.37258529
   1.22906405  3.55951522  8.37258529
   1.23571103  0.70960044  5.02355118
   3.70214828  0.70864080  5.02355118
   0.00166133  2.84511794  5.02355118
   2.46809858  2.84415829  5.02355118
   1.23571103  0.70960044 11.72161941
   3.70214828  0.70864080 11.72161941
   0.00166133  2.84511794 11.72161941
   2.46809858  2.84415829 11.72161941
 


--------------------------------------------------------------------------------------------------------


 k-point  1 :   0.0000 0.0000 0.0000  plane waves:    9385
 k-point  2 :   0.1111-0.0000 0.0000  plane waves:    9391
 k-point  3 :   0.2222-0.0000 0.0000  plane waves:    9423
 k-point  4 :   0.3333 0.0000 0.0000  plane waves:    9429
 k-point  5 :   0.4444-0.0000 0.0000  plane waves:    9431
 k-point  6 :  -0.0000 0.1111 0.0000  plane waves:    9391
 k-point  7 :   0.1111 0.1111 0.0000  plane waves:    9424
 k-point  8 :   0.2222 0.1111 0.0000  plane waves:    9424
 k-point  9 :   0.3333 0.1111 0.0000  plane waves:    9418
 k-point 10 :   0.4444 0.1111 0.0000  plane waves:    9414
 k-point 11 :  -0.4444 0.1111 0.0000  plane waves:    9418
 k-point 12 :  -0.3333 0.1111 0.0000  plane waves:    9426
 k-point 13 :  -0.2222 0.1111 0.0000  plane waves:    9420
 k-point 14 :  -0.1111 0.1111 0.0000  plane waves:    9395
 k-point 15 :  -0.0000 0.2222 0.0000  plane waves:    9423
 k-point 16 :   0.1111 0.2222 0.0000  plane waves:    9424
 k-point 17 :   0.2222 0.2222 0.0000  plane waves:    9422
 k-point 18 :   0.3333 0.2222 0.0000  plane waves:    9422
 k-point 19 :   0.4444 0.2222 0.0000  plane waves:    9424
 k-point 20 :  -0.4444 0.2222 0.0000  plane waves:    9418
 k-point 21 :  -0.3333 0.2222 0.0000  plane waves:    9426
 k-point 22 :  -0.2222 0.2222 0.0000  plane waves:    9423
 k-point 23 :  -0.1111 0.2222 0.0000  plane waves:    9420
 k-point 24 :   0.0000 0.3333 0.0000  plane waves:    9429
 k-point 25 :   0.1111 0.3333 0.0000  plane waves:    9418
 k-point 26 :   0.2222 0.3333 0.0000  plane waves:    9422
 k-point 27 :   0.3333 0.3333 0.0000  plane waves:    9384
 k-point 28 :   0.4444 0.3333 0.0000  plane waves:    9426
 k-point 29 :  -0.4444 0.3333 0.0000  plane waves:    9412
 k-point 30 :  -0.3333 0.3333 0.0000  plane waves:    9431
 k-point 31 :  -0.2222 0.3333 0.0000  plane waves:    9426
 k-point 32 :  -0.1111 0.3333 0.0000  plane waves:    9426
 k-point 33 :  -0.0000 0.4444 0.0000  plane waves:    9431
 k-point 34 :   0.1111 0.4444 0.0000  plane waves:    9414
 k-point 35 :   0.2222 0.4444 0.0000  plane waves:    9424
 k-point 36 :   0.3333 0.4444 0.0000  plane waves:    9426
 k-point 37 :   0.4444 0.4444 0.0000  plane waves:    9416
 k-point 38 :  -0.4444 0.4444 0.0000  plane waves:    9433
 k-point 39 :  -0.3333 0.4444 0.0000  plane waves:    9412
 k-point 40 :  -0.2222 0.4444 0.0000  plane waves:    9418
 k-point 41 :  -0.1111 0.4444 0.0000  plane waves:    9418
 k-point 42 :   0.0000 0.0000 0.2500  plane waves:    9368
 k-point 43 :   0.1111-0.0000 0.2500  plane waves:    9389
 k-point 44 :   0.2222-0.0000 0.2500  plane waves:    9408
 k-point 45 :   0.3333 0.0000 0.2500  plane waves:    9427
 k-point 46 :   0.4444-0.0000 0.2500  plane waves:    9428
 k-point 47 :  -0.4444 0.0000 0.2500  plane waves:    9428
 k-point 48 :  -0.3333-0.0000 0.2500  plane waves:    9427
 k-point 49 :  -0.2222 0.0000 0.2500  plane waves:    9408
 k-point 50 :  -0.1111 0.0000 0.2500  plane waves:    9389
 k-point 51 :  -0.0000 0.1111 0.2500  plane waves:    9389
 k-point 52 :   0.1111 0.1111 0.2500  plane waves:    9393
 k-point 53 :   0.2222 0.1111 0.2500  plane waves:    9410
 k-point 54 :   0.3333 0.1111 0.2500  plane waves:    9417
 k-point 55 :   0.4444 0.1111 0.2500  plane waves:    9431
 k-point 56 :  -0.4444 0.1111 0.2500  plane waves:    9418
 k-point 57 :  -0.3333 0.1111 0.2500  plane waves:    9412
 k-point 58 :  -0.2222 0.1111 0.2500  plane waves:    9399
 k-point 59 :  -0.1111 0.1111 0.2500  plane waves:    9393
 k-point 60 :  -0.0000 0.2222 0.2500  plane waves:    9408
 k-point 61 :   0.1111 0.2222 0.2500  plane waves:    9410
 k-point 62 :   0.2222 0.2222 0.2500  plane waves:    9409
 k-point 63 :   0.3333 0.2222 0.2500  plane waves:    9419
 k-point 64 :   0.4444 0.2222 0.2500  plane waves:    9419
 k-point 65 :  -0.4444 0.2222 0.2500  plane waves:    9408
 k-point 66 :  -0.3333 0.2222 0.2500  plane waves:    9409
 k-point 67 :  -0.2222 0.2222 0.2500  plane waves:    9413
 k-point 68 :  -0.1111 0.2222 0.2500  plane waves:    9399
 k-point 69 :   0.0000 0.3333 0.2500  plane waves:    9427
 k-point 70 :   0.1111 0.3333 0.2500  plane waves:    9417
 k-point 71 :   0.2222 0.3333 0.2500  plane waves:    9419
 k-point 72 :   0.3333 0.3333 0.2500  plane waves:    9429
 k-point 73 :   0.4444 0.3333 0.2500  plane waves:    9420
 k-point 74 :  -0.4444 0.3333 0.2500  plane waves:    9418
 k-point 75 :  -0.3333 0.3333 0.2500  plane waves:    9435
 k-point 76 :  -0.2222 0.3333 0.2500  plane waves:    9409
 k-point 77 :  -0.1111 0.3333 0.2500  plane waves:    9412
 k-point 78 :  -0.0000 0.4444 0.2500  plane waves:    9428
 k-point 79 :   0.1111 0.4444 0.2500  plane waves:    9431
 k-point 80 :   0.2222 0.4444 0.2500  plane waves:    9419
 k-point 81 :   0.3333 0.4444 0.2500  plane waves:    9420
 k-point 82 :   0.4444 0.4444 0.2500  plane waves:    9436
 k-point 83 :  -0.4444 0.4444 0.2500  plane waves:    9431
 k-point 84 :  -0.3333 0.4444 0.2500  plane waves:    9418
 k-point 85 :  -0.2222 0.4444 0.2500  plane waves:    9408
 k-point 86 :  -0.1111 0.4444 0.2500  plane waves:    9418
 k-point 87 :   0.0000-0.4444 0.2500  plane waves:    9428
 k-point 88 :   0.1111-0.4444 0.2500  plane waves:    9418
 k-point 89 :   0.2222-0.4444 0.2500  plane waves:    9408
 k-point 90 :   0.3333-0.4444 0.2500  plane waves:    9418
 k-point 91 :   0.4444-0.4444 0.2500  plane waves:    9431
 k-point 92 :  -0.4444-0.4444 0.2500  plane waves:    9436
 k-point 93 :  -0.3333-0.4444 0.2500  plane waves:    9420
 k-point 94 :  -0.2222-0.4444 0.2500  plane waves:    9419
 k-point 95 :  -0.1111-0.4444 0.2500  plane waves:    9431
 k-point 96 :   0.0000-0.3333 0.2500  plane waves:    9427
 k-point 97 :   0.1111-0.3333 0.2500  plane waves:    9412
 k-point 98 :   0.2222-0.3333 0.2500  plane waves:    9409
 k-point 99 :   0.3333-0.3333 0.2500  plane waves:    9435
 k-point ** :   0.4444-0.3333 0.2500  plane waves:    9418
 k-point ** :  -0.4444-0.3333 0.2500  plane waves:    9420
 k-point ** :  -0.3333-0.3333 0.2500  plane waves:    9429
 k-point ** :  -0.2222-0.3333 0.2500  plane waves:    9419
 k-point ** :  -0.1111-0.3333 0.2500  plane waves:    9417
 k-point ** :   0.0000-0.2222 0.2500  plane waves:    9408
 k-point ** :   0.1111-0.2222 0.2500  plane waves:    9399
 k-point ** :   0.2222-0.2222 0.2500  plane waves:    9413
 k-point ** :   0.3333-0.2222 0.2500  plane waves:    9409
 k-point ** :   0.4444-0.2222 0.2500  plane waves:    9408
 k-point ** :  -0.4444-0.2222 0.2500  plane waves:    9419
 k-point ** :  -0.3333-0.2222 0.2500  plane waves:    9419
 k-point ** :  -0.2222-0.2222 0.2500  plane waves:    9409
 k-point ** :  -0.1111-0.2222 0.2500  plane waves:    9410
 k-point ** :   0.0000-0.1111 0.2500  plane waves:    9389
 k-point ** :   0.1111-0.1111 0.2500  plane waves:    9393
 k-point ** :   0.2222-0.1111 0.2500  plane waves:    9399
 k-point ** :   0.3333-0.1111 0.2500  plane waves:    9412
 k-point ** :   0.4444-0.1111 0.2500  plane waves:    9418
 k-point ** :  -0.4444-0.1111 0.2500  plane waves:    9431
 k-point ** :  -0.3333-0.1111 0.2500  plane waves:    9417
 k-point ** :  -0.2222-0.1111 0.2500  plane waves:    9410
 k-point ** :  -0.1111-0.1111 0.2500  plane waves:    9393
 k-point ** :   0.0000 0.0000 0.5000  plane waves:    9334
 k-point ** :   0.1111-0.0000 0.5000  plane waves:    9388
 k-point ** :   0.2222-0.0000 0.5000  plane waves:    9400
 k-point ** :   0.3333 0.0000 0.5000  plane waves:    9428
 k-point ** :   0.4444-0.0000 0.5000  plane waves:    9434
 k-point ** :  -0.0000 0.1111 0.5000  plane waves:    9388
 k-point ** :   0.1111 0.1111 0.5000  plane waves:    9378
 k-point ** :   0.2222 0.1111 0.5000  plane waves:    9424
 k-point ** :   0.3333 0.1111 0.5000  plane waves:    9414
 k-point ** :   0.4444 0.1111 0.5000  plane waves:    9448
 k-point ** :  -0.4444 0.1111 0.5000  plane waves:    9418
 k-point ** :  -0.3333 0.1111 0.5000  plane waves:    9422
 k-point ** :  -0.2222 0.1111 0.5000  plane waves:    9388
 k-point ** :  -0.1111 0.1111 0.5000  plane waves:    9388
 k-point ** :  -0.0000 0.2222 0.5000  plane waves:    9400
 k-point ** :   0.1111 0.2222 0.5000  plane waves:    9424
 k-point ** :   0.2222 0.2222 0.5000  plane waves:    9418
 k-point ** :   0.3333 0.2222 0.5000  plane waves:    9430
 k-point ** :   0.4444 0.2222 0.5000  plane waves:    9426
 k-point ** :  -0.4444 0.2222 0.5000  plane waves:    9418
 k-point ** :  -0.3333 0.2222 0.5000  plane waves:    9420
 k-point ** :  -0.2222 0.2222 0.5000  plane waves:    9396
 k-point ** :  -0.1111 0.2222 0.5000  plane waves:    9388
 k-point ** :   0.0000 0.3333 0.5000  plane waves:    9428
 k-point ** :   0.1111 0.3333 0.5000  plane waves:    9414
 k-point ** :   0.2222 0.3333 0.5000  plane waves:    9430
 k-point ** :   0.3333 0.3333 0.5000  plane waves:    9438
 k-point ** :   0.4444 0.3333 0.5000  plane waves:    9428
 k-point ** :  -0.4444 0.3333 0.5000  plane waves:    9420
 k-point ** :  -0.3333 0.3333 0.5000  plane waves:    9426
 k-point ** :  -0.2222 0.3333 0.5000  plane waves:    9420
 k-point ** :  -0.1111 0.3333 0.5000  plane waves:    9422
 k-point ** :  -0.0000 0.4444 0.5000  plane waves:    9434
 k-point ** :   0.1111 0.4444 0.5000  plane waves:    9448
 k-point ** :   0.2222 0.4444 0.5000  plane waves:    9426
 k-point ** :   0.3333 0.4444 0.5000  plane waves:    9428
 k-point ** :   0.4444 0.4444 0.5000  plane waves:    9446
 k-point ** :  -0.4444 0.4444 0.5000  plane waves:    9434
 k-point ** :  -0.3333 0.4444 0.5000  plane waves:    9420
 k-point ** :  -0.2222 0.4444 0.5000  plane waves:    9418
 k-point ** :  -0.1111 0.4444 0.5000  plane waves:    9418

 maximum and minimum number of plane-waves per node :      9448     9334

 maximum number of plane-waves:      9448
 maximum index in each direction: 
   IXMAX=   10   IYMAX=   10   IZMAX=   26
   IXMIN=  -10   IYMIN=  -10   IZMIN=  -27

 WARNING: aliasing errors must be expected set NGX to  42 to avoid them
 WARNING: aliasing errors must be expected set NGY to  42 to avoid them
 NGZ is ok and might be reduce to 108
 aliasing errors are usually negligible using standard VASP settings
 and one can safely disregard these warnings

 serial   3D FFT for wavefunctions
 parallel 3D FFT for charge:
    minimum data exchange during FFTs selected (reduces bandwidth)


 total amount of memory used by VASP on root node  1235525. kBytes
========================================================================

   base      :      30000. kBytes
   nonl-proj :     103398. kBytes
   fftplans  :      24080. kBytes
   grid      :      40320. kBytes
   one-center:         98. kBytes
   wavefun   :    1037629. kBytes
 
     INWAV:  cpu time    0.00: real time    0.00
 Broyden mixing: mesh for mixing (old mesh)
   NGX = 19   NGY = 19   NGZ = 53
  (NGX  = 80   NGY  = 80   NGZ  =216)
  gives a total of  19133 points

 initial charge density was supplied:
 charge density of overlapping atoms calculated
 number of electron     128.0000000 magnetization 
 keeping initial charge density in first step


--------------------------------------------------------------------------------------------------------


 Maximum index for augmentation-charges         3513 (set IRDMAX)


--------------------------------------------------------------------------------------------------------


 First call to EWALD:  gamma=   0.270
 Maximum number of real-space cells 4x 4x 2
 Maximum number of reciprocal cells 2x 2x 5

 FEWALD executed in parallel
    FEWALD:  cpu time    0.01: real time    0.02


----------------------------------------- Iteration    1(   1)  ---------------------------------------


    POTLOK:  cpu time    0.65: real time    1.29
    SETDIJ:  cpu time    0.05: real time    0.11
     EDDAV:  cpu time  461.53: real time  923.56
 BZINTS: Fermi energy: 16.307851;128.000000 electrons
         Band energy:  84.909397;  BLOECHL correction: -0.107552
       DOS:  cpu time    0.19: real time    0.37
    --------------------------------------------
      LOOP:  cpu time  462.42: real time  925.35

 eigenvalue-minimisations  : 26764
 total energy-change (2. order) : 0.6186347E+03  (-0.7148399E+04)
 number of electron     128.0000000 magnetization 
 augmentation part      128.0000000 magnetization 

 Free energy of the ion-electron system (eV)
  ---------------------------------------------------
  alpha Z        PSCENC =       295.69007636
  Ewald energy   TEWEN  =     -3694.38448117
  -Hartree energ DENC   =     -1182.70021658
  -exchange      EXHF   =         0.00000000
  -V(xc)+E(xc)   XCENC  =       443.12610892
  PAW double counting   =      1210.60617908    -1247.42152856
  entropy T*S    EENTRO =         0.00000000
  eigenvalues    EBANDS =        84.90939697
  atomic energy  EATOM  =      4708.80920826
  ---------------------------------------------------
  free energy    TOTEN  =       618.63474327 eV

  energy without entropy =      618.63474327  energy(sigma->0) =      618.63474327


--------------------------------------------------------------------------------------------------------




----------------------------------------- Iteration    1(   2)  ---------------------------------------


     EDDAV:  cpu time  554.41: real time 1109.37
 BZINTS: Fermi energy:  3.891989;128.000000 electrons
         Band energy:-791.801905;  BLOECHL correction:  0.000000
       DOS:  cpu time    0.05: real time    0.10
    --------------------------------------------
      LOOP:  cpu time  554.46: real time 1109.50

 eigenvalue-minimisations  : 33458
 total energy-change (2. order) :-0.8767113E+03  (-0.8318924E+03)
 number of electron     128.0000000 magnetization 
 augmentation part      128.0000000 magnetization 

 Free energy of the ion-electron system (eV)
  ---------------------------------------------------
  alpha Z        PSCENC =       295.69007636
  Ewald energy   TEWEN  =     -3694.38448117
  -Hartree energ DENC   =     -1182.70021658
  -exchange      EXHF   =         0.00000000
  -V(xc)+E(xc)   XCENC  =       443.12610892
  PAW double counting   =      1210.60617908    -1247.42152856
  entropy T*S    EENTRO =         0.00000000
  eigenvalues    EBANDS =      -791.80190509
  atomic energy  EATOM  =      4708.80920826
  ---------------------------------------------------
  free energy    TOTEN  =      -258.07655879 eV

  energy without entropy =     -258.07655879  energy(sigma->0) =     -258.07655879


--------------------------------------------------------------------------------------------------------




----------------------------------------- Iteration    1(   3)  ---------------------------------------


     EDDAV:  cpu time  529.99: real time 1059.53
 BZINTS: Fermi energy:  3.223734;128.000000 electrons
         Band energy:-846.070733;  BLOECHL correction:  0.000000
       DOS:  cpu time    0.06: real time    0.13
    --------------------------------------------
      LOOP:  cpu time  530.07: real time 1059.69

 eigenvalue-minimisations  : 31660
 total energy-change (2. order) :-0.5426883E+02  (-0.5355343E+02)
 number of electron     128.0000000 magnetization 
 augmentation part      128.0000000 magnetization 

 Free energy of the ion-electron system (eV)
  ---------------------------------------------------
  alpha Z        PSCENC =       295.69007636
  Ewald energy   TEWEN  =     -3694.38448117
  -Hartree energ DENC   =     -1182.70021658
  -exchange      EXHF   =         0.00000000
  -V(xc)+E(xc)   XCENC  =       443.12610892
  PAW double counting   =      1210.60617908    -1247.42152856
  entropy T*S    EENTRO =         0.00000000
  eigenvalues    EBANDS =      -846.07073282
  atomic energy  EATOM  =      4708.80920826
  ---------------------------------------------------
  free energy    TOTEN  =      -312.34538652 eV

  energy without entropy =     -312.34538652  energy(sigma->0) =     -312.34538652


--------------------------------------------------------------------------------------------------------




----------------------------------------- Iteration    1(   4)  ---------------------------------------


     EDDAV:  cpu time  551.03: real time 1102.60
 BZINTS: Fermi energy:  3.203308;128.000000 electrons
         Band energy:-847.293667;  BLOECHL correction:  0.000000
       DOS:  cpu time    0.06: real time    0.13
    --------------------------------------------
      LOOP:  cpu time  551.10: real time 1102.75

 eigenvalue-minimisations  : 33048
 total energy-change (2. order) :-0.1222934E+01  (-0.1219709E+01)
 number of electron     128.0000000 magnetization 
 augmentation part      128.0000000 magnetization 

 Free energy of the ion-electron system (eV)
  ---------------------------------------------------
  alpha Z        PSCENC =       295.69007636
  Ewald energy   TEWEN  =     -3694.38448117
  -Hartree energ DENC   =     -1182.70021658
  -exchange      EXHF   =         0.00000000
  -V(xc)+E(xc)   XCENC  =       443.12610892
  PAW double counting   =      1210.60617908    -1247.42152856
  entropy T*S    EENTRO =         0.00000000
  eigenvalues    EBANDS =      -847.29366729
  atomic energy  EATOM  =      4708.80920826
  ---------------------------------------------------
  free energy    TOTEN  =      -313.56832099 eV

  energy without entropy =     -313.56832099  energy(sigma->0) =     -313.56832099


--------------------------------------------------------------------------------------------------------




----------------------------------------- Iteration    1(   5)  ---------------------------------------


     EDDAV:  cpu time  555.97: real time 1112.50
 BZINTS: Fermi energy:  3.204364;128.000000 electrons
         Band energy:-847.335178;  BLOECHL correction:  0.000000
       DOS:  cpu time    0.07: real time    0.14
    CHARGE:  cpu time   22.59: real time   45.19
    MIXING:  cpu time    0.02: real time    0.04
    --------------------------------------------
      LOOP:  cpu time  578.65: real time 1157.88

 eigenvalue-minimisations  : 33704
 total energy-change (2. order) :-0.4151101E-01  (-0.4149027E-01)
 number of electron     128.0000015 magnetization 
 augmentation part        3.3995774 magnetization 

 Broyden mixing:
  rms(total) = 0.22082E+01    rms(broyden)= 0.22079E+01
  rms(prec ) = 0.26100E+01
  weight for this iteration     100.00

 Free energy of the ion-electron system (eV)
  ---------------------------------------------------
  alpha Z        PSCENC =       295.69007636
  Ewald energy   TEWEN  =     -3694.38448117
  -Hartree energ DENC   =     -1182.70021658
  -exchange      EXHF   =         0.00000000
  -V(xc)+E(xc)   XCENC  =       443.12610892
  PAW double counting   =      1210.60617908    -1247.42152856
  entropy T*S    EENTRO =         0.00000000
  eigenvalues    EBANDS =      -847.33517830
  atomic energy  EATOM  =      4708.80920826
  ---------------------------------------------------
  free energy    TOTEN  =      -313.60983200 eV

  energy without entropy =     -313.60983200  energy(sigma->0) =     -313.60983200


--------------------------------------------------------------------------------------------------------




----------------------------------------- Iteration    1(   6)  ---------------------------------------


    POTLOK:  cpu time    0.68: real time    1.35
    SETDIJ:  cpu time    0.04: real time    0.08
     EDDAV:  cpu time  512.25: real time 1025.00
 BZINTS: Fermi energy:  3.960134;128.000000 electrons
         Band energy:-707.560357;  BLOECHL correction:  0.000000
       DOS:  cpu time    0.07: real time    0.14
    CHARGE:  cpu time   22.63: real time   45.28
    MIXING:  cpu time    0.04: real time    0.08
    --------------------------------------------
      LOOP:  cpu time  535.71: real time 1071.96

 eigenvalue-minimisations  : 29918
 total energy-change (2. order) : 0.1444494E+02  (-0.1494623E+01)
 number of electron     128.0000013 magnetization 
 augmentation part        3.2441786 magnetization 

 Broyden mixing:
  rms(total) = 0.11578E+01    rms(broyden)= 0.11578E+01
  rms(prec ) = 0.13591E+01
  weight for this iteration     100.00

 eigenvalues of (default mixing * dielectric matrix)
  average eigenvalue GAMMA=   2.0333
  2.0333

 Free energy of the ion-electron system (eV)
  ---------------------------------------------------
  alpha Z        PSCENC =       295.69007636
  Ewald energy   TEWEN  =     -3694.38448117
  -Hartree energ DENC   =     -1313.46764091
  -exchange      EXHF   =         0.00000000
  -V(xc)+E(xc)   XCENC  =       451.49315448
  PAW double counting   =      1641.88259580    -1681.62744466
  entropy T*S    EENTRO =         0.00000000
  eigenvalues    EBANDS =      -707.56035692
  atomic energy  EATOM  =      4708.80920826
  ---------------------------------------------------
  free energy    TOTEN  =      -299.16488877 eV

  energy without entropy =     -299.16488877  energy(sigma->0) =     -299.16488877


--------------------------------------------------------------------------------------------------------




----------------------------------------- Iteration    1(   7)  ---------------------------------------


    POTLOK:  cpu time    0.58: real time    1.16
    SETDIJ:  cpu time    0.04: real time    0.07
     EDDAV:  cpu time  512.16: real time 1024.86
 BZINTS: Fermi energy:  4.699516;128.000000 electrons
         Band energy:-565.071965;  BLOECHL correction:  0.000000
       DOS:  cpu time    0.06: real time    0.13
    CHARGE:  cpu time   23.23: real time   46.49
    MIXING:  cpu time    0.02: real time    0.04
    --------------------------------------------
      LOOP:  cpu time  536.11: real time 1072.77

 eigenvalue-minimisations  : 29528
 total energy-change (2. order) : 0.4572460E+01  (-0.1566304E+01)
 number of electron     128.0000012 magnetization 
 augmentation part        3.0786262 magnetization 

 Broyden mixing:
  rms(total) = 0.19340E+00    rms(broyden)= 0.19327E+00
  rms(prec ) = 0.20712E+00
  weight for this iteration     100.00

 eigenvalues of (default mixing * dielectric matrix)
  average eigenvalue GAMMA=   2.1660
  2.1660  2.1660

 Free energy of the ion-electron system (eV)
  ---------------------------------------------------
  alpha Z        PSCENC =       295.69007636
  Ewald energy   TEWEN  =     -3694.38448117
  -Hartree energ DENC   =     -1458.50898727
  -exchange      EXHF   =         0.00000000
  -V(xc)+E(xc)   XCENC  =       461.00540054
  PAW double counting   =      2180.14157485    -2222.27325534
  entropy T*S    EENTRO =         0.00000000
  eigenvalues    EBANDS =      -565.07196537
  atomic energy  EATOM  =      4708.80920826
  ---------------------------------------------------
  free energy    TOTEN  =      -294.59242914 eV

  energy without entropy =     -294.59242914  energy(sigma->0) =     -294.59242914


--------------------------------------------------------------------------------------------------------




----------------------------------------- Iteration    1(   8)  ---------------------------------------


    POTLOK:  cpu time    0.60: real time    1.19
    SETDIJ:  cpu time    0.04: real time    0.08
     EDDAV:  cpu time  522.63: real time 1045.79
 BZINTS: Fermi energy:  4.662179;128.000000 electrons
         Band energy:-568.089904;  BLOECHL correction:  0.000000
       DOS:  cpu time    0.07: real time    0.13
    CHARGE:  cpu time   21.69: real time   43.40
    MIXING:  cpu time    0.04: real time    0.09
    --------------------------------------------
      LOOP:  cpu time  545.07: real time 1090.71

 eigenvalue-minimisations  : 29992
 total energy-change (2. order) :-0.6180225E-01  (-0.3628910E-01)
 number of electron     128.0000012 magnetization 
 augmentation part        3.0728320 magnetization 

 Broyden mixing:
  rms(total) = 0.32675E-01    rms(broyden)= 0.32649E-01
  rms(prec ) = 0.46131E-01
  weight for this iteration     100.00

 eigenvalues of (default mixing * dielectric matrix)
  average eigenvalue GAMMA=   1.7204
  2.4227  2.0020  0.7364

 Free energy of the ion-electron system (eV)
  ---------------------------------------------------
  alpha Z        PSCENC =       295.69007636
  Ewald energy   TEWEN  =     -3694.38448117
  -Hartree energ DENC   =     -1456.19967591
  -exchange      EXHF   =         0.00000000
  -V(xc)+E(xc)   XCENC  =       460.88065207
  PAW double counting   =      2211.45242788    -2252.81253510
  entropy T*S    EENTRO =         0.00000000
  eigenvalues    EBANDS =      -568.08990376
  atomic energy  EATOM  =      4708.80920826
  ---------------------------------------------------
  free energy    TOTEN  =      -294.65423139 eV

  energy without entropy =     -294.65423139  energy(sigma->0) =     -294.65423139


--------------------------------------------------------------------------------------------------------




----------------------------------------- Iteration    1(   9)  ---------------------------------------


    POTLOK:  cpu time    0.59: real time    1.16
    SETDIJ:  cpu time    0.04: real time    0.08
     EDDAV:  cpu time  528.81: real time 1058.15
 BZINTS: Fermi energy:  4.681412;128.000000 electrons
         Band energy:-566.254555;  BLOECHL correction:  0.000000
       DOS:  cpu time    0.05: real time    0.09
    CHARGE:  cpu time   21.04: real time   42.11
    MIXING:  cpu time    0.02: real time    0.04
    --------------------------------------------
      LOOP:  cpu time  550.54: real time 1101.64

 eigenvalue-minimisations  : 31406
 total energy-change (2. order) :-0.1268266E-02  (-0.1609047E-02)
 number of electron     128.0000012 magnetization 
 augmentation part        3.0695787 magnetization 

 Broyden mixing:
  rms(total) = 0.14994E-01    rms(broyden)= 0.14985E-01
  rms(prec ) = 0.20856E-01
  weight for this iteration     100.00

 eigenvalues of (default mixing * dielectric matrix)
  average eigenvalue GAMMA=   1.4834
  2.4675  1.9851  0.7406  0.7406

 Free energy of the ion-electron system (eV)
  ---------------------------------------------------
  alpha Z        PSCENC =       295.69007636
  Ewald energy   TEWEN  =     -3694.38448117
  -Hartree energ DENC   =     -1458.20095980
  -exchange      EXHF   =         0.00000000
  -V(xc)+E(xc)   XCENC  =       461.02201896
  PAW double counting   =      2220.20489405    -2261.54170164
  entropy T*S    EENTRO =         0.00000000
  eigenvalues    EBANDS =      -566.25455466
  atomic energy  EATOM  =      4708.80920826
  ---------------------------------------------------
  free energy    TOTEN  =      -294.65549966 eV

  energy without entropy =     -294.65549966  energy(sigma->0) =     -294.65549966


--------------------------------------------------------------------------------------------------------




----------------------------------------- Iteration    1(  10)  ---------------------------------------


    POTLOK:  cpu time    0.58: real time    1.15
    SETDIJ:  cpu time    0.04: real time    0.08
     EDDAV:  cpu time  526.59: real time 1053.73
 BZINTS: Fermi energy:  4.682200;128.000000 electrons
         Band energy:-565.628176;  BLOECHL correction: -0.000000
       DOS:  cpu time    0.08: real time    0.16
    CHARGE:  cpu time   21.48: real time   42.99
    MIXING:  cpu time    0.03: real time    0.04
    --------------------------------------------
      LOOP:  cpu time  548.80: real time 1098.16

 eigenvalue-minimisations  : 31094
 total energy-change (2. order) :-0.3416943E-03  (-0.2123000E-03)
 number of electron     128.0000012 magnetization 
 augmentation part        3.0684751 magnetization 

 Broyden mixing:
  rms(total) = 0.97696E-02    rms(broyden)= 0.97682E-02
  rms(prec ) = 0.13022E-01
  weight for this iteration     100.00

 eigenvalues of (default mixing * dielectric matrix)
  average eigenvalue GAMMA=   1.4841
  2.4974  2.0055  1.4646  0.8870  0.5659

 Free energy of the ion-electron system (eV)
  ---------------------------------------------------
  alpha Z        PSCENC =       295.69007636
  Ewald energy   TEWEN  =     -3694.38448117
  -Hartree energ DENC   =     -1458.87939501
  -exchange      EXHF   =         0.00000000
  -V(xc)+E(xc)   XCENC  =       461.07059910
  PAW double counting   =      2222.11267513    -2263.44634792
  entropy T*S    EENTRO =         0.00000000
  eigenvalues    EBANDS =      -565.62817609
  atomic energy  EATOM  =      4708.80920826
  ---------------------------------------------------
  free energy    TOTEN  =      -294.65584135 eV

  energy without entropy =     -294.65584135  energy(sigma->0) =     -294.65584135


--------------------------------------------------------------------------------------------------------




----------------------------------------- Iteration    1(  11)  ---------------------------------------


    POTLOK:  cpu time    0.73: real time    1.44
    SETDIJ:  cpu time    0.03: real time    0.08
     EDDAV:  cpu time  542.24: real time 1085.16
 BZINTS: Fermi energy:  4.686531;128.000000 electrons
         Band energy:-565.198097;  BLOECHL correction:  0.000000
       DOS:  cpu time    0.07: real time    0.13
    CHARGE:  cpu time   22.57: real time   45.15
    MIXING:  cpu time    0.04: real time    0.08
    --------------------------------------------
      LOOP:  cpu time  565.68: real time 1132.07

 eigenvalue-minimisations  : 32206
 total energy-change (2. order) :-0.6145364E-03  (-0.5875610E-04)
 number of electron     128.0000012 magnetization 
 augmentation part        3.0680000 magnetization 

 Broyden mixing:
[...]
     73      10.0432      0.00000
     74      10.0462      0.00000
     75      10.6123      0.00000
     76      10.6142      0.00000
     77      10.8743      0.00000
     78      10.8769      0.00000
     79      12.3626      0.00000
     80      12.3654      0.00000
     81      12.7839      0.00000
     82      12.7854      0.00000

 k-point   162 :      -0.2222    0.4444    0.5000
  band No.  band energies     occupation 
      1     -14.0208      2.00000
      2     -14.0205      2.00000
      3     -13.8172      2.00000
      4     -13.8168      2.00000
      5     -12.0870      2.00000
      6     -12.0859      2.00000
      7     -12.0811      2.00000
      8     -12.0795      2.00000
      9     -11.9082      2.00000
     10     -11.9072      2.00000
     11     -11.9023      2.00000
     12     -11.9006      2.00000
     13      -8.8333      2.00000
     14      -8.8314      2.00000
     15      -8.7575      2.00000
     16      -8.7556      2.00000
     17      -7.8607      2.00000
     18      -7.8574      2.00000
     19      -7.8167      2.00000
     20      -7.8139      2.00000
     21      -4.8580      2.00000
     22      -4.8578      2.00000
     23      -4.8507      2.00000
     24      -4.8495      2.00000
     25      -4.7687      2.00000
     26      -4.7683      2.00000
     27      -4.7616      2.00000
     28      -4.7600      2.00000
     29      -4.5527      2.00000
     30      -4.5504      2.00000
     31      -4.4772      2.00000
     32      -4.4748      2.00000
     33      -2.5123      2.00000
     34      -2.5113      2.00000
     35      -1.9324      2.00000
     36      -1.9322      2.00000
     37      -1.9209      2.00000
     38      -1.9194      2.00000
     39      -1.8828      2.00000
     40      -1.8821      2.00000
     41      -1.8708      2.00000
     42      -1.8696      2.00000
     43      -1.1771      2.00000
     44      -1.1756      2.00000
     45      -0.9868      2.00000
     46      -0.9829      2.00000
     47      -0.9583      2.00000
     48      -0.9532      2.00000
     49      -0.2445      2.00000
     50      -0.2431      2.00000
     51      -0.2387      2.00000
     52      -0.2371      2.00000
     53      -0.0252      2.00000
     54      -0.0202      2.00000
     55      -0.0029      2.00000
     56       0.0003      2.00000
     57       0.9357      2.00000
     58       0.9373      2.00000
     59       0.9418      2.00000
     60       0.9437      2.00000
     61       3.1159      2.00000
     62       3.1188      2.00000
     63       3.6048      2.00000
     64       3.6072      2.00000
     65       5.8990      0.00000
     66       5.9029      0.00000
     67       5.9242      0.00000
     68       5.9271      0.00000
     69       9.1464      0.00000
     70       9.1480      0.00000
     71       9.1529      0.00000
     72       9.1547      0.00000
     73       9.6947      0.00000
     74       9.6962      0.00000
     75       9.6979      0.00000
     76       9.6999      0.00000
     77      10.7947      0.00000
     78      10.7970      0.00000
     79      13.0424      0.00000
     80      13.0467      0.00000
     81      13.0486      0.00000
     82      13.0704      0.00000

 k-point   163 :      -0.1111    0.4444    0.5000
  band No.  band energies     occupation 
      1     -13.9476      2.00000
      2     -13.9473      2.00000
      3     -13.7449      2.00000
      4     -13.7445      2.00000
      5     -12.6489      2.00000
      6     -12.6486      2.00000
      7     -12.4627      2.00000
      8     -12.4623      2.00000
      9     -11.3881      2.00000
     10     -11.3878      2.00000
     11     -11.2185      2.00000
     12     -11.2181      2.00000
     13      -9.5924      2.00000
     14      -9.5919      2.00000
     15      -9.4521      2.00000
     16      -9.4515      2.00000
     17      -7.0978      2.00000
     18      -7.0963      2.00000
     19      -7.0000      2.00000
     20      -6.9986      2.00000
     21      -5.4429      2.00000
     22      -5.4411      2.00000
     23      -5.3554      2.00000
     24      -5.3536      2.00000
     25      -4.4464      2.00000
     26      -4.4445      2.00000
     27      -4.3750      2.00000
     28      -4.3730      2.00000
     29      -4.1869      2.00000
     30      -4.1868      2.00000
     31      -4.1009      2.00000
     32      -4.1007      2.00000
     33      -2.9937      2.00000
     34      -2.9921      2.00000
     35      -2.9354      2.00000
     36      -2.9339      2.00000
     37      -2.4250      2.00000
     38      -2.4240      2.00000
     39      -1.3250      2.00000
     40      -1.3235      2.00000
     41      -1.2743      2.00000
     42      -1.2727      2.00000
     43      -1.0935      2.00000
     44      -1.0923      2.00000
     45      -1.0771      2.00000
     46      -1.0763      2.00000
     47      -1.0368      2.00000
     48      -1.0360      2.00000
     49      -0.8962      2.00000
     50      -0.8952      2.00000
     51       0.0513      2.00000
     52       0.0527      2.00000
     53       0.0827      2.00000
     54       0.0839      2.00000
     55       0.3357      2.00000
     56       0.3369      2.00000
     57       0.5561      2.00000
     58       0.5569      2.00000
     59       1.6657      2.00000
     60       1.6667      2.00000
     61       2.4916      2.00000
     62       2.4929      2.00000
     63       3.3044      2.00000
     64       3.3061      2.00000
     65       6.2091      0.00000
     66       6.2116      0.00000
     67       6.6386      0.00000
     68       6.6401      0.00000
     69       8.2173      0.00000
     70       8.2191      0.00000
     71       8.7144      0.00000
     72       8.7156      0.00000
     73      10.0505      0.00000
     74      10.0532      0.00000
     75      10.6156      0.00000
     76      10.6176      0.00000
     77      10.8756      0.00000
     78      10.8782      0.00000
     79      12.3617      0.00000
     80      12.3645      0.00000
     81      12.7538      0.00000
     82      12.7721      0.00000


--------------------------------------------------------------------------------------------------------


 soft charge-density along one line, spin component           1
         0         1         2         3         4         5         6         7         8         9
 total charge-density along one line
 
 pseudopotential strength for first ion, spin component:           1
  9.772   0.005  -0.000  -0.000   0.000   0.000   0.000  -0.000
  0.005  -0.002   0.000  -0.000  -0.000   0.000   0.000  -0.000
 -0.000   0.000  -3.944  -0.000   0.000  -0.015   0.000  -0.000
 -0.000  -0.000  -0.000  -3.937   0.000   0.000  -0.012  -0.000
  0.000  -0.000   0.000   0.000  -3.944  -0.000  -0.000  -0.015
  0.000   0.000  -0.015   0.000  -0.000  -0.763  -0.000   0.000
  0.000   0.000   0.000  -0.012  -0.000  -0.000  -0.763   0.000
 -0.000  -0.000  -0.000  -0.000  -0.015   0.000   0.000  -0.763
 total augmentation occupancy for first ion, spin component:           1
  1.470  -1.108   0.000  -0.000  -0.000   0.000   0.000  -0.000
 -1.108   1.040  -0.000  -0.000   0.000  -0.000  -0.000   0.000
  0.000  -0.000   1.225  -0.000   0.000   0.225  -0.000  -0.000
 -0.000  -0.000  -0.000   0.928   0.000  -0.000   0.103   0.000
 -0.000   0.000   0.000   0.000   1.224  -0.000   0.000   0.225
  0.000  -0.000   0.225  -0.000  -0.000   0.047  -0.000  -0.000
  0.000  -0.000  -0.000   0.103   0.000  -0.000   0.013   0.000
 -0.000   0.000  -0.000   0.000   0.225  -0.000   0.000   0.047


------------------------ aborting loop because EDIFF is reached ----------------------------------------


    CHARGE:  cpu time   22.13: real time   33.99
    FORLOC:  cpu time    0.18: real time    0.22
    FORNL :  cpu time  143.78: real time  200.97
    STRESS:  cpu time  227.45: real time  332.72
    FORHAR:  cpu time    0.28: real time    0.50
    MIXING:  cpu time    0.02: real time    0.04
    OFIELD:  cpu time    0.00: real time    0.00

 ---------------------------------------------------------------------------------------------

         DFTD3 V3.0 Rev 1        
 IVDW         = 12
 DF pbe       
 parameters
 VDW_S6       =    1.0000
 VDW_S8       =    0.7875
 VDW_A1       =    0.4289
 VDW_A2       =    4.4407
 k1-k3        =   16.0000    1.3333   -4.0000
 VDW_RADIUS   =   50.2022 A
 VDW_CNRADIUS =   21.1671 A
 Edisp (eV)   -5.01296

 E6    (eV) :    -3.5921
 E8    (eV) :    -1.4209
 % E8        : 28.34
    FORVDW:  cpu time    0.26: real time    0.41

  FORCE on cell =-STRESS in cart. coord.  units (eV):
  Direction    XX          YY          ZZ          XY          YZ          ZX
  --------------------------------------------------------------------------------------
  Alpha Z   295.69008   295.69008   295.69008
  Ewald     609.27627   608.79846 -4912.47892     0.34297     0.00062    -0.00923
  Hartree  1279.66672  1279.67097 -1099.30730     0.10960     0.00016    -0.00200
  E(xc)    -467.65536  -467.66223  -484.74406    -0.00306     0.00001    -0.00003
  Local   -3513.61908 -3513.24155  4117.46261    -0.39384    -0.00056     0.00899
  n-local  -112.42506  -112.53561  -102.73075    -0.09034     0.00014    -0.00019
  augment   -12.37627   -12.37539   -11.34027    -0.00044    -0.00000     0.00002
  Kinetic  1921.64986  1922.46348  2203.21446     0.57788    -0.00220     0.00470
  Fock        0.00000     0.00000     0.00000     0.00000     0.00000     0.00000
  vdW        -0.75733    -0.74740    -5.98651     0.00824    -0.00000    -0.00001
  -------------------------------------------------------------------------------------
  Total      -0.55017     0.06080    -0.22067     0.55100    -0.00183     0.00225
  in kB      -3.12387     0.34523    -1.25297     3.12858    -0.01037     0.01276
  external pressure =       -1.34 kB  Pullay stress =        0.00 kB


 VOLUME and BASIS-vectors are now :
 -----------------------------------------------------------------------------
  energy-cutoff  :      600.00
  volume of cell :      282.17
      direct lattice vectors                 reciprocal lattice vectors
     4.932874498 -0.001919286  0.000000000     0.202767147  0.117172881  0.000000000
    -2.468099399  4.271034986  0.000000000     0.000091118  0.234187941  0.000000000
     0.000000000  0.000000000 13.396136471     0.000000000  0.000000000  0.074648389

  length of vectors
     4.932874871  4.932874871 13.396136471     0.234187958  0.234187958  0.074648389


 FORCES acting on ions
    electron-ion (+dipol)            ewald-force                    non-local-force                 convergence-correction
 -----------------------------------------------------------------------------------------------
   -.192E+00 0.665E-01 0.322E+00   0.184E+00 -.621E-01 -.321E+00   -.397E-02 0.278E-02 0.966E-02   0.885E-04 -.197E-03 0.710E-03
   0.120E+00 0.597E-01 0.845E+00   -.126E+00 -.544E-01 -.877E+00   0.213E-01 0.246E-02 0.778E-01   0.219E-04 -.191E-03 0.712E-03
   -.439E+00 -.257E+00 0.849E+00   0.487E+00 0.293E+00 -.882E+00   0.134E-01 -.178E-02 0.780E-01   0.537E-04 -.171E-03 0.710E-03
   -.449E+00 0.394E+00 0.841E+00   0.498E+00 -.421E+00 -.872E+00   0.123E-01 0.784E-02 0.775E-01   0.625E-04 -.215E-03 0.713E-03
   -.118E+00 0.663E-01 -.959E-01   0.107E+00 -.620E-01 0.960E-01   -.539E-02 0.278E-02 -.794E-03   0.120E-02 -.160E-03 -.172E-03
   -.117E+00 0.664E-01 -.964E-01   0.107E+00 -.620E-01 0.964E-01   -.539E-02 0.278E-02 -.741E-03   0.118E-02 -.168E-03 -.172E-03
   -.118E+00 0.663E-01 -.964E-01   0.107E+00 -.620E-01 0.964E-01   -.539E-02 0.277E-02 -.743E-03   0.120E-02 -.157E-03 -.173E-03
   -.118E+00 0.664E-01 -.964E-01   0.107E+00 -.620E-01 0.964E-01   -.539E-02 0.278E-02 -.742E-03   0.118E-02 -.169E-03 -.175E-03
   0.133E+00 -.749E-01 -.837E-01   -.128E+00 0.715E-01 0.947E-01   0.432E-02 -.253E-02 0.150E-02   0.345E-03 -.186E-03 -.112E-01
   0.916E-01 -.795E-01 -.984E-01   -.862E-01 0.763E-01 0.110E+00   0.433E-02 -.255E-02 0.124E-02   0.341E-03 -.183E-03 -.112E-01
   0.116E+00 -.414E-01 -.910E-01   -.111E+00 0.380E-01 0.102E+00   0.434E-02 -.255E-02 0.137E-02   0.341E-03 -.180E-03 -.112E-01
   0.109E+00 -.654E-01 -.657E-01   -.104E+00 0.620E-01 0.771E-01   0.426E-02 -.255E-02 0.506E-03   0.346E-03 -.182E-03 -.112E-01
   0.918E-01 -.507E-01 -.120E+00   -.866E-01 0.478E-01 0.110E+00   0.430E-02 -.240E-02 0.998E-03   0.349E-03 -.195E-03 0.107E-01
   0.133E+00 -.554E-01 -.105E+00   -.128E+00 0.526E-01 0.946E-01   0.429E-02 -.243E-02 0.124E-02   0.351E-03 -.202E-03 0.107E-01
   0.116E+00 -.884E-01 -.112E+00   -.111E+00 0.856E-01 0.102E+00   0.432E-02 -.241E-02 0.111E-02   0.357E-03 -.212E-03 0.107E-01
   0.109E+00 -.648E-01 -.876E-01   -.104E+00 0.619E-01 0.774E-01   0.423E-02 -.241E-02 0.261E-03   0.345E-03 -.210E-03 0.107E-01
   0.867E+00 -.635E-01 -.171E+01   -.979E+00 0.587E-01 0.175E+01   -.904E-01 -.282E-02 -.182E+00   -.684E-04 0.182E-03 0.106E-02
   -.870E-01 -.655E-01 0.384E+00   0.112E+00 0.616E-01 -.368E+00   0.227E-01 -.272E-02 -.239E-01   -.476E-04 0.179E-03 0.691E-03
   0.880E-01 0.355E-01 0.384E+00   -.878E-01 -.536E-01 -.368E+00   0.119E-01 -.888E-02 -.239E-01   -.424E-04 0.187E-03 0.687E-03
   0.885E-01 -.167E+00 0.384E+00   -.881E-01 0.177E+00 -.368E+00   0.118E-01 0.367E-02 -.239E-01   -.498E-04 0.184E-03 0.689E-03
   0.117E+00 -.658E-01 -.969E-01   -.107E+00 0.617E-01 0.969E-01   0.517E-02 -.266E-02 0.331E-03   -.121E-02 0.168E-03 -.173E-03
   0.116E+00 -.658E-01 -.960E-01   -.107E+00 0.617E-01 0.961E-01   0.517E-02 -.266E-02 0.173E-03   -.118E-02 0.173E-03 -.174E-03
   0.117E+00 -.657E-01 -.960E-01   -.107E+00 0.616E-01 0.961E-01   0.517E-02 -.266E-02 0.172E-03   -.120E-02 0.166E-03 -.175E-03
   0.116E+00 -.659E-01 -.960E-01   -.107E+00 0.618E-01 0.961E-01   0.517E-02 -.266E-02 0.168E-03   -.119E-02 0.183E-03 -.178E-03
   -.133E+00 0.793E-01 -.983E-01   0.128E+00 -.761E-01 0.110E+00   -.394E-02 0.236E-02 -.129E-03   -.333E-03 0.185E-03 -.112E-01
   -.910E-01 0.745E-01 -.836E-01   0.864E-01 -.713E-01 0.947E-01   -.428E-02 0.229E-02 0.277E-03   -.338E-03 0.180E-03 -.112E-01
   -.108E+00 0.403E-01 -.911E-01   0.103E+00 -.377E-01 0.102E+00   -.405E-02 0.262E-02 0.560E-04   -.331E-03 0.186E-03 -.112E-01
   -.115E+00 0.647E-01 -.661E-01   0.110E+00 -.617E-01 0.771E-01   -.422E-02 0.242E-02 -.294E-04   -.340E-03 0.183E-03 -.112E-01
   -.911E-01 0.546E-01 -.105E+00   0.868E-01 -.523E-01 0.945E-01   -.419E-02 0.242E-02 0.558E-04   -.339E-03 0.199E-03 0.107E-01
   -.133E+00 0.498E-01 -.120E+00   0.128E+00 -.474E-01 0.110E+00   -.386E-02 0.235E-02 -.407E-03   -.346E-03 0.196E-03 0.107E-01
   -.108E+00 0.882E-01 -.113E+00   0.103E+00 -.853E-01 0.102E+00   -.396E-02 0.210E-02 -.193E-03   -.340E-03 0.216E-03 0.107E-01
   -.115E+00 0.642E-01 -.879E-01   0.110E+00 -.617E-01 0.774E-01   -.414E-02 0.229E-02 -.287E-03   -.346E-03 0.213E-03 0.107E-01
 -----------------------------------------------------------------------------------------------
   -.826E-04 -.274E-04 0.473E-02   -.189E-13 0.205E-13 0.426E-13   0.536E-04 0.370E-05 -.530E-02   0.517E-04 0.163E-05 0.684E-03
 
 
 POSITION                                       TOTAL-FORCE (eV/Angst)
 -----------------------------------------------------------------------------------
      2.46402      0.00044      1.67452        -0.011572      0.006999      0.011583
      4.93046     -0.00052      1.67452         0.015765      0.007532      0.046400
      1.22997      2.13595      1.67452         0.061760      0.033529      0.045961
      3.69641      2.13499      1.67452         0.061231     -0.019195      0.046778
      2.46402      0.00044      8.37259        -0.014462      0.007020     -0.000937
      4.93046     -0.00052      8.37259        -0.014451      0.007025     -0.000919
      1.22997      2.13595      8.37259        -0.014461      0.007019     -0.000920
      3.69641      2.13499      8.37259        -0.014454      0.007025     -0.000914
     -1.23163      2.13412      5.02355         0.010028     -0.006114      0.001334
      1.23481      2.13316      5.02355         0.010152     -0.006021      0.001499
     -2.46568      4.26964      5.02355         0.010012     -0.006148      0.001412
      0.00076      4.26868      5.02355         0.010162     -0.006094      0.000673
     -1.23163      2.13412     11.72162         0.010003     -0.005605      0.001483
      1.23481      2.13316     11.72162         0.009891     -0.005463      0.001296
     -2.46568      4.26964     11.72162         0.009828     -0.005465      0.001381
      0.00076      4.26868     11.72162         0.010018     -0.005512      0.000657
      0.00013      1.42496      1.68390        -0.203199     -0.007477     -0.135631
      2.46311      1.42400      1.67452         0.048577     -0.006477     -0.007338
     -1.23737      3.56047      1.67452         0.012365     -0.027412     -0.007397
      1.22906      3.55952      1.67452         0.012465      0.014447     -0.007383
     -0.00332      1.42496      8.37259         0.013706     -0.006616      0.000184
      2.46311      1.42400      8.37259         0.013690     -0.006619      0.000055
     -1.23737      3.56047      8.37259         0.013700     -0.006613      0.000055
      1.22906      3.55952      8.37259         0.013694     -0.006622      0.000057
      1.23571      0.70960      5.02355        -0.009644      0.005759      0.000121
      3.70215      0.70864      5.02355        -0.009293      0.005750      0.000224
      0.00166      2.84512      5.02355        -0.009458      0.005460      0.000158
      2.46810      2.84416      5.02355        -0.009483      0.005650     -0.000147
      1.23571      0.70960     11.72162        -0.008959      0.004961      0.000231
      3.70215      0.70864     11.72162        -0.009310      0.004955      0.000077
      0.00166      2.84512     11.72162        -0.009126      0.005254      0.000139
      2.46810      2.84416     11.72162        -0.009177      0.005066     -0.000170
 -----------------------------------------------------------------------------------
    total drift:                                0.000023     -0.000022      0.000110


--------------------------------------------------------------------------------------------------------



  FREE ENERGIE OF THE ION-ELECTRON SYSTEM (eV)
  ---------------------------------------------------
  free  energy   TOTEN  =      -299.66966569 eV

  energy  without entropy=     -299.66966569  energy(sigma->0) =     -299.66966569
 


--------------------------------------------------------------------------------------------------------


    POTLOK:  cpu time    0.74: real time    0.98


--------------------------------------------------------------------------------------------------------


     LOOP+:  cpu time10648.04: real time20543.09
    4ORBIT:  cpu time    0.00: real time    0.00
 BZINTS: Fermi energy:  4.688244;128.000000 electrons
         Band energy:-564.579795;  BLOECHL correction: -0.000000

 total amount of memory used by VASP on root node  1235525. kBytes
========================================================================

   base      :      30000. kBytes
   nonl-proj :     103398. kBytes
   fftplans  :      24080. kBytes
   grid      :      40320. kBytes
   one-center:         98. kBytes
   wavefun   :    1037629. kBytes
 
  
  
 General timing and accounting informations for this job:
 ========================================================
  
                  Total CPU time used (sec):    10706.053
                            User time (sec):     8801.215
                          System time (sec):     1904.837
                         Elapsed time (sec):    20659.347
  
                   Maximum memory used (kb):     1323008.
                   Average memory used (kb):           0.
  
                          Minor page faults:    127560758
                          Major page faults:            7
                 Voluntary context switches:         1207
