  32  32   0   0
  0.9306161E+01  0.4934311E-09  0.4934311E-09  0.1412406E-08  0.5000000E-15
  1.000000000000000E-004
  CAR 
 graphite                                
     15.05012922    -17.34619034  301      4.23390211      1.00000000
    -17.346  0.0000E+00  0.0000E+00
    -17.238  0.0000E+00  0.0000E+00
    -17.130  0.0000E+00  0.0000E+00
    -17.022  0.0000E+00  0.0000E+00
    -16.914  0.0000E+00  0.0000E+00
    -16.806  0.0000E+00  0.0000E+00
    -16.698  0.0000E+00  0.0000E+00
    -16.590  0.0000E+00  0.0000E+00
    -16.482  0.0000E+00  0.0000E+00
    -16.374  0.0000E+00  0.0000E+00
    -16.266  0.0000E+00  0.0000E+00
    -16.158  0.0000E+00  0.0000E+00
    -16.050  0.0000E+00  0.0000E+00
    -15.942  0.0000E+00  0.0000E+00
    -15.834  0.0000E+00  0.0000E+00
    -15.726  0.0000E+00  0.0000E+00
    -15.618  0.0000E+00  0.0000E+00
    -15.510  0.0000E+00  0.0000E+00
    -15.402  0.0000E+00  0.0000E+00
    -15.294  0.1251E+01  0.2510E-01
    -15.186  0.3096E+01  0.2719E+00
    -15.078  0.5031E+01  0.7456E+00
    -14.970  0.4948E+01  0.1270E+01
    -14.862  0.4897E+01  0.1801E+01
    -14.754  0.4981E+01  0.2337E+01
    -14.646  0.4900E+01  0.2873E+01
    -14.539  0.4915E+01  0.3400E+01
    -14.431  0.5034E+01  0.3938E+01
    -14.323  0.4996E+01  0.4480E+01
    -14.215  0.4963E+01  0.5016E+01
    -14.107  0.5747E+01  0.5593E+01
    -13.999  0.6234E+01  0.6233E+01
    -13.891  0.6493E+01  0.6929E+01
    -13.783  0.5513E+01  0.7526E+01
    -13.675  0.1824E+01  0.7776E+01
    -13.567  0.4043E+01  0.8080E+01
    -13.459  0.4562E+01  0.8570E+01
    -13.351  0.4307E+01  0.9054E+01
    -13.243  0.7067E+01  0.9844E+01
    -13.135  0.4286E+01  0.1057E+02
    -13.027  0.4370E+01  0.1104E+02
    -12.919  0.4504E+01  0.1152E+02
    -12.811  0.4612E+01  0.1201E+02
    -12.703  0.4721E+01  0.1251E+02
    -12.595  0.5404E+01  0.1306E+02
    -12.487  0.6097E+01  0.1368E+02
    -12.379  0.5358E+01  0.1429E+02
    -12.271  0.5641E+01  0.1488E+02
    -12.163  0.5118E+01  0.1546E+02
    -12.055  0.4810E+01  0.1599E+02
    -11.947  0.4909E+01  0.1652E+02
    -11.839  0.4987E+01  0.1705E+02
    -11.731  0.5046E+01  0.1759E+02
    -11.623  0.5179E+01  0.1814E+02
    -11.515  0.5592E+01  0.1872E+02
    -11.407  0.5822E+01  0.1935E+02
    -11.299  0.5695E+01  0.1997E+02
    -11.191  0.5645E+01  0.2058E+02
    -11.083  0.5763E+01  0.2120E+02
    -10.975  0.5140E+01  0.2181E+02
    -10.867  0.5113E+01  0.2233E+02
    -10.759  0.5408E+01  0.2290E+02
    -10.651  0.5380E+01  0.2349E+02
    -10.543  0.5505E+01  0.2407E+02
    -10.435  0.5725E+01  0.2468E+02
    -10.327  0.5961E+01  0.2531E+02
    -10.219  0.8098E+01  0.2604E+02
    -10.111  0.9324E+01  0.2710E+02
    -10.003  0.6074E+01  0.2793E+02
     -9.895  0.7541E+01  0.2854E+02
     -9.787  0.3904E+01  0.2932E+02
     -9.679  0.3535E+01  0.2972E+02
     -9.571  0.3166E+01  0.3008E+02
     -9.463  0.2797E+01  0.3040E+02
     -9.355  0.2428E+01  0.3069E+02
     -9.247  0.2481E+01  0.3094E+02
     -9.139  0.3091E+01  0.3128E+02
     -9.031  0.1412E+01  0.3152E+02
     -8.923  0.1692E+01  0.3167E+02
     -8.815  0.2617E+01  0.3190E+02
     -8.707  0.7388E+01  0.3238E+02
     -8.599  0.4306E+01  0.3311E+02
     -8.491  0.3958E+01  0.3353E+02
     -8.383  0.4288E+01  0.3398E+02
     -8.275  0.8479E+01  0.3466E+02
     -8.167  0.6448E+01  0.3542E+02
     -8.059  0.7548E+01  0.3617E+02
     -7.951  0.8600E+01  0.3705E+02
     -7.843  0.7819E+01  0.3799E+02
     -7.735  0.6266E+01  0.3871E+02
     -7.627  0.6008E+01  0.3937E+02
     -7.519  0.5753E+01  0.4000E+02
     -7.411  0.5522E+01  0.4061E+02
     -7.303  0.5336E+01  0.4120E+02
     -7.195  0.5154E+01  0.4177E+02
     -7.087  0.4957E+01  0.4231E+02
     -6.979  0.4853E+01  0.4284E+02
     -6.871  0.4824E+01  0.4336E+02
     -6.763  0.4792E+01  0.4388E+02
     -6.655  0.4613E+01  0.4439E+02
     -6.547  0.4410E+01  0.4488E+02
     -6.439  0.4233E+01  0.4535E+02
     -6.331  0.4024E+01  0.4576E+02
     -6.223  0.4325E+01  0.4620E+02
     -6.115  0.4955E+01  0.4671E+02
     -6.007  0.5869E+01  0.4729E+02
     -5.899  0.6563E+01  0.4796E+02
     -5.792  0.1057E+02  0.4893E+02
     -5.684  0.8340E+01  0.4995E+02
     -5.576  0.6109E+01  0.5073E+02
     -5.468  0.3878E+01  0.5127E+02
     -5.360  0.2713E+01  0.5159E+02
     -5.252  0.3168E+01  0.5190E+02
     -5.144  0.4436E+01  0.5231E+02
     -5.036  0.5725E+01  0.5286E+02
     -4.928  0.7362E+01  0.5356E+02
     -4.820  0.7892E+01  0.5442E+02
     -4.712  0.6690E+01  0.5520E+02
     -4.604  0.5594E+01  0.5586E+02
     -4.496  0.7700E+01  0.5654E+02
     -4.388  0.7191E+01  0.5735E+02
     -4.280  0.6682E+01  0.5810E+02
     -4.172  0.6173E+01  0.5879E+02
     -4.064  0.5664E+01  0.5943E+02
     -3.956  0.6448E+01  0.6005E+02
     -3.848  0.9266E+01  0.6118E+02
     -3.740  0.1002E+02  0.6226E+02
     -3.632  0.7904E+01  0.6321E+02
     -3.524  0.6627E+01  0.6399E+02
     -3.416  0.6689E+01  0.6469E+02
     -3.308  0.7614E+01  0.6547E+02
     -3.200  0.8652E+01  0.6634E+02
     -3.092  0.1059E+02  0.6736E+02
     -2.984  0.1367E+02  0.6875E+02
     -2.876  0.1243E+02  0.7028E+02
     -2.768  0.1296E+02  0.7162E+02
     -2.660  0.1332E+02  0.7308E+02
     -2.552  0.1640E+02  0.7456E+02
     -2.444  0.1197E+02  0.7611E+02
     -2.336  0.1970E+02  0.7759E+02
     -2.228  0.1235E+02  0.7930E+02
     -2.120  0.1767E+02  0.8066E+02
     -2.012  0.1708E+02  0.8282E+02
     -1.904  0.1748E+02  0.8473E+02
     -1.796  0.1472E+02  0.8656E+02
     -1.688  0.1099E+02  0.8795E+02
     -1.580  0.8828E+01  0.8901E+02
     -1.472  0.1253E+02  0.9002E+02
     -1.364  0.8503E+01  0.9102E+02
     -1.256  0.1091E+02  0.9206E+02
     -1.148  0.1274E+02  0.9341E+02
     -1.040  0.1677E+02  0.9488E+02
     -0.932  0.9222E+01  0.9620E+02
     -0.824  0.1066E+02  0.9728E+02
     -0.716  0.1097E+02  0.9846E+02
     -0.608  0.1039E+02  0.9960E+02
     -0.500  0.1068E+02  0.1008E+03
     -0.392  0.9775E+01  0.1018E+03
     -0.284  0.9669E+01  0.1029E+03
     -0.176  0.9432E+01  0.1040E+03
     -0.068  0.9321E+01  0.1050E+03
      0.040  0.9208E+01  0.1060E+03
      0.148  0.9083E+01  0.1070E+03
      0.256  0.9581E+01  0.1080E+03
      0.364  0.9477E+01  0.1090E+03
      0.472  0.9379E+01  0.1100E+03
      0.580  0.9243E+01  0.1110E+03
      0.688  0.9226E+01  0.1120E+03
      0.796  0.9458E+01  0.1130E+03
      0.904  0.9346E+01  0.1140E+03
      1.012  0.9807E+01  0.1151E+03
      1.120  0.9932E+01  0.1162E+03
      1.228  0.7194E+01  0.1171E+03
      1.336  0.6292E+01  0.1178E+03
      1.444  0.5684E+01  0.1185E+03
      1.552  0.4745E+01  0.1190E+03
      1.660  0.4160E+01  0.1195E+03
      1.768  0.3671E+01  0.1199E+03
      1.876  0.6406E+01  0.1205E+03
      1.984  0.9977E+01  0.1214E+03
      2.092  0.8442E+01  0.1223E+03
      2.200  0.7627E+01  0.1233E+03
      2.308  0.5691E+01  0.1240E+03
      2.416  0.4811E+01  0.1246E+03
      2.524  0.4139E+01  0.1251E+03
      2.632  0.3532E+01  0.1255E+03
      2.740  0.3201E+01  0.1259E+03
      2.848  0.3020E+01  0.1262E+03
      2.956  0.2780E+01  0.1265E+03
      3.063  0.2350E+01  0.1268E+03
      3.171  0.2048E+01  0.1270E+03
      3.279  0.1816E+01  0.1272E+03
      3.387  0.1577E+01  0.1274E+03
      3.495  0.1335E+01  0.1276E+03
      3.603  0.1094E+01  0.1277E+03
      3.711  0.8549E+00  0.1278E+03
      3.819  0.6305E+00  0.1279E+03
      3.927  0.4410E+00  0.1279E+03
      4.035  0.2708E+00  0.1280E+03
      4.143  0.1156E+00  0.1280E+03
      4.251  0.1292E-01  0.1280E+03
      4.359  0.1310E+00  0.1280E+03
      4.467  0.2635E+00  0.1280E+03
      4.575  0.4145E+00  0.1281E+03
      4.683  0.5901E+00  0.1281E+03
      4.791  0.8154E+00  0.1282E+03
      4.899  0.1063E+01  0.1283E+03
      5.007  0.1438E+01  0.1284E+03
      5.115  0.1828E+01  0.1286E+03
      5.223  0.2213E+01  0.1288E+03
      5.331  0.2712E+01  0.1291E+03
      5.439  0.2722E+01  0.1294E+03
      5.547  0.3422E+01  0.1297E+03
      5.655  0.4285E+01  0.1301E+03
      5.763  0.6945E+01  0.1308E+03
      5.871  0.8008E+01  0.1318E+03
      5.979  0.8648E+01  0.1327E+03
      6.087  0.9062E+01  0.1337E+03
      6.195  0.6813E+01  0.1345E+03
      6.303  0.6382E+01  0.1352E+03
      6.411  0.6012E+01  0.1359E+03
      6.519  0.5563E+01  0.1365E+03
      6.627  0.5124E+01  0.1371E+03
      6.735  0.4514E+01  0.1376E+03
      6.843  0.3832E+01  0.1380E+03
      6.951  0.3639E+01  0.1384E+03
      7.059  0.3968E+01  0.1389E+03
      7.167  0.4503E+01  0.1393E+03
      7.275  0.4749E+01  0.1398E+03
      7.383  0.4551E+01  0.1403E+03
      7.491  0.4408E+01  0.1408E+03
      7.599  0.4260E+01  0.1413E+03
      7.707  0.4113E+01  0.1417E+03
      7.815  0.3975E+01  0.1422E+03
      7.923  0.3816E+01  0.1426E+03
      8.031  0.3662E+01  0.1430E+03
      8.139  0.3562E+01  0.1434E+03
      8.247  0.3699E+01  0.1438E+03
      8.355  0.3922E+01  0.1442E+03
      8.463  0.3997E+01  0.1446E+03
      8.571  0.4071E+01  0.1450E+03
      8.679  0.4143E+01  0.1455E+03
      8.787  0.4276E+01  0.1459E+03
      8.895  0.4291E+01  0.1464E+03
      9.003  0.4356E+01  0.1469E+03
      9.111  0.4451E+01  0.1473E+03
      9.219  0.4225E+01  0.1478E+03
      9.327  0.4214E+01  0.1483E+03
      9.435  0.4199E+01  0.1487E+03
      9.543  0.4173E+01  0.1492E+03
      9.651  0.4297E+01  0.1496E+03
      9.759  0.4481E+01  0.1501E+03
      9.867  0.4533E+01  0.1506E+03
      9.975  0.4804E+01  0.1511E+03
     10.083  0.4839E+01  0.1516E+03
     10.191  0.5250E+01  0.1521E+03
     10.299  0.4923E+01  0.1527E+03
     10.407  0.5027E+01  0.1533E+03
     10.515  0.5187E+01  0.1538E+03
     10.623  0.6499E+01  0.1544E+03
     10.731  0.4256E+01  0.1549E+03
     10.839  0.3688E+01  0.1553E+03
     10.947  0.3578E+01  0.1557E+03
     11.055  0.3243E+01  0.1561E+03
     11.163  0.3529E+01  0.1564E+03
     11.271  0.3988E+01  0.1569E+03
     11.379  0.4272E+01  0.1573E+03
     11.487  0.4738E+01  0.1578E+03
     11.595  0.8178E+01  0.1585E+03
     11.703  0.1048E+02  0.1596E+03
     11.810  0.1249E+02  0.1608E+03
     11.918  0.1406E+02  0.1623E+03
     12.026  0.1238E+02  0.1637E+03
     12.134  0.1077E+02  0.1649E+03
     12.242  0.8313E+01  0.1660E+03
     12.350  0.4901E+01  0.1667E+03
     12.458  0.4278E+01  0.1672E+03
     12.566  0.2912E+01  0.1676E+03
     12.674  0.1655E+01  0.1678E+03
     12.782  0.8749E+00  0.1679E+03
     12.890  0.2224E+00  0.1680E+03
     12.998  0.9117E-02  0.1680E+03
     13.106  0.0000E+00  0.1680E+03
     13.214  0.0000E+00  0.1680E+03
     13.322  0.0000E+00  0.1680E+03
     13.430  0.0000E+00  0.1680E+03
     13.538  0.0000E+00  0.1680E+03
     13.646  0.0000E+00  0.1680E+03
     13.754  0.0000E+00  0.1680E+03
     13.862  0.0000E+00  0.1680E+03
     13.970  0.0000E+00  0.1680E+03
     14.078  0.0000E+00  0.1680E+03
     14.186  0.0000E+00  0.1680E+03
     14.294  0.0000E+00  0.1680E+03
     14.402  0.0000E+00  0.1680E+03
     14.510  0.0000E+00  0.1680E+03
     14.618  0.0000E+00  0.1680E+03
     14.726  0.0000E+00  0.1680E+03
     14.834  0.0000E+00  0.1680E+03
     14.942  0.0000E+00  0.1680E+03
     15.050  0.0000E+00  0.1680E+03
