       N       E                     dE             d eps       ncg     rms          rms(c)
DAV:   1     0.617590364397E+03    0.61759E+03   -0.71137E+04 27384   0.159E+03
DAV:   2    -0.260267402633E+03   -0.87786E+03   -0.84650E+03 34236   0.313E+02
DAV:   3    -0.313052543331E+03   -0.52785E+02   -0.52293E+02 33300   0.774E+01
DAV:   4    -0.314087827768E+03   -0.10353E+01   -0.10333E+01 35352   0.118E+01
DAV:   5    -0.314117702508E+03   -0.29875E-01   -0.29862E-01 35532   0.185E+00    0.220E+01
DAV:   6    -0.299529523657E+03    0.14588E+02   -0.14986E+01 31296   0.107E+01    0.116E+01
DAV:   7    -0.294842700638E+03    0.46868E+01   -0.16112E+01 30792   0.110E+01    0.197E+00
DAV:   8    -0.294908361208E+03   -0.65661E-01   -0.47562E-01 31764   0.200E+00    0.605E-01
DAV:   9    -0.294914133436E+03   -0.57722E-02   -0.37562E-02 31380   0.643E-01    0.228E-01
DAV:  10    -0.294913628746E+03    0.50469E-03   -0.19816E-02 42816   0.371E-01    0.151E-01
DAV:  11    -0.294914150361E+03   -0.52161E-03   -0.12210E-02 31128   0.258E-01    0.117E-01
DAV:  12    -0.294914488669E+03   -0.33831E-03   -0.79234E-03 31224   0.186E-01    0.103E-01
DAV:  13    -0.294914422242E+03    0.66427E-04   -0.40031E-03 31572   0.129E-01    0.718E-02
DAV:  14    -0.294914353124E+03    0.69118E-04   -0.27744E-04 32064   0.487E-02    0.458E-02
DAV:  15    -0.294914410795E+03   -0.57670E-04   -0.15215E-03 37440   0.478E-02    0.661E-02
DAV:  16    -0.294914355378E+03    0.55416E-04   -0.11606E-04 31200   0.274E-02    0.453E-02
DAV:  17    -0.294914392551E+03   -0.37173E-04   -0.11646E-03 30732   0.403E-02    0.600E-02
DAV:  18    -0.294914340350E+03    0.52201E-04   -0.19622E-04 29172   0.281E-02    0.234E-02
DAV:  19    -0.294914340973E+03   -0.62335E-06   -0.36640E-06 28176   0.714E-03
   1 F= -.29776910E+03 E0= -.29776910E+03  d E =0.000000E+00
