  32  32   0   0
  0.8294063E+01  0.4932875E-09  0.4932875E-09  0.1260033E-08  0.5000000E-15
  1.000000000000000E-004
  CAR 
 graphite                                
     16.94955175    -16.46460837  301      5.23197154      1.00000000
    -16.465  0.0000E+00  0.0000E+00
    -16.353  0.0000E+00  0.0000E+00
    -16.242  0.0000E+00  0.0000E+00
    -16.130  0.0000E+00  0.0000E+00
    -16.019  0.0000E+00  0.0000E+00
    -15.908  0.0000E+00  0.0000E+00
    -15.796  0.0000E+00  0.0000E+00
    -15.685  0.0000E+00  0.0000E+00
    -15.574  0.0000E+00  0.0000E+00
    -15.462  0.0000E+00  0.0000E+00
    -15.351  0.0000E+00  0.0000E+00
    -15.239  0.0000E+00  0.0000E+00
    -15.128  0.0000E+00  0.0000E+00
    -15.017  0.0000E+00  0.0000E+00
    -14.905  0.0000E+00  0.0000E+00
    -14.794  0.0000E+00  0.0000E+00
    -14.683  0.0000E+00  0.0000E+00
    -14.571  0.0000E+00  0.0000E+00
    -14.460  0.4265E-02  0.6895E-05
    -14.348  0.1218E+01  0.5495E-01
    -14.237  0.2112E+01  0.2627E+00
    -14.126  0.2823E+01  0.5362E+00
    -14.014  0.3771E+01  0.8999E+00
    -13.903  0.5100E+01  0.1400E+01
    -13.791  0.4766E+01  0.1960E+01
    -13.680  0.4887E+01  0.2498E+01
    -13.569  0.4999E+01  0.3048E+01
    -13.457  0.5000E+01  0.3607E+01
    -13.346  0.5103E+01  0.4167E+01
    -13.235  0.6567E+01  0.4812E+01
    -13.123  0.7027E+01  0.5574E+01
    -13.012  0.6213E+01  0.6325E+01
    -12.900  0.6203E+01  0.7018E+01
    -12.789  0.2662E+01  0.7536E+01
    -12.678  0.1894E+01  0.7780E+01
    -12.566  0.1809E+01  0.7981E+01
    -12.455  0.2355E+01  0.8207E+01
    -12.344  0.7227E+01  0.8606E+01
    -12.232  0.5891E+01  0.9479E+01
    -12.121  0.6620E+01  0.1016E+02
    -12.009  0.6794E+01  0.1093E+02
    -11.898  0.4090E+01  0.1157E+02
    -11.787  0.4245E+01  0.1203E+02
    -11.675  0.4448E+01  0.1251E+02
    -11.564  0.4657E+01  0.1302E+02
    -11.452  0.4852E+01  0.1355E+02
    -11.341  0.5064E+01  0.1410E+02
    -11.230  0.5191E+01  0.1467E+02
    -11.118  0.5335E+01  0.1526E+02
    -11.007  0.5700E+01  0.1587E+02
    -10.896  0.5998E+01  0.1654E+02
    -10.784  0.5779E+01  0.1719E+02
    -10.673  0.5692E+01  0.1783E+02
    -10.561  0.5868E+01  0.1847E+02
    -10.450  0.6050E+01  0.1914E+02
    -10.339  0.5850E+01  0.1980E+02
    -10.227  0.5829E+01  0.2045E+02
    -10.116  0.5822E+01  0.2110E+02
    -10.005  0.5007E+01  0.2171E+02
     -9.893  0.3833E+01  0.2219E+02
     -9.782  0.3786E+01  0.2261E+02
     -9.670  0.4557E+01  0.2307E+02
     -9.559  0.4895E+01  0.2360E+02
     -9.448  0.6193E+01  0.2423E+02
     -9.336  0.7620E+01  0.2498E+02
     -9.225  0.1035E+02  0.2595E+02
     -9.113  0.8916E+01  0.2708E+02
     -9.002  0.6530E+01  0.2794E+02
     -8.891  0.4953E+01  0.2856E+02
     -8.779  0.4396E+01  0.2908E+02
     -8.668  0.6733E+01  0.2955E+02
     -8.557  0.4374E+01  0.3020E+02
     -8.445  0.4448E+01  0.3068E+02
     -8.334  0.1942E+01  0.3104E+02
     -8.222  0.1722E+01  0.3125E+02
     -8.111  0.1502E+01  0.3142E+02
     -8.000  0.1282E+01  0.3158E+02
     -7.888  0.1506E+01  0.3173E+02
     -7.777  0.2003E+01  0.3192E+02
     -7.666  0.2513E+01  0.3218E+02
     -7.554  0.3479E+01  0.3249E+02
     -7.443  0.8809E+01  0.3313E+02
     -7.331  0.6705E+01  0.3413E+02
     -7.220  0.5159E+01  0.3473E+02
     -7.109  0.5656E+01  0.3532E+02
     -6.997  0.6925E+01  0.3602E+02
     -6.886  0.8194E+01  0.3687E+02
     -6.775  0.9462E+01  0.3785E+02
     -6.663  0.7839E+01  0.3881E+02
     -6.552  0.5750E+01  0.3961E+02
     -6.440  0.5569E+01  0.4023E+02
     -6.329  0.5500E+01  0.4085E+02
     -6.218  0.5412E+01  0.4146E+02
     -6.106  0.5225E+01  0.4205E+02
     -5.995  0.5047E+01  0.4262E+02
     -5.883  0.4926E+01  0.4318E+02
     -5.772  0.4807E+01  0.4372E+02
     -5.661  0.4688E+01  0.4425E+02
     -5.549  0.4569E+01  0.4476E+02
     -5.438  0.4450E+01  0.4526E+02
     -5.327  0.4326E+01  0.4575E+02
     -5.215  0.4596E+01  0.4624E+02
     -5.104  0.5268E+01  0.4679E+02
     -4.992  0.5895E+01  0.4741E+02
     -4.881  0.6522E+01  0.4810E+02
     -4.770  0.7149E+01  0.4887E+02
     -4.658  0.7777E+01  0.4970E+02
     -4.547  0.8404E+01  0.5060E+02
     -4.436  0.8689E+01  0.5157E+02
     -4.324  0.5729E+01  0.5233E+02
     -4.213  0.5579E+01  0.5290E+02
     -4.101  0.7177E+01  0.5360E+02
     -3.990  0.5579E+01  0.5431E+02
     -3.879  0.3979E+01  0.5484E+02
     -3.767  0.2378E+01  0.5520E+02
     -3.656  0.1079E+01  0.5538E+02
     -3.544  0.2235E+01  0.5554E+02
     -3.433  0.4246E+01  0.5590E+02
     -3.322  0.6473E+01  0.5650E+02
     -3.210  0.9884E+01  0.5742E+02
     -3.099  0.1317E+02  0.5869E+02
     -2.988  0.1316E+02  0.6015E+02
     -2.876  0.9834E+01  0.6146E+02
     -2.765  0.5214E+01  0.6225E+02
     -2.653  0.5482E+01  0.6282E+02
     -2.542  0.6603E+01  0.6349E+02
     -2.431  0.8075E+01  0.6429E+02
     -2.319  0.1424E+02  0.6553E+02
     -2.208  0.2408E+02  0.6757E+02
     -2.097  0.9300E+01  0.6936E+02
     -1.985  0.7373E+01  0.7023E+02
     -1.874  0.7187E+01  0.7104E+02
     -1.762  0.7305E+01  0.7184E+02
     -1.651  0.8416E+01  0.7271E+02
     -1.540  0.1567E+02  0.7389E+02
     -1.428  0.1298E+02  0.7553E+02
     -1.317  0.9191E+01  0.7677E+02
     -1.205  0.1529E+02  0.7787E+02
     -1.094  0.2756E+02  0.8069E+02
     -0.983  0.2212E+02  0.8298E+02
     -0.871  0.1515E+02  0.8498E+02
     -0.760  0.1462E+02  0.8664E+02
     -0.649  0.1282E+02  0.8824E+02
     -0.537  0.9655E+01  0.8950E+02
     -0.426  0.8200E+01  0.9049E+02
     -0.314  0.7140E+01  0.9131E+02
     -0.203  0.8179E+01  0.9216E+02
     -0.092  0.8905E+01  0.9312E+02
      0.020  0.1028E+02  0.9418E+02
      0.131  0.1127E+02  0.9538E+02
      0.242  0.1921E+02  0.9693E+02
      0.354  0.1205E+02  0.9868E+02
      0.465  0.1236E+02  0.1000E+03
      0.577  0.1089E+02  0.1013E+03
      0.688  0.9309E+01  0.1024E+03
      0.799  0.8988E+01  0.1035E+03
      0.911  0.8812E+01  0.1045E+03
      1.022  0.8597E+01  0.1054E+03
      1.134  0.8578E+01  0.1064E+03
      1.245  0.1072E+02  0.1075E+03
      1.356  0.9866E+01  0.1086E+03
      1.468  0.1012E+02  0.1097E+03
      1.579  0.1006E+02  0.1108E+03
      1.690  0.1027E+02  0.1120E+03
      1.802  0.9287E+01  0.1131E+03
      1.913  0.9081E+01  0.1141E+03
      2.025  0.1010E+02  0.1152E+03
      2.136  0.8999E+01  0.1163E+03
      2.247  0.7286E+01  0.1172E+03
      2.359  0.6533E+01  0.1179E+03
      2.470  0.5004E+01  0.1186E+03
      2.581  0.4086E+01  0.1191E+03
      2.693  0.3193E+01  0.1195E+03
      2.804  0.3573E+01  0.1199E+03
      2.916  0.4574E+01  0.1203E+03
      3.027  0.6356E+01  0.1209E+03
      3.138  0.8543E+01  0.1218E+03
      3.250  0.7269E+01  0.1227E+03
      3.361  0.6420E+01  0.1234E+03
      3.473  0.6863E+01  0.1241E+03
      3.584  0.5941E+01  0.1249E+03
      3.695  0.4529E+01  0.1254E+03
      3.807  0.3603E+01  0.1259E+03
      3.918  0.3138E+01  0.1263E+03
      4.029  0.2670E+01  0.1266E+03
      4.141  0.2260E+01  0.1269E+03
      4.252  0.1940E+01  0.1271E+03
      4.364  0.1650E+01  0.1273E+03
      4.475  0.1439E+01  0.1275E+03
      4.586  0.1256E+01  0.1276E+03
      4.698  0.1015E+01  0.1277E+03
      4.809  0.7825E+00  0.1278E+03
      4.920  0.5587E+00  0.1279E+03
      5.032  0.3424E+00  0.1280E+03
      5.143  0.1333E+00  0.1280E+03
      5.255  0.9605E-02  0.1280E+03
      5.366  0.1370E+00  0.1280E+03
      5.477  0.2743E+00  0.1280E+03
      5.589  0.4199E+00  0.1281E+03
      5.700  0.5752E+00  0.1281E+03
      5.811  0.7423E+00  0.1282E+03
      5.923  0.9213E+00  0.1283E+03
      6.034  0.1116E+01  0.1284E+03
      6.146  0.1334E+01  0.1285E+03
      6.257  0.1652E+01  0.1287E+03
      6.368  0.2422E+01  0.1289E+03
      6.480  0.2941E+01  0.1292E+03
      6.591  0.3417E+01  0.1296E+03
      6.703  0.4204E+01  0.1300E+03
      6.814  0.8207E+01  0.1306E+03
      6.925  0.9957E+01  0.1320E+03
      7.037  0.1022E+02  0.1332E+03
      7.148  0.7748E+01  0.1342E+03
      7.259  0.6131E+01  0.1350E+03
      7.371  0.5200E+01  0.1356E+03
      7.482  0.4711E+01  0.1361E+03
      7.594  0.4126E+01  0.1366E+03
      7.705  0.3897E+01  0.1371E+03
      7.816  0.3668E+01  0.1375E+03
      7.928  0.3650E+01  0.1379E+03
      8.039  0.3897E+01  0.1383E+03
      8.150  0.4304E+01  0.1388E+03
      8.262  0.4599E+01  0.1393E+03
      8.373  0.4805E+01  0.1398E+03
      8.485  0.4841E+01  0.1403E+03
      8.596  0.4624E+01  0.1409E+03
      8.707  0.4486E+01  0.1414E+03
      8.819  0.4422E+01  0.1419E+03
      8.930  0.4314E+01  0.1423E+03
      9.042  0.4215E+01  0.1428E+03
      9.153  0.4120E+01  0.1433E+03
      9.264  0.3831E+01  0.1437E+03
      9.376  0.3548E+01  0.1441E+03
      9.487  0.3390E+01  0.1445E+03
      9.598  0.3319E+01  0.1449E+03
      9.710  0.3252E+01  0.1453E+03
      9.821  0.3158E+01  0.1456E+03
      9.933  0.3096E+01  0.1460E+03
     10.044  0.3051E+01  0.1463E+03
     10.155  0.2990E+01  0.1467E+03
     10.267  0.3007E+01  0.1470E+03
     10.378  0.3215E+01  0.1473E+03
     10.489  0.3301E+01  0.1477E+03
     10.601  0.3263E+01  0.1481E+03
     10.712  0.3342E+01  0.1484E+03
     10.824  0.4214E+01  0.1489E+03
     10.935  0.4458E+01  0.1493E+03
     11.046  0.4531E+01  0.1498E+03
     11.158  0.4489E+01  0.1504E+03
     11.269  0.4328E+01  0.1508E+03
     11.381  0.4138E+01  0.1513E+03
     11.492  0.4055E+01  0.1518E+03
     11.603  0.5858E+01  0.1523E+03
     11.715  0.6148E+01  0.1530E+03
     11.826  0.2911E+01  0.1535E+03
     11.937  0.2445E+01  0.1538E+03
     12.049  0.2220E+01  0.1540E+03
     12.160  0.2125E+01  0.1542E+03
     12.272  0.2453E+01  0.1545E+03
     12.383  0.3159E+01  0.1548E+03
     12.494  0.5215E+01  0.1553E+03
     12.606  0.5878E+01  0.1559E+03
     12.717  0.8198E+01  0.1567E+03
     12.828  0.9206E+01  0.1577E+03
     12.940  0.1049E+02  0.1587E+03
     13.051  0.1370E+02  0.1601E+03
     13.163  0.1409E+02  0.1617E+03
     13.274  0.1277E+02  0.1632E+03
     13.385  0.1236E+02  0.1646E+03
     13.497  0.1005E+02  0.1658E+03
     13.608  0.1053E+02  0.1670E+03
     13.720  0.1847E+01  0.1677E+03
     13.831  0.6254E+00  0.1679E+03
     13.942  0.3613E+00  0.1679E+03
     14.054  0.2120E+00  0.1679E+03
     14.165  0.1477E+00  0.1680E+03
     14.276  0.1087E+00  0.1680E+03
     14.388  0.7572E-01  0.1680E+03
     14.499  0.4867E-01  0.1680E+03
     14.611  0.2757E-01  0.1680E+03
     14.722  0.1243E-01  0.1680E+03
     14.833  0.3241E-02  0.1680E+03
     14.945  0.5643E-05  0.1680E+03
     15.056  0.0000E+00  0.1680E+03
     15.167  0.0000E+00  0.1680E+03
     15.279  0.0000E+00  0.1680E+03
     15.390  0.0000E+00  0.1680E+03
     15.502  0.0000E+00  0.1680E+03
     15.613  0.0000E+00  0.1680E+03
     15.724  0.0000E+00  0.1680E+03
     15.836  0.0000E+00  0.1680E+03
     15.947  0.0000E+00  0.1680E+03
     16.059  0.0000E+00  0.1680E+03
     16.170  0.0000E+00  0.1680E+03
     16.281  0.0000E+00  0.1680E+03
     16.393  0.0000E+00  0.1680E+03
     16.504  0.0000E+00  0.1680E+03
     16.615  0.0000E+00  0.1680E+03
     16.727  0.0000E+00  0.1680E+03
     16.838  0.0000E+00  0.1680E+03
     16.950  0.0000E+00  0.1680E+03
