   32   32    1    1
  0.9254429E+01  0.4932875E-09  0.4932875E-09  0.1405931E-08  0.5000000E-15
  1.000000000000000E-004
  CAR 
 graphite                                
    128    163     84
 
  0.0000000E+00  0.0000000E+00  0.0000000E+00  0.3086420E-02
    1      -15.313881
    2      -15.213358
    3      -15.212086
    4      -15.106536
    5      -10.015180
    6      -10.006705
    7      -10.003680
    8       -9.975849
    9       -9.975259
   10       -9.967940
   11       -9.963621
   12       -9.963617
   13       -9.962552
   14       -9.940193
   15       -9.929629
   16       -9.927202
   17       -8.951865
   18       -8.948136
   19       -8.946513
   20       -8.929976
   21       -8.925539
   22       -8.924385
   23       -8.922853
   24       -8.922848
   25       -8.920386
   26       -8.894472
   27       -8.890046
   28       -8.887589
   29       -4.040465
   30       -3.338223
   31       -3.336542
   32       -2.499701
   33       -2.125128
   34       -2.122235
   35       -2.109558
   36       -2.105532
   37       -2.104781
   38       -2.104779
   39       -2.102456
   40       -2.089385
   41       -2.087865
   42       -2.086057
   43       -2.084123
   44       -2.067682
   45        1.257584
   46        1.267708
   47        1.271854
   48        1.275819
   49        1.283092
   50        1.288132
   51        1.290397
   52        1.299571
   53        1.623761
   54        1.624602
   55        1.626869
   56        1.921026
   57        1.921902
   58        1.924365
   59        1.928610
   60        1.928640
   61        1.929109
   62        2.146108
   63        2.158257
   64        2.160146
   65        5.786394
   66        5.787815
   67        5.788961
   68        5.933457
   69        5.939612
   70        5.943593
   71        5.944923
   72        5.945308
   73        5.949985
   74        6.339270
   75        6.351958
   76        6.354956
   77        8.232103
   78       10.521875
   79       10.524781
   80       11.527790
   81       11.531352
   82       11.564962
   83       11.665593
   84       11.671996
 
  0.1111111E+00  0.6938894E-17  0.0000000E+00  0.6172840E-02
    1      -15.240414
    2      -15.140285
    3      -15.139017
    4      -15.033985
    5      -10.790846
    6      -10.721001
    7      -10.719502
    8      -10.647669
    9      -10.256152
   10      -10.247793
   11      -10.196509
   12      -10.195348
   13      -10.187286
   14      -10.186551
   15      -10.135039
   16      -10.125965
   17       -8.636199
   18       -8.629616
   19       -8.589074
   20       -8.585346
   21       -8.580834
   22       -8.579785
   23       -8.534532
   24       -8.527621
   25       -8.113221
   26       -8.058697
   27       -8.058051
   28       -8.001239
   29       -3.951330
   30       -3.251108
   31       -3.249423
   32       -2.415366
   33       -2.348676
   34       -2.330796
   35       -2.328364
   36       -2.328233
   37       -2.310428
   38       -2.310003
   39       -2.307607
   40       -2.289478
   41       -2.051761
   42       -2.035976
   43       -2.032332
   44       -2.016526
   45        0.978331
   46        0.985795
   47        0.988006
   48        0.996511
   49        1.058921
   50        1.106728
   51        1.115257
   52        1.119742
   53        1.125106
   54        1.498988
   55        1.502002
   56        1.516619
   57        1.519707
   58        1.869492
   59        1.870234
   60        1.876072
   61        1.876634
   62        1.945178
   63        2.176195
   64        2.187519
   65        5.880162
   66        5.882249
   67        6.064578
   68        6.070555
   69        6.074896
   70        6.076965
   71        6.211534
   72        6.473349
   73        6.484262
   74        6.485318
   75        6.489097
   76        6.938316
   77        8.322637
   78       10.604241
   79       10.607137
   80       11.569100
   81       11.702111
   82       11.704522
   83       11.841184
   84       11.864698
 
  0.2222222E+00  0.1387779E-16  0.0000000E+00  0.6172840E-02
    1      -15.020226
    2      -14.921491
    3      -14.920231
    4      -14.816687
    5      -11.798954
    6      -11.720410
    7      -11.719182
    8      -11.637870
    9      -10.599946
   10      -10.594194
   11      -10.531784
   12      -10.530147
   13      -10.525193
   14      -10.524460
   15      -10.459756
   16      -10.453641
   17       -7.952974
   18       -7.943646
   19       -7.901449
   20       -7.898081
   21       -7.890946
   22       -7.889765
   23       -7.844491
   24       -7.835210
   25       -6.789113
   26       -6.738268
   27       -6.737757
   28       -6.685677
   29       -3.684833
   30       -2.990826
   31       -2.989121
   32       -2.953334
   33       -2.935241
   34       -2.929253
   35       -2.928159
   36       -2.910919
   37       -2.909948
   38       -2.903437
   39       -2.885137
   40       -2.163463
   41       -1.837035
   42       -1.821546
   43       -1.817772
   44       -1.802388
   45        0.058323
   46        0.154861
   47        0.167552
   48        0.170321
   49        0.183760
   50        0.610138
   51        0.612349
   52        0.688732
   53        0.698697
   54        0.703689
   55        0.711708
   56        1.230555
   57        1.310054
   58        1.313427
   59        1.748680
   60        1.749003
   61        1.753898
   62        1.754704
   63        2.190821
   64        2.198665
   65        6.157349
   66        6.161852
   67        6.398406
   68        6.404050
   69        6.408170
   70        6.410170
   71        6.787088
   72        6.795459
   73        7.377547
   74        7.707046
   75        7.709588
   76        8.150355
   77        8.594838
   78       10.850782
   79       10.853659
   80       11.680620
   81       11.809756
   82       11.812280
   83       11.918704
   84       12.697140
 
  0.3333333E+00  0.0000000E+00  0.0000000E+00  0.6172840E-02
    1      -14.654487
    2      -14.558012
    3      -14.556764
    4      -14.455797
    5      -12.709881
    6      -12.625497
    7      -12.624312
    8      -12.536465
    9      -10.855124
   10      -10.851510
   11      -10.783726
   12      -10.781735
   13      -10.779033
   14      -10.778464
   15      -10.707888
   16      -10.704184
   17       -7.146585
   18       -7.135888
   19       -7.099636
   20       -7.096145
   21       -7.087948
   22       -7.086465
   23       -7.047946
   24       -7.037481
   25       -5.358045
   26       -5.314379
   27       -5.313693
   28       -5.269259
   29       -3.766626
   30       -3.750763
   31       -3.737833
   32       -3.737010
   33       -3.721967
   34       -3.720746
   35       -3.707334
   36       -3.691203
   37       -3.243809
   38       -2.560384
   39       -2.558659
   40       -1.747869
   41       -1.488525
   42       -1.473622
   43       -1.469647
   44       -1.454845
   45       -1.027792
   46       -1.007717
   47       -1.005884
   48       -0.985719
   49       -0.951595
   50       -0.343532
   51       -0.341608
   52        0.127749
   53        0.139098
   54        0.143930
   55        0.154500
   56        0.362683
   57        1.128748
   58        1.131522
   59        1.624694
   60        1.625406
   61        1.628550
   62        1.629807
   63        2.163972
   64        2.168817
   65        6.534789
   66        6.540253
   67        6.789263
   68        6.794551
   69        6.797401
   70        6.799269
   71        7.112134
   72        7.117118
   73        8.886253
   74        9.048304
   75        9.183873
   76        9.186498
   77        9.571277
   78       11.252694
   79       11.255652
   80       11.429518
   81       11.902998
   82       11.970598
   83       11.973320
   84       12.189398
 
  0.4444444E+00  0.2775558E-16  0.0000000E+00  0.6172840E-02
    1      -14.145089
    2      -14.051825
    3      -14.050582
    4      -13.953097
    5      -13.495137
    6      -13.405856
    7      -13.404677
    8      -13.311613
    9      -10.986530
   10      -10.984542
   11      -10.914298
   12      -10.911772
   13      -10.910825
   14      -10.910632
   15      -10.836805
   16      -10.834838
   17       -6.401861
   18       -6.393959
   19       -6.368925
   20       -6.364776
   21       -6.360381
   22       -6.357990
   23       -6.331724
   24       -6.324659
   25       -4.516480
   26       -4.507699
   27       -4.492097
   28       -4.491796
   29       -4.483531
   30       -4.481848
   31       -4.465091
   32       -4.455505
   33       -3.880065
   34       -3.844472
   35       -3.843407
   36       -3.807107
   37       -2.633355
   38       -2.410922
   39       -2.383476
   40       -2.381933
   41       -2.353579
   42       -1.965838
   43       -1.964129
   44       -1.863172
   45       -1.219483
   46       -1.217640
   47       -1.176141
   48       -1.022650
   49       -1.008631
   50       -1.004365
   51       -0.990741
   52       -0.468028
   53       -0.462927
   54       -0.455210
   55       -0.450750
   56       -0.438178
   57        1.027610
   58        1.029632
   59        1.550057
   60        1.551580
   61        1.552699
   62        1.554652
   63        2.135755
   64        2.138383
   65        6.826186
   66        6.829798
   67        7.056422
   68        7.061733
   69        7.062153
   70        7.063595
   71        7.301977
   72        7.304676
   73        9.682134
   74       10.486520
   75       10.501922
   76       10.717046
   77       10.720832
   78       11.044921
   79       11.715309
   80       11.722476
   81       12.077901
   82       12.119582
   83       12.123125
   84       12.124040
 
  0.0000000E+00  0.1111111E+00  0.0000000E+00  0.6172840E-02
    1      -15.240415
    2      -15.140288
    3      -15.139017
    4      -15.033987
    5      -10.790768
    6      -10.720836
    7      -10.719500
    8      -10.647580
    9      -10.256140
   10      -10.248092
   11      -10.196499
   12      -10.195347
   13      -10.187884
   14      -10.186558
   15      -10.135012
   16      -10.126313
   17       -8.636330
   18       -8.628456
   19       -8.589349
   20       -8.585346
   21       -8.579789
   22       -8.578283
   23       -8.534607
   24       -8.526299
   25       -8.114114
   26       -8.059895
   27       -8.058683
   28       -8.002176
   29       -3.951325
   30       -3.251099
   31       -3.249421
   32       -2.415359
   33       -2.350011
   34       -2.332109
   35       -2.329083
   36       -2.328359
   37       -2.310488
   38       -2.310004
   39       -2.308797
   40       -2.289649
   41       -2.050248
   42       -2.033542
   43       -2.032332
   44       -2.015481
   45        0.976150
   46        0.983070
   47        0.985795
   48        0.992481
   49        1.059664
   50        1.112276
   51        1.119411
   52        1.119742
   53        1.126796
   54        1.500670
   55        1.502038
   56        1.516634
   57        1.518659
   58        1.869477
   59        1.870241
   60        1.873758
   61        1.876529
   62        1.946231
   63        2.176215
   64        2.186342
   65        5.880498
   66        5.883722
   67        6.064976
   68        6.070520
   69        6.075967
   70        6.079564
   71        6.209844
   72        6.473330
   73        6.483905
   74        6.485438
   75        6.488109
   76        6.936569
   77        8.322641
   78       10.604256
   79       10.607151
   80       11.569567
   81       11.702945
   82       11.704550
   83       11.841569
   84       11.867658
 
  0.1111111E+00  0.1111111E+00  0.0000000E+00  0.6172840E-02
    1      -15.093403
    2      -14.994255
    3      -14.992992
    4      -14.888940
    5      -11.254590
    6      -11.251675
    7      -11.181509
    8      -11.177345
    9      -11.177325
   10      -11.175714
   11      -11.101701
   12      -11.098796
   13       -9.826229
   14       -9.787385
   15       -9.787234
   16       -9.752926
   17       -8.768060
   18       -8.746804
   19       -8.742665
   20       -8.713107
   21       -7.431541
   22       -7.428513
   23       -7.379987
   24       -7.376448
   25       -7.376428
   26       -7.373757
   27       -7.323043
   28       -7.319792
   29       -3.773393
   30       -3.077306
   31       -3.075611
   32       -3.010220
   33       -2.986004
   34       -2.985101
   35       -2.960183
   36       -2.247014
   37       -2.205774
   38       -2.202716
   39       -2.188243
   40       -2.183437
   41       -2.183433
   42       -2.183292
   43       -2.166043
   44       -2.163830
   45        0.449597
   46        0.457029
   47        0.459447
   48        0.468291
   49        0.634777
   50        0.637381
   51        0.791126
   52        0.799695
   53        0.803888
   54        0.808770
   55        1.139296
   56        1.143076
   57        1.143196
   58        1.144082
   59        1.688979
   60        1.691246
   61        1.891766
   62        2.187217
   63        2.188677
   64        2.408953
   65        5.759017
   66        5.860619
   67        5.866107
   68        6.188439
   69        6.715078
   70        6.717380
   71        7.025211
   72        7.027295
   73        7.027962
   74        7.031361
   75        7.465691
   76        7.468283
   77        8.504289
   78       10.769429
   79       10.772311
   80       11.939743
   81       11.943896
   82       12.072296
   83       12.077909
   84       12.081745
 
  0.2222222E+00  0.1111111E+00  0.0000000E+00  0.6172840E-02
    1      -14.800379
    2      -14.703009
    3      -14.701760
    4      -14.599760
    5      -12.217654
    6      -12.136439
    7      -12.135210
    8      -12.050939
    9      -11.594535
   10      -11.517530
   11      -11.516230
   12      -11.436265
   13       -9.871154
   14       -9.813441
   15       -9.812880
   16       -9.754962
   17       -8.290392
   18       -8.246823
   19       -8.243143
   20       -8.196227
   21       -6.648260
   22       -6.600395
   23       -6.598810
   24       -6.549752
   25       -6.049988
   26       -6.003204
   27       -6.002672
   28       -5.955041
   29       -3.916256
   30       -3.886037
   31       -3.885167
   32       -3.854187
   33       -3.419471
   34       -2.731810
   35       -2.730049
   36       -2.728353
   37       -2.705254
   38       -2.704371
   39       -2.680696
   40       -1.918851
   41       -1.913120
   42       -1.901803
   43       -1.898094
   44       -1.880973
   45       -0.502165
   46       -0.489073
   47       -0.486127
   48       -0.472533
   49       -0.392379
   50        0.189692
   51        0.191804
   52        0.248920
   53        0.259211
   54        0.264467
   55        0.272285
   56        0.308605
   57        0.853862
   58        0.855427
   59        0.858419
   60        1.468075
   61        2.036970
   62        2.389842
   63        2.391191
   64        2.696094
   65        5.751252
   66        5.868244
   67        5.873430
   68        6.144610
   69        7.296790
   70        7.594998
   71        7.597725
   72        7.970203
   73        8.084894
   74        8.397307
   75        8.399516
   76        8.796716
   77        8.868564
   78       11.098178
   79       11.101066
   80       11.969588
   81       12.163012
   82       12.210329
   83       12.212817
   84       12.479029
 
  0.3333333E+00  0.1111111E+00  0.0000000E+00  0.6172840E-02
    1      -14.362691
    2      -14.268037
    3      -14.266803
    4      -14.167820
    5      -13.066249
    6      -12.979660
    7      -12.978455
    8      -12.888332
    9      -11.803022
   10      -11.724530
   11      -11.723195
   12      -11.641752
   13      -10.012701
   14       -9.947985
   15       -9.946981
   16       -9.880725
   17       -7.524220
   18       -7.480837
   19       -7.477284
   20       -7.432815
   21       -5.852426
   22       -5.813576
   23       -5.811309
   24       -5.771922
   25       -4.853984
   26       -4.822126
   27       -4.821109
   28       -4.788262
   29       -4.603170
   30       -4.564275
   31       -4.563552
   32       -4.523892
   33       -3.426173
   34       -3.400302
   35       -3.400187
   36       -3.373402
   37       -2.893354
   38       -2.219097
   39       -2.217306
   40       -1.745286
   41       -1.723328
   42       -1.720960
   43       -1.699248
   44       -1.503122
   45       -1.486968
   46       -1.483101
   47       -1.467018
   48       -1.418961
   49       -1.360322
   50       -0.734046
   51       -0.732246
   52       -0.372224
   53       -0.359859
   54       -0.354737
   55       -0.343122
   56       -0.002218
   57        0.102241
   58        0.670385
   59        0.671491
   60        1.319199
   61        2.048059
   62        2.480393
   63        2.481400
   64        2.921976
   65        5.789690
   66        5.986878
   67        5.991311
   68        6.245271
   69        7.800149
   70        8.048765
   71        8.051695
   72        8.323793
   73        9.413036
   74        9.644647
   75        9.901882
   76        9.904421
   77       10.234990
   78       11.026804
   79       11.570525
   80       11.574054
   81       12.326076
   82       12.362340
   83       12.364873
   84       12.580894
 
  0.4444444E+00  0.1111111E+00  0.0000000E+00  0.6172840E-02
    1      -13.784878
    2      -13.782006
    3      -13.695096
    4      -13.691656
    5      -13.690690
    6      -13.689601
    7      -13.597523
    8      -13.594633
    9      -11.873652
   10      -11.794577
   11      -11.793224
   12      -11.711251
   13      -10.067014
   14      -10.001119
   15       -9.999945
   16       -9.932143
   17       -7.020444
   18       -6.993737
   19       -6.990313
   20       -6.964661
   21       -5.387125
   22       -5.383387
   23       -5.366354
   24       -5.366187
   25       -5.364275
   26       -5.361544
   27       -5.344335
   28       -5.340692
   29       -3.845192
   30       -3.829718
   31       -3.828061
   32       -3.810207
   33       -3.147241
   34       -3.144262
   35       -3.116886
   36       -3.116124
   37       -3.114170
   38       -3.110925
   39       -3.084542
   40       -3.080614
   41       -2.203841
   42       -2.201478
   43       -1.550046
   44       -1.546767
   45       -1.545946
   46       -1.544666
   47       -0.980672
   48       -0.972978
   49       -0.964298
   50       -0.957944
   51       -0.956749
   52       -0.955771
   53       -0.943747
   54       -0.940215
   55       -0.776680
   56       -0.774092
   57        0.031696
   58        0.606818
   59        0.607872
   60        1.266605
   61        2.041378
   62        2.503628
   63        2.504305
   64        3.001428
   65        5.822007
   66        6.054734
   67        6.058192
   68        6.301953
   69        8.013424
   70        8.225160
   71        8.228513
   72        8.440464
   73       10.135038
   74       10.136582
   75       11.223584
   76       11.226619
   77       11.375465
   78       11.380293
   79       11.381607
   80       11.388053
   81       11.667831
   82       11.671040
   83       12.220107
   84       12.225644
 
 -0.4444444E+00  0.1111111E+00  0.0000000E+00  0.6172840E-02
    1      -14.363456
    2      -14.268817
    3      -14.267560
    4      -14.168638
    5      -13.065038
    6      -12.978439
    7      -12.977269
    8      -12.887109
    9      -11.804803
   10      -11.726265
   11      -11.724909
   12      -11.643546
   13      -10.009983
   14       -9.945277
   15       -9.944036
   16       -9.877774
   17       -7.515828
   18       -7.471738
   19       -7.469798
   20       -7.424635
   21       -5.863761
   22       -5.825365
   23       -5.821715
   24       -5.782754
   25       -4.866172
   26       -4.834286
   27       -4.833711
   28       -4.800826
   29       -4.605371
   30       -4.566647
   31       -4.565593
   32       -4.526047
   33       -3.411666
   34       -3.386378
   35       -3.384800
   36       -3.358522
   37       -2.894124
   38       -2.219803
   39       -2.218062
   40       -1.745168
   41       -1.722729
   42       -1.721696
   43       -1.699623
   44       -1.501012
   45       -1.485039
   46       -1.480830
   47       -1.464889
   48       -1.419662
   49       -1.359235
   50       -0.733050
   51       -0.731155
   52       -0.371707
   53       -0.359657
   54       -0.355709
   55       -0.343748
   56       -0.001224
   57        0.100769
   58        0.668780
   59        0.669772
   60        1.317186
   61        2.049085
   62        2.483034
   63        2.483670
   64        2.927021
   65        5.791476
   66        5.990645
   67        5.993330
   68        6.247271
   69        7.794759
   70        8.043621
   71        8.047552
   72        8.320926
   73        9.412022
   74        9.644850
   75        9.901438
   76        9.904051
   77       10.234121
   78       11.028314
   79       11.569849
   80       11.573363
   81       12.322750
   82       12.359268
   83       12.362559
   84       12.577488
 
 -0.3333333E+00  0.1111111E+00  0.0000000E+00  0.6172840E-02
    1      -14.800926
    2      -14.703561
    3      -14.702296
    4      -14.600302
    5      -12.216233
    6      -12.134994
    7      -12.133813
    8      -12.049517
    9      -11.598240
   10      -11.521155
   11      -11.519821
   12      -11.439889
   13       -9.865235
   14       -9.807501
   15       -9.806239
   16       -9.748239
   17       -8.283447
   18       -8.238524
   19       -8.237114
   20       -8.188885
   21       -6.659852
   22       -6.612662
   23       -6.609494
   24       -6.561158
   25       -6.052304
   26       -6.005592
   27       -6.004930
   28       -5.957368
   29       -3.932089
   30       -3.902063
   31       -3.900961
   32       -3.870178
   33       -3.420012
   34       -2.732280
   35       -2.730585
   36       -2.710169
   37       -2.687096
   38       -2.685844
   39       -2.662212
   40       -1.917173
   41       -1.913629
   42       -1.900180
   43       -1.896259
   44       -1.879234
   45       -0.505880
   46       -0.492032
   47       -0.491538
   48       -0.477837
   49       -0.391239
   50        0.190761
   51        0.192986
   52        0.255297
   53        0.263618
   54        0.267150
   55        0.275394
   56        0.305894
   57        0.851253
   58        0.852198
   59        0.858749
   60        1.464007
   61        2.038141
   62        2.394695
   63        2.395555
   64        2.706144
   65        5.751702
   66        5.874539
   67        5.876932
   68        6.150833
   69        7.289678
   70        7.586660
   71        7.591069
   72        7.963822
   73        8.084549
   74        8.396451
   75        8.398813
   76        8.795572
   77        8.867820
   78       11.097531
   79       11.100414
   80       11.969343
   81       12.161788
   82       12.207812
   83       12.210703
   84       12.477341
 
 -0.2222222E+00  0.1111111E+00  0.0000000E+00  0.6172840E-02
    1      -15.093735
    2      -14.994592
    3      -14.993320
    4      -14.889275
    5      -11.258496
    6      -11.251472
    7      -11.184087
    8      -11.182819
    9      -11.177035
   10      -11.175744
   11      -11.105844
   12      -11.098738
   13       -9.816427
   14       -9.777320
   15       -9.776065
   16       -9.741426
   17       -8.764753
   18       -8.741699
   19       -8.740436
   20       -8.708984
   21       -7.440296
   22       -7.431671
   23       -7.388440
   24       -7.385441
   25       -7.378615
   26       -7.378068
   27       -7.331809
   28       -7.323259
   29       -3.773725
   30       -3.077620
   31       -3.075944
   32       -3.027970
   33       -3.004016
   34       -3.002741
   35       -2.978093
   36       -2.247335
   37       -2.203691
   38       -2.185964
   39       -2.183807
   40       -2.182248
   41       -2.164948
   42       -2.164564
   43       -2.163791
   44       -2.144753
   45        0.437766
   46        0.445170
   47        0.447038
   48        0.454111
   49        0.632622
   50        0.636892
   51        0.807131
   52        0.812797
   53        0.813773
   54        0.819898
   55        1.137570
   56        1.138565
   57        1.141822
   58        1.144382
   59        1.684296
   60        1.690460
   61        1.892755
   62        2.193421
   63        2.194490
   64        2.422146
   65        5.758065
   66        5.868341
   67        5.870757
   68        6.198552
   69        6.709025
   70        6.716591
   71        7.016267
   72        7.021011
   73        7.026528
   74        7.029357
   75        7.457409
   76        7.466538
   77        8.503831
   78       10.769000
   79       10.771879
   80       11.939928
   81       11.976009
   82       12.075071
   83       12.082951
   84       12.110728
 
 -0.1111111E+00  0.1111111E+00  0.0000000E+00  0.6172840E-02
    1      -15.240524
    2      -15.140399
    3      -15.139124
    4      -15.034095
    5      -10.798166
    6      -10.728227
    7      -10.727113
    8      -10.655200
    9      -10.247762
   10      -10.245519
   11      -10.188976
   12      -10.185220
   13      -10.185208
   14      -10.184584
   15      -10.125990
   16      -10.123847
   17       -8.631533
   18       -8.629804
   19       -8.583373
   20       -8.581453
   21       -8.581447
   22       -8.579721
   23       -8.529713
   24       -8.527798
   25       -8.121810
   26       -8.068552
   27       -8.065511
   28       -8.009885
   29       -3.951436
   30       -3.251204
   31       -3.249532
   32       -2.415465
   33       -2.350415
   34       -2.347662
   35       -2.332613
   36       -2.328165
   37       -2.327963
   38       -2.327960
   39       -2.310294
   40       -2.308327
   41       -2.030615
   42       -2.013756
   43       -2.012627
   44       -1.995539
   45        0.958892
   46        0.968697
   47        0.973633
   48        0.979699
   49        1.055470
   50        1.125355
   51        1.131934
   52        1.134439
   53        1.143406
   54        1.495128
   55        1.496170
   56        1.518262
   57        1.520668
   58        1.872527
   59        1.876873
   60        1.877071
   61        1.877243
   62        1.937551
   63        2.186038
   64        2.188054
   65        5.881630
   66        5.883823
   67        6.073430
   68        6.075355
   69        6.075754
   70        6.080136
   71        6.205600
   72        6.474109
   73        6.479386
   74        6.483878
   75        6.486863
   76        6.926553
   77        8.322486
   78       10.604106
   79       10.607001
   80       11.604072
   81       11.738423
   82       11.738605
   83       11.865284
   84       11.871335
 
 -0.1355253E-19  0.2222222E+00  0.0000000E+00  0.6172840E-02
    1      -15.020232
    2      -14.921503
    3      -14.920231
    4      -14.816694
    5      -11.798989
    6      -11.720477
    7      -11.719182
    8      -11.637904
    9      -10.600095
   10      -10.594167
   11      -10.532220
   12      -10.530148
   13      -10.524898
   14      -10.524454
   15      -10.459831
   16      -10.453587
   17       -7.953140
   18       -7.942632
   19       -7.901807
   20       -7.898081
   21       -7.889772
   22       -7.888552
   23       -7.844527
   24       -7.833996
   25       -6.789949
   26       -6.739503
   27       -6.738254
   28       -6.686572
   29       -3.684814
   30       -2.990791
   31       -2.989113
   32       -2.954643
   33       -2.935317
   34       -2.931487
   35       -2.928161
   36       -2.910919
   37       -2.910085
   38       -2.904578
   39       -2.885285
   40       -2.163437
   41       -1.835438
   42       -1.819033
   43       -1.817771
   44       -1.801322
   45        0.058767
   46        0.153261
   47        0.166121
   48        0.167552
   49        0.180624
   50        0.611126
   51        0.612442
   52        0.692903
   53        0.702531
   54        0.703690
   55        0.713144
   56        1.231190
   57        1.309688
   58        1.312785
   59        1.747960
   60        1.748882
   61        1.752903
   62        1.754331
   63        2.190689
   64        2.197609
   65        6.157577
   66        6.163576
   67        6.398881
   68        6.404025
   69        6.409397
   70        6.412516
   71        6.787301
   72        6.797320
   73        7.376183
   74        7.705775
   75        7.708302
   76        8.149081
   77        8.594849
   78       10.850837
   79       10.853711
   80       11.681181
   81       11.810881
   82       11.812286
   83       11.919258
   84       12.664942
 
  0.1111111E+00  0.2222222E+00  0.0000000E+00  0.6172840E-02
    1      -14.800384
    2      -14.703018
    3      -14.701760
    4      -14.599765
    5      -12.217704
    6      -12.136540
    7      -12.135211
    8      -12.050989
    9      -11.594500
   10      -11.517461
   11      -11.516229
   12      -11.436231
   13       -9.871146
   14       -9.813425
   15       -9.812880
   16       -9.754955
   17       -8.290330
   18       -8.246709
   19       -8.243142
   20       -8.196172
   21       -6.647315
   22       -6.598825
   23       -6.598441
   24       -6.548758
   25       -6.050911
   26       -6.004600
   27       -6.003193
   28       -5.956035
   29       -3.916326
   30       -3.886038
   31       -3.885322
   32       -3.854275
   33       -3.419456
   34       -2.731830
   35       -2.730097
   36       -2.729704
   37       -2.707819
   38       -2.704373
   39       -2.681863
   40       -1.917229
   41       -1.913099
   42       -1.899137
   43       -1.898092
   44       -1.879812
   45       -0.502801
   46       -0.489074
   47       -0.488021
   48       -0.474346
   49       -0.392015