       N       E                     dE             d eps       ncg     rms          rms(c)
DAV:   1     0.611587104318E+03    0.61159E+03   -0.71173E+04 27396   0.159E+03
DAV:   2    -0.261018639683E+03   -0.87261E+03   -0.84167E+03 34284   0.312E+02
DAV:   3    -0.313116959377E+03   -0.52098E+02   -0.51624E+02 33360   0.769E+01
DAV:   4    -0.314131299850E+03   -0.10143E+01   -0.10124E+01 35292   0.117E+01
DAV:   5    -0.314160899083E+03   -0.29599E-01   -0.29586E-01 35340   0.184E+00    0.221E+01
DAV:   6    -0.299520796411E+03    0.14640E+02   -0.15043E+01 31296   0.107E+01    0.116E+01
DAV:   7    -0.294820670847E+03    0.47001E+01   -0.16084E+01 30828   0.111E+01    0.196E+00
DAV:   8    -0.294894866793E+03   -0.74196E-01   -0.46358E-01 30948   0.194E+00    0.394E-01
DAV:   9    -0.294895106120E+03   -0.23933E-03   -0.22384E-02 32604   0.530E-01    0.195E-01
DAV:  10    -0.294895289722E+03   -0.18360E-03   -0.14519E-02 38484   0.320E-01    0.110E-01
DAV:  11    -0.294895762081E+03   -0.47236E-03   -0.38302E-03 31200   0.175E-01    0.940E-02
DAV:  12    -0.294895903838E+03   -0.14176E-03   -0.23765E-03 32916   0.994E-02    0.700E-02
DAV:  13    -0.294896187632E+03   -0.28379E-03   -0.21715E-03 31428   0.953E-02    0.685E-02
DAV:  14    -0.294896155545E+03    0.32087E-04   -0.92950E-04 32256   0.587E-02    0.358E-02
DAV:  15    -0.294896153298E+03    0.22472E-05   -0.11598E-04 33144   0.275E-02    0.250E-02
DAV:  16    -0.294896142285E+03    0.11013E-04   -0.33263E-04 38448   0.374E-02    0.266E-02
DAV:  17    -0.294896135758E+03    0.65277E-05   -0.23181E-05 31212   0.119E-02    0.150E-02
DAV:  18    -0.294896134795E+03    0.96255E-06   -0.58307E-05 20196   0.987E-03    0.102E-02
DAV:  19    -0.294896136883E+03   -0.20876E-05   -0.12973E-05 24684   0.768E-03    0.123E-02
DAV:  20    -0.294896133547E+03    0.33357E-05   -0.34223E-05 19524   0.110E-02    0.530E-03
DAV:  21    -0.294896133346E+03    0.20165E-06   -0.69681E-06 18996   0.412E-03
   1 F= -.29962661E+03 E0= -.29962661E+03  d E =0.000000E+00
