  32  32   0   0
  0.9341735E+01  0.4932875E-09  0.4932875E-09  0.1419195E-08  0.5000000E-15
  1.000000000000000E-004
  CAR 
 graphite                                
     15.03219399    -17.38600951  301      4.20196024      1.00000000
    -17.386  0.0000E+00  0.0000E+00
    -17.278  0.0000E+00  0.0000E+00
    -17.170  0.0000E+00  0.0000E+00
    -17.062  0.0000E+00  0.0000E+00
    -16.954  0.0000E+00  0.0000E+00
    -16.846  0.0000E+00  0.0000E+00
    -16.738  0.0000E+00  0.0000E+00
    -16.630  0.0000E+00  0.0000E+00
    -16.522  0.0000E+00  0.0000E+00
    -16.413  0.0000E+00  0.0000E+00
    -16.305  0.0000E+00  0.0000E+00
    -16.197  0.0000E+00  0.0000E+00
    -16.089  0.0000E+00  0.0000E+00
    -15.981  0.0000E+00  0.0000E+00
    -15.873  0.0000E+00  0.0000E+00
    -15.765  0.0000E+00  0.0000E+00
    -15.657  0.0000E+00  0.0000E+00
    -15.549  0.0000E+00  0.0000E+00
    -15.441  0.0000E+00  0.0000E+00
    -15.333  0.1332E+01  0.2747E-01
    -15.225  0.3217E+01  0.2834E+00
    -15.117  0.4779E+01  0.7704E+00
    -15.009  0.4952E+01  0.1296E+01
    -14.901  0.4907E+01  0.1826E+01
    -14.793  0.4983E+01  0.2363E+01
    -14.684  0.4855E+01  0.2899E+01
    -14.576  0.4914E+01  0.3425E+01
    -14.468  0.5035E+01  0.3964E+01
    -14.360  0.4991E+01  0.4506E+01
    -14.252  0.4967E+01  0.5042E+01
    -14.144  0.5764E+01  0.5620E+01
    -14.036  0.6304E+01  0.6265E+01
    -13.928  0.6466E+01  0.6955E+01
    -13.820  0.4610E+01  0.7558E+01
    -13.712  0.1877E+01  0.7785E+01
    -13.604  0.4138E+01  0.8101E+01
    -13.496  0.4579E+01  0.8595E+01
    -13.388  0.4380E+01  0.9076E+01
    -13.280  0.7312E+01  0.9883E+01
    -13.172  0.4283E+01  0.1059E+02
    -13.064  0.4368E+01  0.1106E+02
    -12.956  0.4497E+01  0.1154E+02
    -12.847  0.4604E+01  0.1203E+02
    -12.739  0.4713E+01  0.1253E+02
    -12.631  0.5433E+01  0.1308E+02
    -12.523  0.6030E+01  0.1371E+02
    -12.415  0.5350E+01  0.1432E+02
    -12.307  0.5652E+01  0.1491E+02
    -12.199  0.5099E+01  0.1549E+02
    -12.091  0.4805E+01  0.1602E+02
    -11.983  0.4903E+01  0.1654E+02
    -11.875  0.4979E+01  0.1708E+02
    -11.767  0.5036E+01  0.1762E+02
    -11.659  0.5176E+01  0.1816E+02
    -11.551  0.5615E+01  0.1875E+02
    -11.443  0.5803E+01  0.1938E+02
    -11.335  0.5676E+01  0.2000E+02
    -11.227  0.5628E+01  0.2060E+02
    -11.118  0.5753E+01  0.2122E+02
    -11.010  0.5091E+01  0.2183E+02
    -10.902  0.5147E+01  0.2235E+02
    -10.794  0.5418E+01  0.2293E+02
    -10.686  0.5379E+01  0.2351E+02
    -10.578  0.5505E+01  0.2410E+02
    -10.470  0.5725E+01  0.2470E+02
    -10.362  0.5957E+01  0.2533E+02
    -10.254  0.8256E+01  0.2607E+02
    -10.146  0.9172E+01  0.2714E+02
    -10.038  0.5984E+01  0.2795E+02
     -9.930  0.7578E+01  0.2856E+02
     -9.822  0.3885E+01  0.2933E+02
     -9.714  0.3518E+01  0.2973E+02
     -9.606  0.3150E+01  0.3009E+02
     -9.498  0.2782E+01  0.3041E+02
     -9.390  0.2415E+01  0.3069E+02
     -9.281  0.2494E+01  0.3094E+02
     -9.173  0.3086E+01  0.3128E+02
     -9.065  0.1404E+01  0.3152E+02
     -8.957  0.1755E+01  0.3168E+02
     -8.849  0.2674E+01  0.3192E+02
     -8.741  0.7715E+01  0.3242E+02
     -8.633  0.4194E+01  0.3314E+02
     -8.525  0.3973E+01  0.3356E+02
     -8.417  0.4300E+01  0.3400E+02
     -8.309  0.8909E+01  0.3472E+02
     -8.201  0.6469E+01  0.3545E+02
     -8.093  0.7588E+01  0.3621E+02
     -7.985  0.8623E+01  0.3709E+02
     -7.877  0.7687E+01  0.3803E+02
     -7.769  0.6245E+01  0.3874E+02
     -7.661  0.5989E+01  0.3940E+02
     -7.552  0.5737E+01  0.4003E+02
     -7.444  0.5508E+01  0.4064E+02
     -7.336  0.5323E+01  0.4122E+02
     -7.228  0.5142E+01  0.4179E+02
     -7.120  0.4946E+01  0.4233E+02
     -7.012  0.4847E+01  0.4286E+02
     -6.904  0.4818E+01  0.4338E+02
     -6.796  0.4786E+01  0.4390E+02
     -6.688  0.4599E+01  0.4441E+02
     -6.580  0.4403E+01  0.4490E+02
     -6.472  0.4097E+01  0.4537E+02
     -6.364  0.4018E+01  0.4578E+02
     -6.256  0.4381E+01  0.4623E+02
     -6.148  0.5006E+01  0.4673E+02
     -6.040  0.5944E+01  0.4732E+02
     -5.932  0.6661E+01  0.4800E+02
     -5.824  0.1039E+02  0.4899E+02
     -5.715  0.8182E+01  0.5000E+02
     -5.607  0.5972E+01  0.5076E+02
     -5.499  0.3761E+01  0.5129E+02
     -5.391  0.2736E+01  0.5161E+02
     -5.283  0.3234E+01  0.5192E+02
     -5.175  0.4510E+01  0.5234E+02
     -5.067  0.5799E+01  0.5289E+02
     -4.959  0.7484E+01  0.5360E+02
     -4.851  0.7787E+01  0.5447E+02
     -4.743  0.6601E+01  0.5524E+02
     -4.635  0.5582E+01  0.5589E+02
     -4.527  0.7662E+01  0.5659E+02
     -4.419  0.7154E+01  0.5739E+02
     -4.311  0.6647E+01  0.5814E+02
     -4.203  0.6140E+01  0.5883E+02
     -4.095  0.5632E+01  0.5946E+02
     -3.986  0.6451E+01  0.6008E+02
     -3.878  0.9297E+01  0.6121E+02
     -3.770  0.1002E+02  0.6229E+02
     -3.662  0.7889E+01  0.6325E+02
     -3.554  0.6587E+01  0.6403E+02
     -3.446  0.6678E+01  0.6473E+02
     -3.338  0.7658E+01  0.6550E+02
     -3.230  0.8714E+01  0.6639E+02
     -3.122  0.1074E+02  0.6742E+02
     -3.014  0.1377E+02  0.6882E+02
     -2.906  0.1247E+02  0.7035E+02
     -2.798  0.1271E+02  0.7170E+02
     -2.690  0.1328E+02  0.7318E+02
     -2.582  0.1631E+02  0.7468E+02
     -2.474  0.1187E+02  0.7621E+02
     -2.366  0.1925E+02  0.7773E+02
     -2.258  0.1101E+02  0.7939E+02
     -2.149  0.1930E+02  0.8081E+02
     -2.041  0.1704E+02  0.8294E+02
     -1.933  0.1759E+02  0.8486E+02
     -1.825  0.1480E+02  0.8667E+02
     -1.717  0.1083E+02  0.8805E+02
     -1.609  0.8238E+01  0.8908E+02
     -1.501  0.1233E+02  0.9011E+02
     -1.393  0.8594E+01  0.9110E+02
     -1.285  0.1127E+02  0.9213E+02
     -1.177  0.1262E+02  0.9349E+02
     -1.069  0.1834E+02  0.9501E+02
     -0.961  0.9316E+01  0.9626E+02
     -0.853  0.1083E+02  0.9736E+02
     -0.745  0.1102E+02  0.9855E+02
     -0.637  0.1038E+02  0.9968E+02
     -0.529  0.1057E+02  0.1009E+03
     -0.420  0.1017E+02  0.1019E+03
     -0.312  0.9616E+01  0.1030E+03
     -0.204  0.9383E+01  0.1040E+03
     -0.096  0.9253E+01  0.1051E+03
      0.012  0.9167E+01  0.1060E+03
      0.120  0.9071E+01  0.1070E+03
      0.228  0.9563E+01  0.1080E+03
      0.336  0.9598E+01  0.1091E+03
      0.444  0.9315E+01  0.1101E+03
      0.552  0.9240E+01  0.1111E+03
      0.660  0.9234E+01  0.1121E+03
      0.768  0.9444E+01  0.1131E+03
      0.876  0.9315E+01  0.1141E+03
      0.984  0.9814E+01  0.1152E+03
      1.092  0.9842E+01  0.1163E+03
      1.200  0.7139E+01  0.1172E+03
      1.308  0.6220E+01  0.1179E+03
      1.417  0.5541E+01  0.1185E+03
      1.525  0.4687E+01  0.1191E+03
      1.633  0.4108E+01  0.1196E+03
      1.741  0.3743E+01  0.1200E+03
      1.849  0.6661E+01  0.1205E+03
      1.957  0.9938E+01  0.1214E+03
      2.065  0.1073E+02  0.1224E+03
      2.173  0.7261E+01  0.1234E+03
      2.281  0.5527E+01  0.1241E+03
      2.389  0.4731E+01  0.1246E+03
      2.497  0.4075E+01  0.1251E+03
      2.605  0.3429E+01  0.1255E+03
      2.713  0.3178E+01  0.1259E+03
      2.821  0.2985E+01  0.1262E+03
      2.929  0.2737E+01  0.1265E+03
      3.037  0.2321E+01  0.1268E+03
      3.146  0.2032E+01  0.1270E+03
      3.254  0.1800E+01  0.1272E+03
      3.362  0.1560E+01  0.1274E+03
      3.470  0.1318E+01  0.1276E+03
      3.578  0.1075E+01  0.1277E+03
      3.686  0.8357E+00  0.1278E+03
      3.794  0.6126E+00  0.1279E+03
      3.902  0.4251E+00  0.1279E+03
      4.010  0.2576E+00  0.1280E+03
      4.118  0.1056E+00  0.1280E+03
      4.226  0.1853E-01  0.1280E+03
      4.334  0.1366E+00  0.1280E+03
      4.442  0.2698E+00  0.1280E+03
      4.550  0.4223E+00  0.1281E+03
      4.658  0.6019E+00  0.1281E+03
      4.766  0.8341E+00  0.1282E+03
      4.874  0.1078E+01  0.1283E+03
      4.983  0.1460E+01  0.1284E+03
      5.091  0.1853E+01  0.1286E+03
      5.199  0.2245E+01  0.1288E+03
      5.307  0.2868E+01  0.1291E+03
      5.415  0.2716E+01  0.1294E+03
      5.523  0.3458E+01  0.1297E+03
      5.631  0.4310E+01  0.1302E+03
      5.739  0.7220E+01  0.1308E+03
      5.847  0.8092E+01  0.1318E+03
      5.955  0.8647E+01  0.1328E+03
      6.063  0.8909E+01  0.1337E+03
      6.171  0.6753E+01  0.1345E+03
      6.279  0.6347E+01  0.1352E+03
      6.387  0.5910E+01  0.1359E+03
      6.495  0.5549E+01  0.1365E+03
      6.603  0.5115E+01  0.1371E+03
      6.712  0.4498E+01  0.1376E+03
      6.820  0.3837E+01  0.1381E+03
      6.928  0.3641E+01  0.1385E+03
      7.036  0.3995E+01  0.1389E+03
      7.144  0.4517E+01  0.1393E+03
      7.252  0.4724E+01  0.1399E+03
      7.360  0.4524E+01  0.1404E+03
      7.468  0.4383E+01  0.1408E+03
      7.576  0.4234E+01  0.1413E+03
      7.684  0.4090E+01  0.1417E+03
      7.792  0.3955E+01  0.1422E+03
      7.900  0.3797E+01  0.1426E+03
      8.008  0.3645E+01  0.1430E+03
      8.116  0.3567E+01  0.1434E+03
      8.224  0.3822E+01  0.1438E+03
      8.332  0.3965E+01  0.1442E+03
      8.440  0.4058E+01  0.1446E+03
      8.549  0.4109E+01  0.1451E+03
      8.657  0.4196E+01  0.1455E+03
      8.765  0.4290E+01  0.1460E+03
      8.873  0.4297E+01  0.1465E+03
      8.981  0.4376E+01  0.1469E+03
      9.089  0.4486E+01  0.1474E+03
      9.197  0.4276E+01  0.1479E+03
      9.305  0.4271E+01  0.1483E+03
      9.413  0.4251E+01  0.1488E+03
      9.521  0.4211E+01  0.1493E+03
      9.629  0.4365E+01  0.1497E+03
      9.737  0.4507E+01  0.1502E+03
      9.845  0.4641E+01  0.1507E+03
      9.953  0.4892E+01  0.1512E+03
     10.061  0.4819E+01  0.1517E+03
     10.169  0.5702E+01  0.1523E+03
     10.278  0.4871E+01  0.1528E+03
     10.386  0.4869E+01  0.1534E+03
     10.494  0.4968E+01  0.1539E+03
     10.602  0.5972E+01  0.1545E+03
     10.710  0.4351E+01  0.1550E+03
     10.818  0.3642E+01  0.1554E+03
     10.926  0.3394E+01  0.1558E+03
     11.034  0.3309E+01  0.1562E+03
     11.142  0.3865E+01  0.1566E+03
     11.250  0.4119E+01  0.1570E+03
     11.358  0.4448E+01  0.1575E+03
     11.466  0.4812E+01  0.1580E+03
     11.574  0.7987E+01  0.1587E+03
     11.682  0.1049E+02  0.1598E+03
     11.790  0.1263E+02  0.1610E+03
     11.898  0.1353E+02  0.1624E+03
     12.006  0.1213E+02  0.1638E+03
     12.115  0.1063E+02  0.1651E+03
     12.223  0.7927E+01  0.1661E+03
     12.331  0.4865E+01  0.1667E+03
     12.439  0.4165E+01  0.1672E+03
     12.547  0.2642E+01  0.1676E+03
     12.655  0.1482E+01  0.1678E+03
     12.763  0.7603E+00  0.1679E+03
     12.871  0.1987E+00  0.1680E+03
     12.979  0.8717E-02  0.1680E+03
     13.087  0.0000E+00  0.1680E+03
     13.195  0.0000E+00  0.1680E+03
     13.303  0.0000E+00  0.1680E+03
     13.411  0.0000E+00  0.1680E+03
     13.519  0.0000E+00  0.1680E+03
     13.627  0.0000E+00  0.1680E+03
     13.735  0.0000E+00  0.1680E+03
     13.844  0.0000E+00  0.1680E+03
     13.952  0.0000E+00  0.1680E+03
     14.060  0.0000E+00  0.1680E+03
     14.168  0.0000E+00  0.1680E+03
     14.276  0.0000E+00  0.1680E+03
     14.384  0.0000E+00  0.1680E+03
     14.492  0.0000E+00  0.1680E+03
     14.600  0.0000E+00  0.1680E+03
     14.708  0.0000E+00  0.1680E+03
     14.816  0.0000E+00  0.1680E+03
     14.924  0.0000E+00  0.1680E+03
     15.032  0.0000E+00  0.1680E+03
