 running on    2 total cores
 distrk:  each k-point on    2 cores,    1 groups
 distr:  one band on    1 cores,    2 groups
 using from now: INCAR     
 vasp.5.3.5 31Mar14 (build Nov 02 2014 15:17:37) complex                        
  
 POSCAR found :  1 types and      16 ions
 scaLAPACK will be used
 LDA part: xc-table for Pade appr. of Perdew
 POSCAR, INCAR and KPOINTS ok, starting setup
 WARNING: small aliasing (wrap around) errors must be expected
 FFT: planning ...
 WAVECAR not read
 WARNING: random wavefunctions but no delay for mixing, default for NELMDL
 entering main loop
       N       E                     dE             d eps       ncg     rms          rms(c)
DAV:   1     0.634797882744E+03    0.63480E+03   -0.24324E+04  6912   0.124E+03
DAV:   2    -0.305006530941E+02   -0.66530E+03   -0.63149E+03  9920   0.267E+02
DAV:   3    -0.153067855078E+03   -0.12257E+03   -0.12196E+03  7468   0.125E+02
DAV:   4    -0.157638617480E+03   -0.45708E+01   -0.45492E+01  7954   0.315E+01
DAV:   5    -0.157761149332E+03   -0.12253E+00   -0.12227E+00  8696   0.455E+00    0.156E+01
DAV:   6    -0.150410491792E+03    0.73507E+01   -0.69459E+00  7370   0.104E+01    0.826E+00
DAV:   7    -0.147594262305E+03    0.28162E+01   -0.83102E+00  7008   0.112E+01    0.147E+00
DAV:   8    -0.147551256315E+03    0.43006E-01   -0.19877E-01  8418   0.186E+00    0.792E-01
DAV:   9    -0.147522134756E+03    0.29122E-01   -0.18006E-02  7918   0.512E-01    0.485E-01
DAV:  10    -0.147517734087E+03    0.44007E-02   -0.28379E-03  9014   0.206E-01    0.396E-01
DAV:  11    -0.147509561324E+03    0.81728E-02   -0.94410E-03  6866   0.324E-01    0.398E-01
DAV:  12    -0.147502849721E+03    0.67116E-02   -0.75721E-03  7090   0.289E-01    0.227E-01
DAV:  13    -0.147504050429E+03   -0.12007E-02   -0.28464E-03  6938   0.205E-01    0.306E-01
DAV:  14    -0.147504962843E+03   -0.91241E-03   -0.68936E-04  6754   0.962E-02    0.211E-01
DAV:  15    -0.147508457688E+03   -0.34948E-02   -0.11361E-03  7224   0.112E-01    0.304E-01
DAV:  16    -0.147510551120E+03   -0.20934E-02   -0.22291E-04  6900   0.532E-02    0.278E-01
DAV:  17    -0.147513538103E+03   -0.29870E-02   -0.12002E-03  7460   0.106E-01    0.227E-01
DAV:  18    -0.147514516971E+03   -0.97887E-03   -0.17125E-04  6840   0.527E-02    0.122E-01
DAV:  19    -0.147514944741E+03   -0.42777E-03   -0.43734E-05  6788   0.298E-02    0.205E-01
DAV:  20    -0.147515031898E+03   -0.87157E-04   -0.58117E-05  7262   0.281E-02    0.573E-02
DAV:  21    -0.147515242543E+03   -0.21065E-03   -0.22850E-05  6970   0.241E-02    0.171E-01
DAV:  22    -0.147515292984E+03   -0.50441E-04   -0.44348E-05  7008   0.240E-02    0.150E-01
DAV:  23    -0.147515322630E+03   -0.29646E-04   -0.12312E-05  6800   0.196E-02    0.300E-02
DAV:  24    -0.147515385551E+03   -0.62921E-04   -0.30014E-06  5858   0.849E-03    0.483E-02
DAV:  25    -0.147515416313E+03   -0.30762E-04   -0.52110E-06  7022   0.909E-03    0.143E-02
DAV:  26    -0.147515436729E+03   -0.20416E-04   -0.27634E-06  6784   0.702E-03    0.106E-02
DAV:  27    -0.147515446643E+03   -0.99142E-05   -0.63132E-07  4510   0.340E-03    0.550E-02
DAV:  28    -0.147515439909E+03    0.67340E-05   -0.11950E-06  4232   0.531E-03    0.772E-02
DAV:  29    -0.147515434323E+03    0.55865E-05   -0.15194E-06  5294   0.787E-03    0.602E-02
DAV:  30    -0.147515441723E+03   -0.74001E-05   -0.98519E-07  5336   0.703E-03    0.218E-02
DAV:  31    -0.147515451026E+03   -0.93027E-05   -0.31103E-07  4576   0.371E-03    0.173E-02
DAV:  32    -0.147515451248E+03   -0.22201E-06   -0.11846E-07  4240   0.201E-03
   1 F= -.14893325E+03 E0= -.14893325E+03  d E =0.000000E+00
