 vasp.5.3.5 31Mar14 (build Nov 02 2014 15:17:37) complex                        
  
 executed on        ion-Intel-MKL date 2016.10.11  11:59:35
 running on    2 total cores
 distrk:  each k-point on    2 cores,    1 groups
 distr:  one band on NCORES_PER_BAND=   1 cores,    2 groups


--------------------------------------------------------------------------------------------------------


 INCAR:
 POTCAR:   PAW_PBE C 08Apr2002                    
 POTCAR:   PAW_PBE C 08Apr2002                    
   VRHFIN =C: s2p2                                                              
   LEXCH  = PE                                                                  
   EATOM  =   147.1560 eV,   10.8157 Ry                                         
                                                                                
   TITEL  = PAW_PBE C 08Apr2002                                                 
   LULTRA =        F    use ultrasoft PP ?                                      
   IUNSCR =        0    unscreen: 0-lin 1-nonlin 2-no                           
   RPACOR =     .000    partial core radius                                     
   POMASS =   12.011; ZVAL   =    4.000    mass and valenz                      
   RCORE  =    1.500    outmost cutoff radius                                   
   RWIGS  =    1.630; RWIGS  =     .863    wigner-seitz radius (au A)           
   ENMAX  =  400.000; ENMIN  =  300.000 eV                                      
   ICORE  =        2    local potential                                         
   LCOR   =        T    correct aug charges                                     
   LPAW   =        T    paw PP                                                  
   EAUG   =  644.873                                                            
   DEXC   =     .000                                                            
   RMAX   =    2.266    core radius for proj-oper                               
   RAUG   =    1.300    factor for augmentation sphere                          
   RDEP   =    1.501    radius for radial grids                                 
   RDEPT  =    1.300    core radius for aug-charge                              
   QCUT   =   -5.516; QGAM   =   11.032    optimization parameters              
                                                                                
   Description                                                                  
     l     E      TYP  RCUT    TYP  RCUT                                        
     0   .000     23  1.200                                                     
     0   .000     23  1.200                                                     
     1   .000     23  1.500                                                     
     1  2.500     23  1.500                                                     
     2   .000      7  1.500                                                     
  local pseudopotential read in
  atomic valenz-charges read in
  non local Contribution for L=           0  read in
    real space projection operators read in
  non local Contribution for L=           0  read in
    real space projection operators read in
  non local Contribution for L=           1  read in
    real space projection operators read in
  non local Contribution for L=           1  read in
    real space projection operators read in
    PAW grid and wavefunctions read in
 
   number of l-projection  operators is LMAX  =           4
   number of lm-projection operators is LMMAX =           8
 
 PAW_PBE C 08Apr2002                    :
 energy of atom  1       EATOM= -147.1560
 kinetic energy error for atom=    0.0057 (will be added to EATOM!!)
 
 
 POSCAR: C                                       
  positions in direct lattice
  No initial velocities read in
 exchange correlation table for  LEXCH =        8
   RHO(1)=    0.500       N(1)  =     2000
   RHO(2)=  100.500       N(2)  =     4000
 


--------------------------------------------------------------------------------------------------------


 ion  position               nearest neighbor table
   1  0.500  0.000  0.042-  12 1.42  10 1.42  11 1.42
   2  1.000  0.000  0.041-   9 1.42  12 1.42  11 1.42
   3  0.500  0.500  0.041-  12 1.42   9 1.42  10 1.42
   4  1.000  0.500  0.041-  11 1.42  10 1.42   9 1.42
   5  0.500  0.000  0.541-  14 1.42  15 1.42  16 1.42
   6  1.000  0.000  0.541-  13 1.42  16 1.42  15 1.42
   7  0.500  0.500  0.541-  16 1.42  13 1.42  14 1.42
   8  1.000  0.500  0.541-  15 1.42  14 1.42  13 1.42
   9  0.166  0.334  0.041-   2 1.42   3 1.42   4 1.42
  10  0.666  0.334  0.041-   4 1.42   1 1.42   3 1.42
  11  0.166  0.834  0.041-   4 1.42   2 1.42   1 1.42
  12  0.666  0.834  0.041-   1 1.42   3 1.42   2 1.42
  13  0.166  0.334  0.541-   6 1.42   7 1.42   8 1.42
  14  0.666  0.334  0.541-   5 1.42   8 1.42   7 1.42
  15  0.166  0.834  0.541-   8 1.42   5 1.42   6 1.42
  16  0.666  0.834  0.541-   7 1.42   6 1.42   5 1.42
 
  LATTYP: Found a base centered orthorhombic cell.
 ALAT       =     4.9295499439
 B/A-ratio  =     1.7336082085
 C/A-ratio  =     8.1143310150
  
  Lattice vectors:
  
 A1 = (   4.9328746796,   0.0000000000,   0.0000000000)
 A2 = (  -2.4697609550,   4.2700741714,   0.0000000000)
 A3 = (   0.0000000000,   0.0000000000,  40.0000000000)


Analysis of symmetry for initial positions (statically):
=====================================================================
 Subroutine PRICEL returns:
 Original cell was already a primitive cell.
 

 Routine SETGRP: Setting up the symmetry group for a 
 base centered orthorhombic supercell.


 Subroutine GETGRP returns: Found  1 space group operations
 (whereof  1 operations were pure point group operations)
 out of a pool of  8 trial point group operations.


The static configuration has the point symmetry C_1 .


Analysis of symmetry for dynamics (positions and initial velocities):
=====================================================================
 Subroutine PRICEL returns:
 Original cell was already a primitive cell.
 

 Routine SETGRP: Setting up the symmetry group for a 
 base centered orthorhombic supercell.


 Subroutine GETGRP returns: Found  1 space group operations
 (whereof  1 operations were pure point group operations)
 out of a pool of  8 trial point group operations.


The dynamic configuration has the point symmetry C_1 .
 
 
 KPOINTS: B4C B11C-CBC                            

Automatic generation of k-mesh.
Space group operators:
 irot       det(A)        alpha          n_x          n_y          n_z        tau_x        tau_y        tau_z
    1     1.000000     0.000000     1.000000     0.000000     0.000000     0.000000     0.000000     0.000000
 
 Subroutine IBZKPT returns following result:
 ===========================================
 
 Found     76 irreducible k-points:
 
 Following reciprocal coordinates:
            Coordinates               Weight
  0.000000  0.000000  0.000000      1.000000
  0.166667  0.000000  0.000000      2.000000
  0.333333  0.000000  0.000000      2.000000
  0.500000  0.000000  0.000000      1.000000
  0.000000  0.166667  0.000000      2.000000
  0.166667  0.166667  0.000000      2.000000
  0.333333  0.166667  0.000000      2.000000
  0.500000  0.166667  0.000000      2.000000
 -0.333333  0.166667  0.000000      2.000000
 -0.166667  0.166667  0.000000      2.000000
  0.000000  0.333333  0.000000      2.000000
  0.166667  0.333333  0.000000      2.000000
  0.333333  0.333333  0.000000      2.000000
  0.500000  0.333333  0.000000      2.000000
 -0.333333  0.333333  0.000000      2.000000
 -0.166667  0.333333  0.000000      2.000000
  0.000000  0.500000  0.000000      1.000000
  0.166667  0.500000  0.000000      2.000000
  0.333333  0.500000  0.000000      2.000000
  0.500000  0.500000  0.000000      1.000000
  0.000000  0.000000  0.250000      2.000000
  0.166667  0.000000  0.250000      2.000000
  0.333333  0.000000  0.250000      2.000000
  0.500000  0.000000  0.250000      2.000000
 -0.333333 -0.000000  0.250000      2.000000
 -0.166667 -0.000000  0.250000      2.000000
  0.000000  0.166667  0.250000      2.000000
  0.166667  0.166667  0.250000      2.000000
  0.333333  0.166667  0.250000      2.000000
  0.500000  0.166667  0.250000      2.000000
 -0.333333  0.166667  0.250000      2.000000
 -0.166667  0.166667  0.250000      2.000000
  0.000000  0.333333  0.250000      2.000000
  0.166667  0.333333  0.250000      2.000000
  0.333333  0.333333  0.250000      2.000000
  0.500000  0.333333  0.250000      2.000000
 -0.333333  0.333333  0.250000      2.000000
 -0.166667  0.333333  0.250000      2.000000
  0.000000  0.500000  0.250000      2.000000
  0.166667  0.500000  0.250000      2.000000
  0.333333  0.500000  0.250000      2.000000
  0.500000  0.500000  0.250000      2.000000
 -0.333333  0.500000  0.250000      2.000000
 -0.166667  0.500000  0.250000      2.000000
  0.000000 -0.333333  0.250000      2.000000
  0.166667 -0.333333  0.250000      2.000000
  0.333333 -0.333333  0.250000      2.000000
  0.500000 -0.333333  0.250000      2.000000
 -0.333333 -0.333333  0.250000      2.000000
 -0.166667 -0.333333  0.250000      2.000000
  0.000000 -0.166667  0.250000      2.000000
  0.166667 -0.166667  0.250000      2.000000
  0.333333 -0.166667  0.250000      2.000000
  0.500000 -0.166667  0.250000      2.000000
 -0.333333 -0.166667  0.250000      2.000000
 -0.166667 -0.166667  0.250000      2.000000
  0.000000  0.000000  0.500000      1.000000
  0.166667  0.000000  0.500000      2.000000
  0.333333  0.000000  0.500000      2.000000
  0.500000  0.000000  0.500000      1.000000
  0.000000  0.166667  0.500000      2.000000
  0.166667  0.166667  0.500000      2.000000
  0.333333  0.166667  0.500000      2.000000
  0.500000  0.166667  0.500000      2.000000
 -0.333333  0.166667  0.500000      2.000000
 -0.166667  0.166667  0.500000      2.000000
  0.000000  0.333333  0.500000      2.000000
  0.166667  0.333333  0.500000      2.000000
  0.333333  0.333333  0.500000      2.000000
  0.500000  0.333333  0.500000      2.000000
 -0.333333  0.333333  0.500000      2.000000
 -0.166667  0.333333  0.500000      2.000000
  0.000000  0.500000  0.500000      1.000000
  0.166667  0.500000  0.500000      2.000000
  0.333333  0.500000  0.500000      2.000000
  0.500000  0.500000  0.500000      1.000000
 
 Following cartesian coordinates:
            Coordinates               Weight
  0.000000  0.000000  0.000000      1.000000
  0.033787  0.019542  0.000000      2.000000
  0.067574  0.039084  0.000000      2.000000
  0.101361  0.058626  0.000000      1.000000
  0.000000  0.039031  0.000000      2.000000
  0.033787  0.058573  0.000000      2.000000
  0.067574  0.078115  0.000000      2.000000
  0.101361  0.097657  0.000000      2.000000
 -0.067574 -0.000053  0.000000      2.000000
 -0.033787  0.019489  0.000000      2.000000
  0.000000  0.078063  0.000000      2.000000
  0.033787  0.097605  0.000000      2.000000
  0.067574  0.117147  0.000000      2.000000
  0.101361  0.136689  0.000000      2.000000
 -0.067574  0.038979  0.000000      2.000000
 -0.033787  0.058521  0.000000      2.000000
  0.000000  0.117094  0.000000      1.000000
  0.033787  0.136636  0.000000      2.000000
  0.067574  0.156178  0.000000      2.000000
  0.101361  0.175720  0.000000      1.000000
  0.000000  0.000000  0.006250      2.000000
  0.033787  0.019542  0.006250      2.000000
  0.067574  0.039084  0.006250      2.000000
  0.101361  0.058626  0.006250      2.000000
 -0.067574 -0.039084  0.006250      2.000000
 -0.033787 -0.019542  0.006250      2.000000
  0.000000  0.039031  0.006250      2.000000
  0.033787  0.058573  0.006250      2.000000
  0.067574  0.078115  0.006250      2.000000
  0.101361  0.097657  0.006250      2.000000
 -0.067574 -0.000053  0.006250      2.000000
 -0.033787  0.019489  0.006250      2.000000
  0.000000  0.078063  0.006250      2.000000
  0.033787  0.097605  0.006250      2.000000
  0.067574  0.117147  0.006250      2.000000
  0.101361  0.136689  0.006250      2.000000
 -0.067574  0.038979  0.006250      2.000000
 -0.033787  0.058521  0.006250      2.000000
  0.000000  0.117094  0.006250      2.000000
  0.033787  0.136636  0.006250      2.000000
  0.067574  0.156178  0.006250      2.000000
  0.101361  0.175720  0.006250      2.000000
 -0.067574  0.078010  0.006250      2.000000
 -0.033787  0.097552  0.006250      2.000000
  0.000000 -0.078063  0.006250      2.000000
  0.033787 -0.058521  0.006250      2.000000
  0.067574 -0.038979  0.006250      2.000000
  0.101361 -0.019437  0.006250      2.000000
 -0.067574 -0.117147  0.006250      2.000000
 -0.033787 -0.097605  0.006250      2.000000
  0.000000 -0.039031  0.006250      2.000000
  0.033787 -0.019489  0.006250      2.000000
  0.067574  0.000053  0.006250      2.000000
  0.101361  0.019595  0.006250      2.000000
 -0.067574 -0.078115  0.006250      2.000000
 -0.033787 -0.058573  0.006250      2.000000
  0.000000  0.000000  0.012500      1.000000
  0.033787  0.019542  0.012500      2.000000
  0.067574  0.039084  0.012500      2.000000
  0.101361  0.058626  0.012500      1.000000
  0.000000  0.039031  0.012500      2.000000
  0.033787  0.058573  0.012500      2.000000
  0.067574  0.078115  0.012500      2.000000
  0.101361  0.097657  0.012500      2.000000
 -0.067574 -0.000053  0.012500      2.000000
 -0.033787  0.019489  0.012500      2.000000
  0.000000  0.078063  0.012500      2.000000
  0.033787  0.097605  0.012500      2.000000
  0.067574  0.117147  0.012500      2.000000
  0.101361  0.136689  0.012500      2.000000
 -0.067574  0.038979  0.012500      2.000000
 -0.033787  0.058521  0.012500      2.000000
  0.000000  0.117094  0.012500      1.000000
  0.033787  0.136636  0.012500      2.000000
  0.067574  0.156178  0.012500      2.000000
  0.101361  0.175720  0.012500      1.000000
 
 TETIRR: Found    432 inequivalent tetrahedra from      864


--------------------------------------------------------------------------------------------------------




 Dimension of arrays:
   k-points           NKPTS =     76   k-points in BZ     NKDIM =     76   number of bands    NBANDS=     42
   number of dos      NEDOS =    301   number of ions     NIONS =     16
   non local maximal  LDIM  =      4   non local SUM 2l+1 LMDIM =      8
   total plane-waves  NPLWV = 512000
   max r-space proj   IRMAX =      1   max aug-charges    IRDMAX=   7370
   dimension x,y,z NGX =    40 NGY =   40 NGZ =  320
   dimension x,y,z NGXF=    80 NGYF=   80 NGZF=  640
   support grid    NGXF=    80 NGYF=   80 NGZF=  640
   ions per type =              16
 NGX,Y,Z   is equivalent  to a cutoff of  13.48, 13.48, 13.30 a.u.
 NGXF,Y,Z  is equivalent  to a cutoff of  26.96, 26.96, 26.60 a.u.


 I would recommend the setting:
   dimension x,y,z NGX =    39 NGY =   39 NGZ =  320
 SYSTEM =  graphite                                
 POSCAR =  C                                       

 Startparameter for this run:
   NWRITE =      2    write-flag & timer
   PREC   = accura    normal or accurate (medium, high low for compatibility)
   ISTART =      0    job   : 0-new  1-cont  2-samecut
   ICHARG =      2    charge: 1-file 2-atom 10-const
   ISPIN  =      1    spin polarized calculation?
   LNONCOLLINEAR =      F non collinear calculations
   LSORBIT =      F    spin-orbit coupling
   INIWAV =      1    electr: 0-lowe 1-rand  2-diag
   LASPH  =      F    aspherical Exc in radial PAW
   METAGGA=      F    non-selfconsistent MetaGGA calc.

 Electronic Relaxation 1
   ENCUT  =  600.0 eV  44.10 Ry    6.64 a.u.   9.85  9.85 79.89*2*pi/ulx,y,z
   ENINI  =  600.0     initial cutoff
   ENAUG  =  644.9 eV  augmentation charge cutoff
   NELM   =    200;   NELMIN=  2; NELMDL=  0     # of ELM steps 
   EDIFF  = 0.1E-05   stopping-criterion for ELM
   LREAL  =      F    real-space projection
   NLSPLINE    = F    spline interpolate recip. space projectors
   LCOMPAT=      F    compatible to vasp.4.4
   GGA_COMPAT  = T    GGA compatible to vasp.4.4-vasp.4.6
   LMAXPAW     = -100 max onsite density
   LMAXMIX     =    2 max onsite mixed and CHGCAR
   VOSKOWN=      0    Vosko Wilk Nusair interpolation
   ROPT   =    0.00000
 Ionic relaxation
   EDIFFG = 0.1E-02   stopping-criterion for IOM
   NSW    =      0    number of steps for IOM
   NBLOCK =      1;   KBLOCK =      1    inner block; outer block 
   IBRION =     -1    ionic relax: 0-MD 1-quasi-New 2-CG
   NFREE  =      0    steps in history (QN), initial steepest desc. (CG)
   ISIF   =      2    stress and relaxation
   IWAVPR =     10    prediction:  0-non 1-charg 2-wave 3-comb
   ISYM   =      2    0-nonsym 1-usesym 2-fastsym
   LCORR  =      T    Harris-Foulkes like correction to forces

   POTIM  = 0.5000    time-step for ionic-motion
   TEIN   =    0.0    initial temperature
   TEBEG  =    0.0;   TEEND  =   0.0 temperature during run
   SMASS  =  -3.00    Nose mass-parameter (am)
   estimated Nose-frequenzy (Omega)   =  0.10E-29 period in steps =****** mass=  -0.556E-27a.u.
   SCALEE = 1.0000    scale energy and forces
   NPACO  =    256;   APACO  = 16.0  distance and # of slots for P.C.
   PSTRESS=    0.0 pullay stress

  Mass of Ions in am
   POMASS =  12.01
  Ionic Valenz
   ZVAL   =   4.00
  Atomic Wigner-Seitz radii
   RWIGS  =  -1.00
  virtual crystal weights 
   VCA    =   1.00
   NELECT =      64.0000    total number of electrons
   NUPDOWN=      -1.0000    fix difference up-down

 DOS related values:
   EMIN   =  10.00;   EMAX   =-10.00  energy-range for DOS
   EFERMI =   0.00
   ISMEAR =    -5;   SIGMA  =   0.20  broadening in eV -4-tet -1-fermi 0-gaus

 Electronic relaxation 2 (details)
   IALGO  =     38    algorithm
   LDIAG  =      T    sub-space diagonalisation (order eigenvalues)
   LSUBROT=      F    optimize rotation matrix (better conditioning)
   TURBO    =      0    0=normal 1=particle mesh
   IRESTART =      0    0=no restart 2=restart with 2 vectors
   NREBOOT  =      0    no. of reboots
   NMIN     =      0    reboot dimension
   EREF     =   0.00    reference energy to select bands
   IMIX   =      4    mixing-type and parameters
     AMIX     =   0.40;   BMIX     =  1.00
     AMIX_MAG =   1.60;   BMIX_MAG =  1.00
     AMIN     =   0.10
     WC   =   100.;   INIMIX=   1;  MIXPRE=   1;  MAXMIX= -45

 Intra band minimization:
   WEIMIN = 0.0000     energy-eigenvalue tresh-hold
   EBREAK =  0.60E-08  absolut break condition
   DEPER  =   0.30     relativ break condition  

   TIME   =   0.40     timestep for ELM

  volume/ion in A,a.u.               =      52.66       355.36
  Fermi-wavevector in a.u.,A,eV,Ry     =   0.693324  1.310193  6.540298  0.480698
  Thomas-Fermi vector in A             =   1.775506
 
 Write flags
   LWAVE  =      F    write WAVECAR
   LCHARG =      F    write CHGCAR
   LVTOT  =      F    write LOCPOT, total local potential
   LVHAR  =      F    write LOCPOT, Hartree potential only
   LELF   =      F    write electronic localiz. function (ELF)
   LORBIT =      0    0 simple, 1 ext, 2 COOP (PROOUT)


 Dipole corrections
   LMONO  =      F    monopole corrections only (constant potential shift)
   LDIPOL =      F    correct potential (dipole corrections)
   IDIPOL =      0    1-x, 2-y, 3-z, 4-all directions 
   EPSILON=  1.0000000 bulk dielectric constant

 Exchange correlation treatment:
   GGA     =    PE    GGA type
   LEXCH   =     8    internal setting for exchange type
   VOSKOWN=      0    Vosko Wilk Nusair interpolation
   LHFCALC =     F    Hartree Fock is set to
   LHFONE  =     F    Hartree Fock one center treatment
   AEXX    =    0.0000 exact exchange contribution

 Linear response parameters
   LEPSILON=     F    determine dielectric tensor
   LRPA    =     F    only Hartree local field effects (RPA)
   LNABLA  =     F    use nabla operator in PAW spheres
   LVEL    =     F    velocity operator in full k-point grid
   LINTERFAST=   F  fast interpolation
   KINTER  =     0    interpolate to denser k-point grid
   CSHIFT  =0.1000    complex shift for real part using Kramers Kronig
   OMEGAMAX=  -1.0    maximum frequency
   DEG_THRESHOLD= 0.2000000E-02 threshold for treating states as degnerate
   RTIME   =    0.100 relaxation time in fs

 Orbital magnetization related:
   ORBITALMAG=     F  switch on orbital magnetization
   LCHIMAG   =     F  perturbation theory with respect to B field
   DQ        =  0.001000  dq finite difference perturbation B field



--------------------------------------------------------------------------------------------------------


 Static calculation
 charge density and potential will be updated during run
 non-spin polarized calculation
 Variant of blocked Davidson
 Davidson routine will perform the subspace rotation
 perform sub-space diagonalisation
    after iterative eigenvector-optimisation
 modified Broyden-mixing scheme, WC =      100.0
 initial mixing is a Kerker type mixing with AMIX =  0.4000 and BMIX =      1.0000
 Hartree-type preconditioning will be used
 using additional bands           10
 reciprocal scheme for non local part
 calculate Harris-corrections to forces 
   (improved forces if not selfconsistent)
 use gradient corrections 
 use of overlap-Matrix (Vanderbilt PP)
 Fermi weights with tetrahedron method with Bloechl corrections


--------------------------------------------------------------------------------------------------------


  energy-cutoff  :      600.00
  volume of cell :      842.55
      direct lattice vectors                 reciprocal lattice vectors
     4.932874680  0.000000000  0.000000000     0.202721550  0.117251773  0.000000000
    -2.469760955  4.270074171  0.000000000     0.000000000  0.234187970  0.000000000
     0.000000000  0.000000000 40.000000000     0.000000000  0.000000000  0.025000000

  length of vectors
     4.932874680  4.932874680 40.000000000     0.234187970  0.234187970  0.025000000


 
 k-points in units of 2pi/SCALE and weight: B4C B11C-CBC                            
   0.00000000  0.00000000  0.00000000       0.007
   0.03378692  0.01954196  0.00000000       0.014
   0.06757385  0.03908392  0.00000000       0.014
   0.10136077  0.05862589  0.00000000       0.007
   0.00000000  0.03903133  0.00000000       0.014
   0.03378692  0.05857329  0.00000000       0.014
   0.06757385  0.07811525  0.00000000       0.014
   0.10136077  0.09765721  0.00000000       0.014
  -0.06757385 -0.00005260  0.00000000       0.014
  -0.03378692  0.01948937  0.00000000       0.014
   0.00000000  0.07806266  0.00000000       0.014
   0.03378692  0.09760462  0.00000000       0.014
   0.06757385  0.11714658  0.00000000       0.014
   0.10136077  0.13668854  0.00000000       0.014
  -0.06757385  0.03897873  0.00000000       0.014
  -0.03378692  0.05852069  0.00000000       0.014
   0.00000000  0.11709398  0.00000000       0.007
   0.03378692  0.13663595  0.00000000       0.014
   0.06757385  0.15617791  0.00000000       0.014
   0.10136077  0.17571987  0.00000000       0.007
   0.00000000  0.00000000  0.00625000       0.014
   0.03378692  0.01954196  0.00625000       0.014
   0.06757385  0.03908392  0.00625000       0.014
   0.10136077  0.05862589  0.00625000       0.014
  -0.06757385 -0.03908392  0.00625000       0.014
  -0.03378692 -0.01954196  0.00625000       0.014
   0.00000000  0.03903133  0.00625000       0.014
   0.03378692  0.05857329  0.00625000       0.014
   0.06757385  0.07811525  0.00625000       0.014
   0.10136077  0.09765721  0.00625000       0.014
  -0.06757385 -0.00005260  0.00625000       0.014
  -0.03378692  0.01948937  0.00625000       0.014
   0.00000000  0.07806266  0.00625000       0.014
   0.03378692  0.09760462  0.00625000       0.014
   0.06757385  0.11714658  0.00625000       0.014
   0.10136077  0.13668854  0.00625000       0.014
  -0.06757385  0.03897873  0.00625000       0.014
  -0.03378692  0.05852069  0.00625000       0.014
   0.00000000  0.11709398  0.00625000       0.014
   0.03378692  0.13663595  0.00625000       0.014
   0.06757385  0.15617791  0.00625000       0.014
   0.10136077  0.17571987  0.00625000       0.014
  -0.06757385  0.07801006  0.00625000       0.014
  -0.03378692  0.09755202  0.00625000       0.014
   0.00000000 -0.07806266  0.00625000       0.014
   0.03378692 -0.05852069  0.00625000       0.014
   0.06757385 -0.03897873  0.00625000       0.014
   0.10136077 -0.01943677  0.00625000       0.014
  -0.06757385 -0.11714658  0.00625000       0.014
  -0.03378692 -0.09760462  0.00625000       0.014
   0.00000000 -0.03903133  0.00625000       0.014
   0.03378692 -0.01948937  0.00625000       0.014
   0.06757385  0.00005260  0.00625000       0.014
   0.10136077  0.01959456  0.00625000       0.014
  -0.06757385 -0.07811525  0.00625000       0.014
  -0.03378692 -0.05857329  0.00625000       0.014
   0.00000000  0.00000000  0.01250000       0.007
   0.03378692  0.01954196  0.01250000       0.014
   0.06757385  0.03908392  0.01250000       0.014
   0.10136077  0.05862589  0.01250000       0.007
   0.00000000  0.03903133  0.01250000       0.014
   0.03378692  0.05857329  0.01250000       0.014
   0.06757385  0.07811525  0.01250000       0.014
   0.10136077  0.09765721  0.01250000       0.014
  -0.06757385 -0.00005260  0.01250000       0.014
  -0.03378692  0.01948937  0.01250000       0.014
   0.00000000  0.07806266  0.01250000       0.014
   0.03378692  0.09760462  0.01250000       0.014
   0.06757385  0.11714658  0.01250000       0.014
   0.10136077  0.13668854  0.01250000       0.014
  -0.06757385  0.03897873  0.01250000       0.014
  -0.03378692  0.05852069  0.01250000       0.014
   0.00000000  0.11709398  0.01250000       0.007
   0.03378692  0.13663595  0.01250000       0.014
   0.06757385  0.15617791  0.01250000       0.014
   0.10136077  0.17571987  0.01250000       0.007
 
 k-points in reciprocal lattice and weights: B4C B11C-CBC                            
   0.00000000  0.00000000  0.00000000       0.007
   0.16666667  0.00000000  0.00000000       0.014
   0.33333333  0.00000000  0.00000000       0.014
   0.50000000  0.00000000  0.00000000       0.007
   0.00000000  0.16666667  0.00000000       0.014
   0.16666667  0.16666667  0.00000000       0.014
   0.33333333  0.16666667  0.00000000       0.014
   0.50000000  0.16666667  0.00000000       0.014
  -0.33333333  0.16666667  0.00000000       0.014
  -0.16666667  0.16666667  0.00000000       0.014
   0.00000000  0.33333333  0.00000000       0.014
   0.16666667  0.33333333  0.00000000       0.014
   0.33333333  0.33333333  0.00000000       0.014
   0.50000000  0.33333333  0.00000000       0.014
  -0.33333333  0.33333333  0.00000000       0.014
  -0.16666667  0.33333333  0.00000000       0.014
   0.00000000  0.50000000  0.00000000       0.007
   0.16666667  0.50000000  0.00000000       0.014
   0.33333333  0.50000000  0.00000000       0.014
   0.50000000  0.50000000  0.00000000       0.007
   0.00000000  0.00000000  0.25000000       0.014
   0.16666667  0.00000000  0.25000000       0.014
   0.33333333  0.00000000  0.25000000       0.014
   0.50000000  0.00000000  0.25000000       0.014
  -0.33333333 -0.00000000  0.25000000       0.014
  -0.16666667 -0.00000000  0.25000000       0.014
   0.00000000  0.16666667  0.25000000       0.014
   0.16666667  0.16666667  0.25000000       0.014
   0.33333333  0.16666667  0.25000000       0.014
   0.50000000  0.16666667  0.25000000       0.014
  -0.33333333  0.16666667  0.25000000       0.014
  -0.16666667  0.16666667  0.25000000       0.014
   0.00000000  0.33333333  0.25000000       0.014
   0.16666667  0.33333333  0.25000000       0.014
   0.33333333  0.33333333  0.25000000       0.014
   0.50000000  0.33333333  0.25000000       0.014
  -0.33333333  0.33333333  0.25000000       0.014
  -0.16666667  0.33333333  0.25000000       0.014
   0.00000000  0.50000000  0.25000000       0.014
   0.16666667  0.50000000  0.25000000       0.014
   0.33333333  0.50000000  0.25000000       0.014
   0.50000000  0.50000000  0.25000000       0.014
  -0.33333333  0.50000000  0.25000000       0.014
  -0.16666667  0.50000000  0.25000000       0.014
   0.00000000 -0.33333333  0.25000000       0.014
   0.16666667 -0.33333333  0.25000000       0.014
   0.33333333 -0.33333333  0.25000000       0.014
   0.50000000 -0.33333333  0.25000000       0.014
  -0.33333333 -0.33333333  0.25000000       0.014
  -0.16666667 -0.33333333  0.25000000       0.014
   0.00000000 -0.16666667  0.25000000       0.014
   0.16666667 -0.16666667  0.25000000       0.014
   0.33333333 -0.16666667  0.25000000       0.014
   0.50000000 -0.16666667  0.25000000       0.014
  -0.33333333 -0.16666667  0.25000000       0.014
  -0.16666667 -0.16666667  0.25000000       0.014
   0.00000000  0.00000000  0.50000000       0.007
   0.16666667  0.00000000  0.50000000       0.014
   0.33333333  0.00000000  0.50000000       0.014
   0.50000000  0.00000000  0.50000000       0.007
   0.00000000  0.16666667  0.50000000       0.014
   0.16666667  0.16666667  0.50000000       0.014
   0.33333333  0.16666667  0.50000000       0.014
   0.50000000  0.16666667  0.50000000       0.014
  -0.33333333  0.16666667  0.50000000       0.014
  -0.16666667  0.16666667  0.50000000       0.014
   0.00000000  0.33333333  0.50000000       0.014
   0.16666667  0.33333333  0.50000000       0.014
   0.33333333  0.33333333  0.50000000       0.014
   0.50000000  0.33333333  0.50000000       0.014
  -0.33333333  0.33333333  0.50000000       0.014
  -0.16666667  0.33333333  0.50000000       0.014
   0.00000000  0.50000000  0.50000000       0.007
   0.16666667  0.50000000  0.50000000       0.014
   0.33333333  0.50000000  0.50000000       0.014
   0.50000000  0.50000000  0.50000000       0.007
 
 position of ions in fractional coordinates (direct lattice) 
   0.49992143  0.00032672  0.04169656
   0.99967331  0.00032672  0.04144844
   0.49967331  0.50032672  0.04144844
   0.99967331  0.50032672  0.04144844
   0.49967331  0.00032672  0.54144844
   0.99967331  0.00032672  0.54144844
   0.49967331  0.50032672  0.54144844
   0.99967331  0.50032672  0.54144844
   0.16629246  0.33370754  0.04144844
   0.66629246  0.33370754  0.04144844
   0.16629246  0.83370754  0.04144844
   0.66629246  0.83370754  0.04144844
   0.16629246  0.33370754  0.54144844
   0.66629246  0.33370754  0.54144844
   0.16629246  0.83370754  0.54144844
   0.66629246  0.83370754  0.54144844
 
 position of ions in cartesian coordinates  (Angst):
   2.46524283  0.00139511  1.66786246
   4.93045623  0.00139511  1.65793765
   1.22913841  2.13643220  1.65793765
   3.69557575  2.13643220  1.65793765
   2.46401889  0.00139511 21.65793765
   4.93045623  0.00139511 21.65793765
   1.22913841  2.13643220 21.65793765
   3.69557575  2.13643220 21.65793765
  -0.00387800  1.42495595  1.65793765
   2.46255934  1.42495595  1.65793765
  -1.23875847  3.55999304  1.65793765
   1.22767887  3.55999304  1.65793765
  -0.00387800  1.42495595 21.65793765
   2.46255934  1.42495595 21.65793765
  -1.23875847  3.55999304 21.65793765
   1.22767887  3.55999304 21.65793765
 


--------------------------------------------------------------------------------------------------------


 k-point  1 :   0.0000 0.0000 0.0000  plane waves:   27951
 k-point  2 :   0.1667 0.0000 0.0000  plane waves:   28063
 k-point  3 :   0.3333 0.0000 0.0000  plane waves:   28153
 k-point  4 :   0.5000 0.0000 0.0000  plane waves:   28162
 k-point  5 :   0.0000 0.1667 0.0000  plane waves:   28063
 k-point  6 :   0.1667 0.1667 0.0000  plane waves:   28108
 k-point  7 :   0.3333 0.1667 0.0000  plane waves:   28137
 k-point  8 :   0.5000 0.1667 0.0000  plane waves:   28145
 k-point  9 :  -0.3333 0.1667 0.0000  plane waves:   28122
 k-point 10 :  -0.1667 0.1667 0.0000  plane waves:   28069
 k-point 11 :   0.0000 0.3333 0.0000  plane waves:   28153
 k-point 12 :   0.1667 0.3333 0.0000  plane waves:   28137
 k-point 13 :   0.3333 0.3333 0.0000  plane waves:   28136
 k-point 14 :   0.5000 0.3333 0.0000  plane waves:   28143
 k-point 15 :  -0.3333 0.3333 0.0000  plane waves:   28159
 k-point 16 :  -0.1667 0.3333 0.0000  plane waves:   28122
 k-point 17 :   0.0000 0.5000 0.0000  plane waves:   28162
 k-point 18 :   0.1667 0.5000 0.0000  plane waves:   28145
 k-point 19 :   0.3333 0.5000 0.0000  plane waves:   28143
 k-point 20 :   0.5000 0.5000 0.0000  plane waves:   28164
 k-point 21 :   0.0000 0.0000 0.2500  plane waves:   27926
 k-point 22 :   0.1667 0.0000 0.2500  plane waves:   28081
 k-point 23 :   0.3333 0.0000 0.2500  plane waves:   28146
 k-point 24 :   0.5000 0.0000 0.2500  plane waves:   28148
 k-point 25 :  -0.3333-0.0000 0.2500  plane waves:   28146
 k-point 26 :  -0.1667-0.0000 0.2500  plane waves:   28081
 k-point 27 :   0.0000 0.1667 0.2500  plane waves:   28081
 k-point 28 :   0.1667 0.1667 0.2500  plane waves:   28089
 k-point 29 :   0.3333 0.1667 0.2500  plane waves:   28134
 k-point 30 :   0.5000 0.1667 0.2500  plane waves:   28131
 k-point 31 :  -0.3333 0.1667 0.2500  plane waves:   28092
 k-point 32 :  -0.1667 0.1667 0.2500  plane waves:   28081
 k-point 33 :   0.0000 0.3333 0.2500  plane waves:   28146
 k-point 34 :   0.1667 0.3333 0.2500  plane waves:   28134
 k-point 35 :   0.3333 0.3333 0.2500  plane waves:   28148
 k-point 36 :   0.5000 0.3333 0.2500  plane waves:   28124
 k-point 37 :  -0.3333 0.3333 0.2500  plane waves:   28150
 k-point 38 :  -0.1667 0.3333 0.2500  plane waves:   28092
 k-point 39 :   0.0000 0.5000 0.2500  plane waves:   28148
 k-point 40 :   0.1667 0.5000 0.2500  plane waves:   28131
 k-point 41 :   0.3333 0.5000 0.2500  plane waves:   28124
 k-point 42 :   0.5000 0.5000 0.2500  plane waves:   28152
 k-point 43 :  -0.3333 0.5000 0.2500  plane waves:   28124
 k-point 44 :  -0.1667 0.5000 0.2500  plane waves:   28131
 k-point 45 :   0.0000-0.3333 0.2500  plane waves:   28146
 k-point 46 :   0.1667-0.3333 0.2500  plane waves:   28092
 k-point 47 :   0.3333-0.3333 0.2500  plane waves:   28150
 k-point 48 :   0.5000-0.3333 0.2500  plane waves:   28124
 k-point 49 :  -0.3333-0.3333 0.2500  plane waves:   28148
 k-point 50 :  -0.1667-0.3333 0.2500  plane waves:   28134
 k-point 51 :   0.0000-0.1667 0.2500  plane waves:   28081
 k-point 52 :   0.1667-0.1667 0.2500  plane waves:   28081
 k-point 53 :   0.3333-0.1667 0.2500  plane waves:   28092
 k-point 54 :   0.5000-0.1667 0.2500  plane waves:   28131
 k-point 55 :  -0.3333-0.1667 0.2500  plane waves:   28134
 k-point 56 :  -0.1667-0.1667 0.2500  plane waves:   28089
 k-point 57 :   0.0000 0.0000 0.5000  plane waves:   27960
 k-point 58 :   0.1667 0.0000 0.5000  plane waves:   28060
 k-point 59 :   0.3333 0.0000 0.5000  plane waves:   28162
 k-point 60 :   0.5000 0.0000 0.5000  plane waves:   28148
 k-point 61 :   0.0000 0.1667 0.5000  plane waves:   28060
 k-point 62 :   0.1667 0.1667 0.5000  plane waves:   28106
 k-point 63 :   0.3333 0.1667 0.5000  plane waves:   28124
 k-point 64 :   0.5000 0.1667 0.5000  plane waves:   28126
 k-point 65 :  -0.3333 0.1667 0.5000  plane waves:   28098
 k-point 66 :  -0.1667 0.1667 0.5000  plane waves:   28062
 k-point 67 :   0.0000 0.3333 0.5000  plane waves:   28162
 k-point 68 :   0.1667 0.3333 0.5000  plane waves:   28124
 k-point 69 :   0.3333 0.3333 0.5000  plane waves:   28170
 k-point 70 :   0.5000 0.3333 0.5000  plane waves:   28110
 k-point 71 :  -0.3333 0.3333 0.5000  plane waves:   28146
 k-point 72 :  -0.1667 0.3333 0.5000  plane waves:   28098
 k-point 73 :   0.0000 0.5000 0.5000  plane waves:   28148
 k-point 74 :   0.1667 0.5000 0.5000  plane waves:   28126
 k-point 75 :   0.3333 0.5000 0.5000  plane waves:   28110
 k-point 76 :   0.5000 0.5000 0.5000  plane waves:   28144

 maximum and minimum number of plane-waves per node :     28170    27926

 maximum number of plane-waves:     28170
 maximum index in each direction: 
   IXMAX=   10   IYMAX=   10   IZMAX=   79
   IXMIN=  -10   IYMIN=  -10   IZMIN=  -80

 WARNING: aliasing errors must be expected set NGX to  42 to avoid them
 WARNING: aliasing errors must be expected set NGY to  42 to avoid them
 NGZ is ok and might be reduce to 320
 aliasing errors are usually negligible using standard VASP settings
 and one can safely disregard these warnings

 serial   3D FFT for wavefunctions
 parallel 3D FFT for charge:
    minimum data exchange during FFTs selected (reduces bandwidth)


 total amount of memory used by VASP on root node  1086796. kBytes
========================================================================

   base      :      30000. kBytes
   nonl-proj :     144230. kBytes
   fftplans  :      70886. kBytes
   grid      :     119014. kBytes
   one-center:         49. kBytes
   wavefun   :     722617. kBytes
 
     INWAV:  cpu time    0.00: real time    0.00
 Broyden mixing: mesh for mixing (old mesh)
   NGX = 19   NGY = 19   NGZ =159
  (NGX  = 80   NGY  = 80   NGZ  =640)
  gives a total of  57399 points

 initial charge density was supplied:
 charge density of overlapping atoms calculated
 number of electron      64.0000000 magnetization 
 keeping initial charge density in first step


--------------------------------------------------------------------------------------------------------


 Maximum index for augmentation-charges         3490 (set IRDMAX)


--------------------------------------------------------------------------------------------------------


 First call to EWALD:  gamma=   0.188
 Maximum number of real-space cells 5x 5x 1
 Maximum number of reciprocal cells 2x 2x10

 FEWALD executed in parallel
    FEWALD:  cpu time    0.00: real time    0.00


----------------------------------------- Iteration    1(   1)  ---------------------------------------


    POTLOK:  cpu time    1.24: real time    1.24
    SETDIJ:  cpu time    0.01: real time    0.01
     EDDAV:  cpu time  340.77: real time  341.34
 BZINTS: Fermi energy:  7.518683; 64.000000 electrons
         Band energy:-245.501472;  BLOECHL correction: -0.235585
       DOS:  cpu time    0.03: real time    0.03
    --------------------------------------------
      LOOP:  cpu time  342.05: real time  342.71

 eigenvalue-minimisations  :  6912
 total energy-change (2. order) : 0.6347979E+03  (-0.2432433E+04)
 number of electron      64.0000000 magnetization 
 augmentation part       64.0000000 magnetization 

 Free energy of the ion-electron system (eV)
  ---------------------------------------------------
  alpha Z        PSCENC =        24.75690598
  Ewald energy   TEWEN  =     10359.33382077
  -Hartree energ DENC   =    -12060.23053924
  -exchange      EXHF   =         0.00000000
  -V(xc)+E(xc)   XCENC  =       220.44223766
  PAW double counting   =       605.30308954     -623.71076428
  entropy T*S    EENTRO =         0.00000000
  eigenvalues    EBANDS =      -245.50147182
  atomic energy  EATOM  =      2354.40460413
  ---------------------------------------------------
  free energy    TOTEN  =       634.79788274 eV

  energy without entropy =      634.79788274  energy(sigma->0) =      634.79788274


--------------------------------------------------------------------------------------------------------




----------------------------------------- Iteration    1(   2)  ---------------------------------------


     EDDAV:  cpu time  454.13: real time  454.35
 BZINTS: Fermi energy: -2.347697; 64.000000 electrons
         Band energy:-910.800008;  BLOECHL correction: -0.005470
       DOS:  cpu time    0.03: real time    0.03
    --------------------------------------------
      LOOP:  cpu time  454.16: real time  454.48

 eigenvalue-minimisations  :  9920
 total energy-change (2. order) :-0.6652985E+03  (-0.6314916E+03)
 number of electron      64.0000000 magnetization 
 augmentation part       64.0000000 magnetization 

 Free energy of the ion-electron system (eV)
  ---------------------------------------------------
  alpha Z        PSCENC =        24.75690598
  Ewald energy   TEWEN  =     10359.33382077
  -Hartree energ DENC   =    -12060.23053924
  -exchange      EXHF   =         0.00000000
  -V(xc)+E(xc)   XCENC  =       220.44223766
  PAW double counting   =       605.30308954     -623.71076428
  entropy T*S    EENTRO =         0.00000000
  eigenvalues    EBANDS =      -910.80000766
  atomic energy  EATOM  =      2354.40460413
  ---------------------------------------------------
  free energy    TOTEN  =       -30.50065309 eV

  energy without entropy =      -30.50065309  energy(sigma->0) =      -30.50065309


--------------------------------------------------------------------------------------------------------




----------------------------------------- Iteration    1(   3)  ---------------------------------------


     EDDAV:  cpu time  366.48: real time  366.86
 BZINTS: Fermi energy: -6.236309; 64.000000 electrons
         Band energy:***********;  BLOECHL correction: -0.000002
       DOS:  cpu time    0.02: real time    0.02
    --------------------------------------------
      LOOP:  cpu time  366.49: real time  366.88

 eigenvalue-minimisations  :  7468
 total energy-change (2. order) :-0.1225672E+03  (-0.1219634E+03)
 number of electron      64.0000000 magnetization 
 augmentation part       64.0000000 magnetization 

 Free energy of the ion-electron system (eV)
  ---------------------------------------------------
  alpha Z        PSCENC =        24.75690598
  Ewald energy   TEWEN  =     10359.33382077
  -Hartree energ DENC   =    -12060.23053924
  -exchange      EXHF   =         0.00000000
  -V(xc)+E(xc)   XCENC  =       220.44223766
  PAW double counting   =       605.30308954     -623.71076428
  entropy T*S    EENTRO =         0.00000000
  eigenvalues    EBANDS =     -1033.36720964
  atomic energy  EATOM  =      2354.40460413
  ---------------------------------------------------
  free energy    TOTEN  =      -153.06785508 eV

  energy without entropy =     -153.06785508  energy(sigma->0) =     -153.06785508


--------------------------------------------------------------------------------------------------------




----------------------------------------- Iteration    1(   4)  ---------------------------------------


     EDDAV:  cpu time  392.58: real time  392.77
 BZINTS: Fermi energy: -6.348480; 64.000000 electrons
         Band energy:***********;  BLOECHL correction: -0.000000
       DOS:  cpu time    0.02: real time    0.02
    --------------------------------------------
      LOOP:  cpu time  392.59: real time  392.79

 eigenvalue-minimisations  :  7954
 total energy-change (2. order) :-0.4570762E+01  (-0.4549209E+01)
 number of electron      64.0000000 magnetization 
 augmentation part       64.0000000 magnetization 

 Free energy of the ion-electron system (eV)
  ---------------------------------------------------
  alpha Z        PSCENC =        24.75690598
  Ewald energy   TEWEN  =     10359.33382077
  -Hartree energ DENC   =    -12060.23053924
  -exchange      EXHF   =         0.00000000
  -V(xc)+E(xc)   XCENC  =       220.44223766
  PAW double counting   =       605.30308954     -623.71076428
  entropy T*S    EENTRO =         0.00000000
  eigenvalues    EBANDS =     -1037.93797205
  atomic energy  EATOM  =      2354.40460413
  ---------------------------------------------------
  free energy    TOTEN  =      -157.63861748 eV

  energy without entropy =     -157.63861748  energy(sigma->0) =     -157.63861748


--------------------------------------------------------------------------------------------------------




----------------------------------------- Iteration    1(   5)  ---------------------------------------


     EDDAV:  cpu time  395.83: real time  396.03
 BZINTS: Fermi energy: -6.350757; 64.000000 electrons
         Band energy:***********;  BLOECHL correction:  0.000000
       DOS:  cpu time    0.01: real time    0.01
    CHARGE:  cpu time   10.03: real time   10.03
    MIXING:  cpu time    0.03: real time    0.03
    --------------------------------------------
      LOOP:  cpu time  405.90: real time  406.10

 eigenvalue-minimisations  :  8696
 total energy-change (2. order) :-0.1225319E+00  (-0.1222699E+00)
 number of electron      63.9999996 magnetization 
 augmentation part        1.7045359 magnetization 

 Broyden mixing:
  rms(total) = 0.15628E+01    rms(broyden)= 0.15627E+01
  rms(prec ) = 0.15990E+01
  weight for this iteration     100.00

 Free energy of the ion-electron system (eV)
  ---------------------------------------------------
  alpha Z        PSCENC =        24.75690598
  Ewald energy   TEWEN  =     10359.33382077
  -Hartree energ DENC   =    -12060.23053924
  -exchange      EXHF   =         0.00000000
  -V(xc)+E(xc)   XCENC  =       220.44223766
  PAW double counting   =       605.30308954     -623.71076428
  entropy T*S    EENTRO =         0.00000000
  eigenvalues    EBANDS =     -1038.06050390
  atomic energy  EATOM  =      2354.40460413
  ---------------------------------------------------
  free energy    TOTEN  =      -157.76114933 eV

  energy without entropy =     -157.76114933  energy(sigma->0) =     -157.76114933


--------------------------------------------------------------------------------------------------------




----------------------------------------- Iteration    1(   6)  ---------------------------------------


    POTLOK:  cpu time    1.07: real time    1.07
    SETDIJ:  cpu time    0.01: real time    0.01
     EDDAV:  cpu time  338.05: real time  338.22
 BZINTS: Fermi energy: -5.187990; 64.000000 electrons
         Band energy:-943.631077;  BLOECHL correction:  0.000000
       DOS:  cpu time    0.01: real time    0.01
    CHARGE:  cpu time    9.83: real time    9.84
    MIXING:  cpu time    0.03: real time    0.03
    --------------------------------------------
      LOOP:  cpu time  349.01: real time  349.19

 eigenvalue-minimisations  :  7370
 total energy-change (2. order) : 0.7350658E+01  (-0.6945904E+00)
 number of electron      63.9999996 magnetization 
 augmentation part        1.6337355 magnetization 

 Broyden mixing:
  rms(total) = 0.82574E+00    rms(broyden)= 0.82573E+00
  rms(prec ) = 0.84590E+00
  weight for this iteration     100.00

 eigenvalues of (default mixing * dielectric matrix)
  average eigenvalue GAMMA=   2.0483
  2.0483

 Free energy of the ion-electron system (eV)
  ---------------------------------------------------
  alpha Z        PSCENC =        24.75690598
  Ewald energy   TEWEN  =     10359.33382077
  -Hartree energ DENC   =    -12149.82720210
  -exchange      EXHF   =         0.00000000
  -V(xc)+E(xc)   XCENC  =       224.43868127
  PAW double counting   =       822.45639817     -842.34262268
  entropy T*S    EENTRO =         0.00000000
  eigenvalues    EBANDS =      -943.63107734
  atomic energy  EATOM  =      2354.40460413
  ---------------------------------------------------
  free energy    TOTEN  =      -150.41049179 eV

  energy without entropy =     -150.41049179  energy(sigma->0) =     -150.41049179


--------------------------------------------------------------------------------------------------------




----------------------------------------- Iteration    1(   7)  ---------------------------------------


    POTLOK:  cpu time    1.08: real time    1.09
    SETDIJ:  cpu time    0.01: real time    0.01
     EDDAV:  cpu time  315.59: real time  315.74
 BZINTS: Fermi energy: -3.805483; 64.000000 electrons
         Band energy:-831.154081;  BLOECHL correction:  0.000000
       DOS:  cpu time    0.01: real time    0.01
    CHARGE:  cpu time   10.12: real time   10.13
    MIXING:  cpu time    0.03: real time    0.03
    --------------------------------------------
      LOOP:  cpu time  326.85: real time  327.01

 eigenvalue-minimisations  :  7008
 total energy-change (2. order) : 0.2816229E+01  (-0.8310226E+00)
 number of electron      63.9999997 magnetization 
 augmentation part        1.5496177 magnetization 

 Broyden mixing:
  rms(total) = 0.14745E+00    rms(broyden)= 0.14735E+00
  rms(prec ) = 0.15266E+00
  weight for this iteration     100.00

 eigenvalues of (default mixing * dielectric matrix)
  average eigenvalue GAMMA=   2.0142
  2.0142  2.0142

 Free energy of the ion-electron system (eV)
  ---------------------------------------------------
  alpha Z        PSCENC =        24.75690598
  Ewald energy   TEWEN  =     10359.33382077
  -Hartree energ DENC   =    -12263.18019688
  -exchange      EXHF   =         0.00000000
  -V(xc)+E(xc)   XCENC  =       229.37804972
  PAW double counting   =      1098.59292457    -1119.72628960
  entropy T*S    EENTRO =         0.00000000
  eigenvalues    EBANDS =      -831.15408099
  atomic energy  EATOM  =      2354.40460413
  ---------------------------------------------------
  free energy    TOTEN  =      -147.59426230 eV

  energy without entropy =     -147.59426230  energy(sigma->0) =     -147.59426230


--------------------------------------------------------------------------------------------------------




----------------------------------------- Iteration    1(   8)  ---------------------------------------


    POTLOK:  cpu time    1.09: real time    1.09
    SETDIJ:  cpu time    0.01: real time    0.01
     EDDAV:  cpu time  382.31: real time  382.51
 BZINTS: Fermi energy: -3.535059; 64.000000 electrons
         Band energy:-812.761006;  BLOECHL correction:  0.000000
       DOS:  cpu time    0.01: real time    0.01
    CHARGE:  cpu time    9.79: real time    9.80
    MIXING:  cpu time    0.03: real time    0.06
    --------------------------------------------
      LOOP:  cpu time  393.25: real time  393.49

 eigenvalue-minimisations  :  8418
 total energy-change (2. order) : 0.4300599E-01  (-0.1987672E-01)
 number of electron      63.9999997 magnetization 
 augmentation part        1.5404517 magnetization 

 Broyden mixing:
  rms(total) = 0.79170E-01    rms(broyden)= 0.79147E-01
  rms(prec ) = 0.84112E-01
  weight for this iteration     100.00

 eigenvalues of (default mixing * dielectric matrix)
  average eigenvalue GAMMA=   1.6883
  2.2572  2.2572  0.5506

 Free energy of the ion-electron system (eV)
  ---------------------------------------------------
  alpha Z        PSCENC =        24.75690598
  Ewald energy   TEWEN  =     10359.33382077
  -Hartree energ DENC   =    -12282.12968589
  -exchange      EXHF   =         0.00000000
  -V(xc)+E(xc)   XCENC  =       229.61044087
  PAW double counting   =      1107.69645671    -1128.46279262
  entropy T*S    EENTRO =         0.00000000
  eigenvalues    EBANDS =      -812.76100626
  atomic energy  EATOM  =      2354.40460413
  ---------------------------------------------------
  free energy    TOTEN  =      -147.55125632 eV

  energy without entropy =     -147.55125632  energy(sigma->0) =     -147.55125632


--------------------------------------------------------------------------------------------------------




----------------------------------------- Iteration    1(   9)  ---------------------------------------


    POTLOK:  cpu time    1.09: real time    1.09
    SETDIJ:  cpu time    0.01: real time    0.01
     EDDAV:  cpu time  346.00: real time  346.19
 BZINTS: Fermi energy: -3.394489; 64.000000 electrons
         Band energy:-803.406172;  BLOECHL correction:  0.000000
       DOS:  cpu time    0.01: real time    0.01
    CHARGE:  cpu time    9.74: real time    9.75
    MIXING:  cpu time    0.03: real time    0.03
    --------------------------------------------
      LOOP:  cpu time  356.90: real time  357.10

 eigenvalue-minimisations  :  7918
 total energy-change (2. order) : 0.2912156E-01  (-0.1800551E-02)
 number of electron      63.9999997 magnetization 
 augmentation part        1.5387120 magnetization 

 Broyden mixing:
  rms(total) = 0.48513E-01    rms(broyden)= 0.48503E-01
  rms(prec ) = 0.53071E-01
  weight for this iteration     100.00

 eigenvalues of (default mixing * dielectric matrix)
  average eigenvalue GAMMA=   1.3585
  2.3283  2.2097  0.4480  0.4480

 Free energy of the ion-electron system (eV)
  ---------------------------------------------------
  alpha Z        PSCENC =        24.75690598
  Ewald energy   TEWEN  =     10359.33382077
  -Hartree energ DENC   =    -12291.70584359
  -exchange      EXHF   =         0.00000000
  -V(xc)+E(xc)   XCENC  =       229.77075789
  PAW double counting   =      1112.31952586    -1132.99573385
  entropy T*S    EENTRO =         0.00000000
  eigenvalues    EBANDS =      -803.40617196
  atomic energy  EATOM  =      2354.40460413
  ---------------------------------------------------
  free energy    TOTEN  =      -147.52213476 eV

  energy without entropy =     -147.52213476  energy(sigma->0) =     -147.52213476


--------------------------------------------------------------------------------------------------------




----------------------------------------- Iteration    1(  10)  ---------------------------------------


    POTLOK:  cpu time    1.10: real time    1.10
    SETDIJ:  cpu time    0.01: real time    0.01
     EDDAV:  cpu time  396.44: real time  396.65
 BZINTS: Fermi energy: -3.361921; 64.000000 electrons
         Band energy:-800.976566;  BLOECHL correction:  0.000000
       DOS:  cpu time    0.01: real time    0.01
    CHARGE:  cpu time   11.21: real time   11.22
    MIXING:  cpu time    0.03: real time    0.03
    --------------------------------------------
      LOOP:  cpu time  408.80: real time  409.03

 eigenvalue-minimisations  :  9014
 total energy-change (2. order) : 0.4400669E-02  (-0.2837938E-03)
 number of electron      63.9999997 magnetization 
 augmentation part        1.5379428 magnetization 

 Broyden mixing:
  rms(total) = 0.39553E-01    rms(broyden)= 0.39538E-01
  rms(prec ) = 0.44178E-01
  weight for this iteration     100.00

 eigenvalues of (default mixing * dielectric matrix)
  average eigenvalue GAMMA=   1.3305
  2.4974  2.1445  0.8833  0.8833  0.2438

 Free energy of the ion-electron system (eV)
  ---------------------------------------------------
  alpha Z        PSCENC =        24.75690598
  Ewald energy   TEWEN  =     10359.33382077
  -Hartree energ DENC   =    -12294.16968597
  -exchange      EXHF   =         0.00000000
  -V(xc)+E(xc)   XCENC  =       229.80664850
  PAW double counting   =      1112.66698197    -1133.34044359
  entropy T*S    EENTRO =         0.00000000
  eigenvalues    EBANDS =      -800.97656589
  atomic energy  EATOM  =      2354.40460413
  ---------------------------------------------------
  free energy    TOTEN  =      -147.51773409 eV

  energy without entropy =     -147.51773409  energy(sigma->0) =     -147.51773409


--------------------------------------------------------------------------------------------------------




----------------------------------------- Iteration    1(  11)  ---------------------------------------


    POTLOK:  cpu time    1.12: real time    1.12
    SETDIJ:  cpu time    0.01: real time    0.01
     EDDAV:  cpu time  347.62: real time  347.80
 BZINTS: Fermi energy: -3.231064; 64.000000 electrons
         Band energy:-792.102950;  BLOECHL correction:  0.000000
       DOS:  cpu time    0.01: real time    0.01
    CHARGE:  cpu time   14.07: real time   14.08
    MIXING:  cpu time    0.03: real time    0.03
    --------------------------------------------
      LOOP:  cpu time  362.86: real time  363.06

 eigenvalue-minimisations  :  6866
 total energy-change (2. order) : 0.8172762E-02  (-0.9441046E-03)
 number of electron      63.9999997 magnetization 
 augmentation part        1.5366098 magnetization 

 Broyden mixing:
  rms(total) = 0.39761E-01    rms(broyden)= 0.39732E-01
  rms(prec ) = 0.42898E-01
  weight for this iteration     100.00

 eigenvalues of (default mixing * dielectric matrix)
  average eigenvalue GAMMA=   1.4077
  2.8648  1.9569  1.9569  0.7124  0.7124  0.2431

 Free energy of the ion-electron system (eV)
  ---------------------------------------------------
  alpha Z        PSCENC =        24.75690598
  Ewald energy   TEWEN  =     10359.33382077
  -Hartree energ DENC   =    -12303.16743448
  -exchange      EXHF   =         0.00000000
  -V(xc)+E(xc)   XCENC  =       229.93290227
  PAW double counting   =      1113.50794128    -1134.17535169
  entropy T*S    EENTRO =         0.00000000
  eigenvalues    EBANDS =      -792.10294959
  atomic energy  EATOM  =      2354.40460413
  ---------------------------------------------------
  free energy    TOTEN  =      -147.50956132 eV

  energy without entropy =     -147.50956132  energy(sigma->0) =     -147.50956132


--------------------------------------------------------------------------------------------------------




----------------------------------------- Iteration    1(  12)  ---------------------------------------


    POTLOK:  cpu time    1.13: real time    1.13
    SETDIJ:  cpu time    0.01: real time    0.01
     EDDAV:  cpu time  347.14: real time  347.33
 BZINTS: Fermi energy: -3.089721; 64.000000 electrons
         Band energy:-782.742999;  BLOECHL correction:  0.000000
       DOS:  cpu time    0.02: real time    0.02
    CHARGE:  cpu time   13.57: real time   13.58
    MIXING:  cpu time    0.04: real time    0.04
    --------------------------------------------
      LOOP:  cpu time  361.91: real time  362.11

 eigenvalue-minimisations  :  7090
 total energy-change (2. order) : 0.6711603E-02  (-0.7572130E-03)
 number of electron      63.9999997 magnetization 
 augmentation part        1.5352301 magnetization 

 Broyden mixing:
  rms(total) = 0.22699E-01    rms(broyden)= 0.22676E-01
  rms(prec ) = 0.25204E-01
  weight for this iteration     100.00

 eigenvalues of (default mixing * dielectric matrix)
  average eigenvalue GAMMA=   1.4893
  3.2875  2.5335  1.9163  1.1344  0.6546  0.6546  0.2441

 Free energy of the ion-electron system (eV)
  ---------------------------------------------------
  alpha Z        PSCENC =        24.75690598
  Ewald energy   TEWEN  =     10359.33382077
  -Hartree energ DENC   =    -12312.64348895
  -exchange      EXHF   =         0.00000000
  -V(xc)+E(xc)   XCENC  =       230.05649926
  PAW double counting   =      1114.05701039    -1134.72520280
  entropy T*S    EENTRO =         0.00000000
  eigenvalues    EBANDS =      -782.74299850
  atomic energy  EATOM  =      2354.40460413
  ---------------------------------------------------
  free energy    TOTEN  =      -147.50284972 eV

  energy without entropy =     -147.50284972  energy(sigma->0) =     -147.50284972


--------------------------------------------------------------------------------------------------------




----------------------------------------- Iteration    1(  13)  ---------------------------------------


    POTLOK:  cpu time    1.14: real time    1.14
    SETDIJ:  cpu time    0.01: real time    0.01
     EDDAV:  cpu time  332.56: real time  332.73
 BZINTS: Fermi energy: -2.943437; 64.000000 electrons
         Band energy:-773.205176;  BLOECHL correction:  0.000000
       DOS:  cpu time    0.02: real time    0.02
    CHARGE:  cpu time   16.51: real time   16.52
    MIXING:  cpu time    0.05: real time    0.05
    --------------------------------------------
      LOOP:  cpu time  350.29: real time  350.48

 eigenvalue-minimisations  :  6938
 total energy-change (2. order) :-0.1200707E-02  (-0.2846397E-03)
 number of electron      63.9999997 magnetization 
 augmentation part        1.5347745 magnetization 

 Broyden mixing:
  rms(total) = 0.30569E-01    rms(broyden)= 0.30549E-01
  rms(prec ) = 0.31687E-01
  weight for this iteration     100.00

 eigenvalues of (default mixing * dielectric matrix)
  average eigenvalue GAMMA=   1.5006
  4.0465  2.5002  1.9785  1.1246  0.7237  0.6933  0.6933  0.2447

 Free energy of the ion-electron system (eV)
  ---------------------------------------------------
  alpha Z        PSCENC =        24.75690598
  Ewald energy   TEWEN  =     10359.33382077
  -Hartree energ DENC   =    -12322.24615295
  -exchange      EXHF   =         0.00000000
  -V(xc)+E(xc)   XCENC  =       230.11304637
  PAW double counting   =      1110.71228073    -1131.37337994
  entropy T*S    EENTRO =         0.00000000
  eigenvalues    EBANDS =      -773.20517552
  atomic energy  EATOM  =      2354.40460413
  ---------------------------------------------------
  free energy    TOTEN  =      -147.50405043 eV

  energy without entropy =     -147.50405043  energy(sigma->0) =     -147.50405043


--------------------------------------------------------------------------------------------------------




----------------------------------------- Iteration    1(  14)  ---------------------------------------


    POTLOK:  cpu time    1.45: real time    1.45
    SETDIJ:  cpu time    0.02: real time    0.02
     EDDAV:  cpu time  338.31: real time  338.49
 BZINTS: Fermi energy: -2.881145; 64.000000 electrons
         Band energy:-769.180416;  BLOECHL correction:  0.000000
       DOS:  cpu time    0.01: real time    0.01
    CHARGE:  cpu time   11.57: real time   11.58
    MIXING:  cpu time    0.04: real time    0.04
    --------------------------------------------
      LOOP:  cpu time  351.40: real time  351.59

 eigenvalue-minimisations  :  6754
 total energy-change (2. order) :-0.9124137E-03  (-0.6893614E-04)
 number of electron      63.9999997 magnetization 
 augmentation part        1.5343334 magnetization 

 Broyden mixing:
  rms(total) = 0.21051E-01    rms(broyden)= 0.21048E-01
  rms(prec ) = 0.21879E-01
  weight for this iteration     100.00

 eigenvalues of (default mixing * dielectric matrix)
  average eigenvalue GAMMA=   1.5517
  4.4499  2.5961  1.8628  1.8628  0.8588  0.8588  0.6156  0.6156  0.2448

 Free energy of the ion-electron system (eV)
  ---------------------------------------------------
  alpha Z        PSCENC =        24.75690598
  Ewald energy   TEWEN  =     10359.33382077
  -Hartree energ DENC   =    -12326.30238347
  -exchange      EXHF   =         0.00000000
  -V(xc)+E(xc)   XCENC  =       230.14356179
  PAW double counting   =      1110.68870576    -1131.34976196
  entropy T*S    EENTRO =         0.00000000
  eigenvalues    EBANDS =      -769.18041585
  atomic energy  EATOM  =      2354.40460413
  ---------------------------------------------------
  free energy    TOTEN  =      -147.50496284 eV

  energy without entropy =     -147.50496284  energy(sigma->0) =     -147.50496284


--------------------------------------------------------------------------------------------------------




----------------------------------------- Iteration    1(  15)  ---------------------------------------


    POTLOK:  cpu time    1.17: real time    1.17
    SETDIJ:  cpu time    0.01: real time    0.01
     EDDAV:  cpu time  332.03: real time  332.21
 BZINTS: Fermi energy: -2.830015; 64.000000 electrons
         Band energy:-765.888281;  BLOECHL correction:  0.000000
       DOS:  cpu time    0.01: real time    0.01
    CHARGE:  cpu time   11.64: real time   11.65
    MIXING:  cpu time    0.04: real time    0.04
    --------------------------------------------
      LOOP:  cpu time  344.91: real time  345.09

 eigenvalue-minimisations  :  7224
 total energy-change (2. order) :-0.3494845E-02  (-0.1136081E-03)
 number of electron      63.9999997 magnetization 
 augmentation part        1.5341833 magnetization 

 Broyden mixing:
  rms(total) = 0.30423E-01    rms(broyden)= 0.30393E-01
  rms(prec ) = 0.31111E-01
  weight for this iteration     100.00

 eigenvalues of (default mixing * dielectric matrix)
  average eigenvalue GAMMA=   1.7130
  5.9799  2.9124  2.4754  1.9993  1.0376  0.7105  0.6594  0.6594  0.2449  0.4512

 Free energy of the ion-electron system (eV)
  ---------------------------------------------------
  alpha Z        PSCENC =        24.75690598
  Ewald energy   TEWEN  =     10359.33382077
  -Hartree energ DENC   =    -12329.60136346
  -exchange      EXHF   =         0.00000000
  -V(xc)+E(xc)   XCENC  =       230.14609630
  PAW double counting   =      1110.51983769    -1131.18007786
  entropy T*S    EENTRO =         0.00000000
  eigenvalues    EBANDS =      -765.88828124
  atomic energy  EATOM  =      2354.40460413
  ---------------------------------------------------
  free energy    TOTEN  =      -147.50845769 eV

  energy without entropy =     -147.50845769  energy(sigma->0) =     -147.50845769


--------------------------------------------------------------------------------------------------------




----------------------------------------- Iteration    1(  16)  ---------------------------------------


    POTLOK:  cpu time    1.13: real time    1.13
    SETDIJ:  cpu time    0.01: real time    0.01
     EDDAV:  cpu time  355.61: real time  355.78
 BZINTS: Fermi energy: -2.783518; 64.000000 electrons
         Band energy:-762.888382;  BLOECHL correction:  0.000000
       DOS:  cpu time    0.01: real time    0.02
    CHARGE:  cpu time   16.65: real time   16.66
    MIXING:  cpu time    0.06: real time    0.06
    --------------------------------------------
      LOOP:  cpu time  373.48: real time  373.66

 eigenvalue-minimisations  :  6900
 total energy-change (2. order) :-0.2093432E-02  (-0.2229057E-04)
 number of electron      63.9999997 magnetization 
 augmentation part        1.5340629 magnetization 

 Broyden mixing:
  rms(total) = 0.27808E-01    rms(broyden)= 0.27807E-01
  rms(prec ) = 0.28380E-01
  weight for this iteration     100.00

 eigenvalues of (default mixing * dielectric matrix)
  average eigenvalue GAMMA=   1.8285
  6.5192  3.1974  2.3103  2.0352  2.0352  1.0480  0.8996  0.2448  0.6028  0.6028
  0.6180

 Free energy of the ion-electron system (eV)
  ---------------------------------------------------
  alpha Z        PSCENC =        24.75690598
  Ewald energy   TEWEN  =     10359.33382077
  -Hartree energ DENC   =    -12332.61181905
  -exchange      EXHF   =         0.00000000
  -V(xc)+E(xc)   XCENC  =       230.15459127
  PAW double counting   =      1110.63757067    -1131.29784260
  entropy T*S    EENTRO =         0.00000000
  eigenvalues    EBANDS =      -762.88838229
  atomic energy  EATOM  =      2354.40460413
  ---------------------------------------------------
  free energy    TOTEN  =      -147.51055112 eV

  energy without entropy =     -147.51055112  energy(sigma->0) =     -147.51055112


--------------------------------------------------------------------------------------------------------




----------------------------------------- Iteration    1(  17)  ---------------------------------------


    POTLOK:  cpu time    1.46: real time    1.46
    SETDIJ:  cpu time    0.01: real time    0.01
     EDDAV:  cpu time  361.26: real time  361.44
 BZINTS: Fermi energy: -2.763383; 64.000000 electrons
         Band energy:-761.604647;  BLOECHL correction:  0.000000
       DOS:  cpu time    0.01: real time    0.01
    CHARGE:  cpu time   11.59: real time   11.59
    MIXING:  cpu time    0.04: real time    0.04
    --------------------------------------------
      LOOP:  cpu time  374.38: real time  374.57

 eigenvalue-minimisations  :  7460
 total energy-change (2. order) :-0.2986984E-02  (-0.1200242E-03)
 number of electron      63.9999997 magnetization 
 augmentation part        1.5339492 magnetization 

 Broyden mixing:
  rms(total) = 0.22684E-01    rms(broyden)= 0.22649E-01
  rms(prec ) = 0.23104E-01
  weight for this iteration     100.00

 eigenvalues of (default mixing * dielectric matrix)
  average eigenvalue GAMMA=   1.8839
  7.2533  3.7897  2.5743  2.1559  1.9847  0.9598  0.9195  0.9195  0.2448  0.5952
  0.5952  0.6153

 Free energy of the ion-electron system (eV)
  ---------------------------------------------------
  alpha Z        PSCENC =        24.75690598
  Ewald energy   TEWEN  =     10359.33382077
  -Hartree energ DENC   =    -12333.89811671
  -exchange      EXHF   =         0.00000000
  -V(xc)+E(xc)   XCENC  =       230.15586349
  PAW double counting   =      1110.77387629    -1131.43584550
  entropy T*S    EENTRO =         0.00000000
  eigenvalues    EBANDS =      -761.60464655
  atomic energy  EATOM  =      2354.40460413
  ---------------------------------------------------
  free energy    TOTEN  =      -147.51353810 eV

  energy without entropy =     -147.51353810  energy(sigma->0) =     -147.51353810


--------------------------------------------------------------------------------------------------------




----------------------------------------- Iteration    1(  18)  ---------------------------------------


    POTLOK:  cpu time    1.15: real time    1.15
    SETDIJ:  cpu time    0.22: real time    0.22
     EDDAV:  cpu time  350.08: real time  350.25
 BZINTS: Fermi energy: -2.756436; 64.000000 electrons
         Band energy:-761.164067;  BLOECHL correction:  0.000000
       DOS:  cpu time    0.01: real time    0.01
    CHARGE:  cpu time   18.65: real time   18.66
    MIXING:  cpu time    0.06: real time    0.06
    --------------------------------------------
      LOOP:  cpu time  370.17: real time  370.35

 eigenvalue-minimisations  :  6840
 total energy-change (2. order) :-0.9788673E-03  (-0.1712547E-04)
 number of electron      63.9999997 magnetization 
 augmentation part        1.5339622 magnetization 

 Broyden mixing:
  rms(total) = 0.12197E-01    rms(broyden)= 0.12192E-01
  rms(prec ) = 0.12437E-01
  weight for this iteration     100.00

 eigenvalues of (default mixing * dielectric matrix)
  average eigenvalue GAMMA=   1.8613
  7.4283  3.8594  2.6040  2.2496  2.0839  0.9701  0.9701  1.0231  1.0231  0.6003
  0.6003  0.2448  0.5403

 Free energy of the ion-electron system (eV)
  ---------------------------------------------------
  alpha Z        PSCENC =        24.75690598
  Ewald energy   TEWEN  =     10359.33382077
  -Hartree energ DENC   =    -12334.33859887
  -exchange      EXHF   =         0.00000000
  -V(xc)+E(xc)   XCENC  =       230.15318768
  PAW double counting   =      1110.79181917    -1131.45218868
  entropy T*S    EENTRO =         0.00000000
  eigenvalues    EBANDS =      -761.16406715
  atomic energy  EATOM  =      2354.40460413
  ---------------------------------------------------
  free energy    TOTEN  =      -147.51451697 eV

  energy without entropy =     -147.51451697  energy(sigma->0) =     -147.51451697


--------------------------------------------------------------------------------------------------------




----------------------------------------- Iteration    1(  19)  ---------------------------------------


    POTLOK:  cpu time    1.41: real time    1.41
    SETDIJ:  cpu time    0.03: real time    0.03
     EDDAV:  cpu time  364.91: real time  365.09
 BZINTS: Fermi energy: -2.753712; 64.000000 electrons
         Band energy:-760.987180;  BLOECHL correction:  0.000000
       DOS:  cpu time    0.01: real time    0.01
    CHARGE:  cpu time   12.03: real time   12.04
    MIXING:  cpu time    0.04: real time    0.04
    --------------------------------------------
      LOOP:  cpu time  378.43: real time  378.62

 eigenvalue-minimisations  :  6788
 total energy-change (2. order) :-0.4277700E-03  (-0.4373432E-05)
 number of electron      63.9999997 magnetization 
 augmentation part        1.5339425 magnetization 

 Broyden mixing:
  rms(total) = 0.20534E-01    rms(broyden)= 0.20532E-01
  rms(prec ) = 0.20930E-01
  weight for this iteration     100.00

 eigenvalues of (default mixing * dielectric matrix)
  average eigenvalue GAMMA=   1.8590
  7.8510  4.2852  2.6443  2.2112  2.0024  1.2160  1.2160  0.9362  0.8504  0.8504
  0.2448  0.5922  0.5922  0.5341

 Free energy of the ion-electron system (eV)
  ---------------------------------------------------
  alpha Z        PSCENC =        24.75690598
  Ewald energy   TEWEN  =     10359.33382077
  -Hartree energ DENC   =    -12334.51648872
  -exchange      EXHF   =         0.00000000
  -V(xc)+E(xc)   XCENC  =       230.15396738
  PAW double counting   =      1110.79002797    -1131.45060267
  entropy T*S    EENTRO =         0.00000000
  eigenvalues    EBANDS =      -760.98717959
  atomic energy  EATOM  =      2354.40460413
  ---------------------------------------------------
  free energy    TOTEN  =      -147.51494474 eV

  energy without entropy =     -147.51494474  energy(sigma->0) =     -147.51494474


--------------------------------------------------------------------------------------------------------




----------------------------------------- Iteration    1(  20)  ---------------------------------------


    POTLOK:  cpu time    1.11: real time    1.11
    SETDIJ:  cpu time    0.01: real time    0.01
     EDDAV:  cpu time  361.23: real time  361.40
 BZINTS: Fermi energy: -2.751622; 64.000000 electrons
         Band energy:-760.854126;  BLOECHL correction:  0.000000
       DOS:  cpu time    0.01: real time    0.01
    CHARGE:  cpu time   10.24: real time   10.24
    MIXING:  cpu time    0.04: real time    0.05
    --------------------------------------------
      LOOP:  cpu time  372.64: real time  372.83

 eigenvalue-minimisations  :  7262
 total energy-change (2. order) :-0.8715723E-04  (-0.5811685E-05)
 number of electron      63.9999997 magnetization 
 augmentation part        1.5339561 magnetization 

 Broyden mixing:
  rms(total) = 0.57282E-02    rms(broyden)= 0.56894E-02
  rms(prec ) = 0.58054E-02
  weight for this iteration     100.00

 eigenvalues of (default mixing * dielectric matrix)
  average eigenvalue GAMMA=   1.8043
  7.9493  4.3644  2.5981  2.1138  1.7366  1.7366  1.4653  0.9577  0.9368  0.9368
  0.5970  0.5970  0.5565  0.2448  0.2745

 Free energy of the ion-electron system (eV)
  ---------------------------------------------------
  alpha Z        PSCENC =        24.75690598
  Ewald energy   TEWEN  =     10359.33382077
  -Hartree energ DENC   =    -12334.64913324
  -exchange      EXHF   =         0.00000000
  -V(xc)+E(xc)   XCENC  =       230.15268556
  PAW double counting   =      1110.76173135    -1131.42152064
  entropy T*S    EENTRO =         0.00000000
  eigenvalues    EBANDS =      -760.85412582
  atomic energy  EATOM  =      2354.40460413
  ---------------------------------------------------
  free energy    TOTEN  =      -147.51503190 eV

  energy without entropy =     -147.51503190  energy(sigma->0) =     -147.51503190


--------------------------------------------------------------------------------------------------------




----------------------------------------- Iteration    1(  21)  ---------------------------------------


    POTLOK:  cpu time    1.10: real time    1.11
    SETDIJ:  cpu time    0.01: real time    0.01
     EDDAV:  cpu time  322.96: real time  323.12
 BZINTS: Fermi energy: -2.750921; 64.000000 electrons
         Band energy:-760.809970;  BLOECHL correction:  0.000000
       DOS:  cpu time    0.01: real time    0.01
    CHARGE:  cpu time   13.59: real time   13.60
    MIXING:  cpu time    0.07: real time    0.07
    --------------------------------------------
      LOOP:  cpu time  337.76: real time  337.92

 eigenvalue-minimisations  :  6970
 total energy-change (2. order) :-0.2106451E-03  (-0.2285034E-05)
 number of electron      63.9999997 magnetization 
 augmentation part        1.5339657 magnetization 

 Broyden mixing:
  rms(total) = 0.17114E-01    rms(broyden)= 0.17105E-01
  rms(prec ) = 0.17434E-01
  weight for this iteration     100.00

 eigenvalues of (default mixing * dielectric matrix)
  average eigenvalue GAMMA=   1.8156
  8.2157  4.6435  2.7893  2.3990  1.9750  1.4746  1.4746  1.2020  1.0270  0.2448
  0.7550  0.7550  0.5916  0.5916  0.5394  0.3724

 Free energy of the ion-electron system (eV)
  ---------------------------------------------------
  alpha Z        PSCENC =        24.75690598
  Ewald energy   TEWEN  =     10359.33382077
  -Hartree energ DENC   =    -12334.69296549
  -exchange      EXHF   =         0.00000000
  -V(xc)+E(xc)   XCENC  =       230.15184983
  PAW double counting   =      1110.72346286    -1131.38295025
  entropy T*S    EENTRO =         0.00000000
  eigenvalues    EBANDS =      -760.80997037
  atomic energy  EATOM  =      2354.40460413
  ---------------------------------------------------
  free energy    TOTEN  =      -147.51524254 eV

  energy without entropy =     -147.51524254  energy(sigma->0) =     -147.51524254


--------------------------------------------------------------------------------------------------------




----------------------------------------- Iteration    1(  22)  ---------------------------------------


    POTLOK:  cpu time    1.47: real time    1.47
    SETDIJ:  cpu time    0.03: real time    0.03
     EDDAV:  cpu time  349.03: real time  349.20
 BZINTS: Fermi energy: -2.749694; 64.000000 electrons
         Band energy:-760.731043;  BLOECHL correction:  0.000000
       DOS:  cpu time    0.01: real time    0.01
    CHARGE:  cpu time   11.66: real time   11.66
    MIXING:  cpu time    0.05: real time    0.05
    --------------------------------------------
      LOOP:  cpu time  362.24: real time  362.42

 eigenvalue-minimisations  :  7008
 total energy-change (2. order) :-0.5044078E-04  (-0.4434784E-05)
 number of electron      63.9999997 magnetization 
 augmentation part        1.5339492 magnetization 

 Broyden mixing:
  rms(total) = 0.14970E-01    rms(broyden)= 0.14946E-01
  rms(prec ) = 0.15234E-01
  weight for this iteration     100.00

 eigenvalues of (default mixing * dielectric matrix)
  average eigenvalue GAMMA=   1.8552
  8.3924  4.7876  2.7036  2.4064  2.4064  1.9679  1.9679  1.0895  1.0895  0.9736
  0.9044  0.5993  0.5993  0.2448  0.5848  0.4773  0.3434

 Free energy of the ion-electron system (eV)
  ---------------------------------------------------
  alpha Z        PSCENC =        24.75690598
  Ewald energy   TEWEN  =     10359.33382077
  -Hartree energ DENC   =    -12334.77273776
  -exchange      EXHF   =         0.00000000
  -V(xc)+E(xc)   XCENC  =       230.15297345
  PAW double counting   =      1110.74158553    -1131.40140208
  entropy T*S    EENTRO =         0.00000000
  eigenvalues    EBANDS =      -760.73104301
  atomic energy  EATOM  =      2354.40460413
  ---------------------------------------------------
  free energy    TOTEN  =      -147.51529298 eV

  energy without entropy =     -147.51529298  energy(sigma->0) =     -147.51529298


--------------------------------------------------------------------------------------------------------




----------------------------------------- Iteration    1(  23)  ---------------------------------------


    POTLOK:  cpu time    1.19: real time    1.19
    SETDIJ:  cpu time    0.01: real time    0.01
     EDDAV:  cpu time  345.52: real time  345.69
 BZINTS: Fermi energy: -2.748969; 64.000000 electrons
         Band energy:-760.683678;  BLOECHL correction: -0.000001
       DOS:  cpu time    0.01: real time    0.01
    CHARGE:  cpu time   10.25: real time   10.25
    MIXING:  cpu time    0.05: real time    0.05
    --------------------------------------------
      LOOP:  cpu time  357.04: real time  357.22

 eigenvalue-minimisations  :  6800
 total energy-change (2. order) :-0.2964573E-04  (-0.1231172E-05)
 number of electron      63.9999997 magnetization 
 augmentation part        1.5339499 magnetization 

 Broyden mixing:
  rms(total) = 0.29958E-02    rms(broyden)= 0.29873E-02
  rms(prec ) = 0.30498E-02
  weight for this iteration     100.00

 eigenvalues of (default mixing * dielectric matrix)
  average eigenvalue GAMMA=   1.8221
  8.4231  4.9636  2.8076  2.8076  2.5954  1.9523  1.7141  1.0794  1.0794  0.9743
  0.8220  0.8220  0.5976  0.5976  0.2448  0.5537  0.3820  0.3820

 Free energy of the ion-electron system (eV)
  ---------------------------------------------------
  alpha Z        PSCENC =        24.75690598
  Ewald energy   TEWEN  =     10359.33382077
  -Hartree energ DENC   =    -12334.81992825
  -exchange      EXHF   =         0.00000000
  -V(xc)+E(xc)   XCENC  =       230.15274683
  PAW double counting   =      1110.73404863    -1131.39384269
  entropy T*S    EENTRO =         0.00000000
  eigenvalues    EBANDS =      -760.68367803
  atomic energy  EATOM  =      2354.40460413
  ---------------------------------------------------
  free energy    TOTEN  =      -147.51532263 eV

  energy without entropy =     -147.51532263  energy(sigma->0) =     -147.51532263


[...]
     31      -4.0985      2.00000
     32      -4.0976      2.00000
     33      -1.4503      0.00000
     34      -1.4492      0.00000
     35       1.6821      0.00000
     36       1.6825      0.00000
     37       2.0803      0.00000
     38       2.0806      0.00000
     39       2.8607      0.00000
     40       2.8612      0.00000
     41       3.1634      0.00000
     42       3.1655      0.00000

 k-point    71 :      -0.3333    0.3333    0.5000
  band No.  band energies     occupation 
      1     -21.6071      2.00000
      2     -21.6071      2.00000
      3     -19.6785      2.00000
      4     -19.6784      2.00000
      5     -17.8268      2.00000
      6     -17.8257      2.00000
      7     -17.8257      2.00000
      8     -17.8242      2.00000
      9     -14.1441      2.00000
     10     -14.1429      2.00000
     11     -14.1429      2.00000
     12     -14.1412      2.00000
     13     -12.3820      2.00000
     14     -12.3813      2.00000
     15     -10.7926      2.00000
     16     -10.7909      2.00000
     17     -10.7909      2.00000
     18     -10.7901      2.00000
     19      -9.5852      2.00000
     20      -9.5851      2.00000
     21      -8.5048      2.00000
     22      -8.5033      2.00000
     23      -8.0811      2.00000
     24      -8.0792      2.00000
     25      -7.3714      2.00000
     26      -7.3708      2.00000
     27      -6.8937      2.00000
     28      -6.8915      2.00000
     29      -5.3992      2.00000
     30      -5.3971      2.00000
     31      -5.3971      2.00000
     32      -5.3960      2.00000
     33      -0.2283      0.00000
     34      -0.2276      0.00000
     35      -0.2276      0.00000
     36      -0.2250      0.00000
     37       1.4126      0.00000
     38       1.4126      0.00000
     39       2.1524      0.00000
     40       2.1540      0.00000
     41       2.1860      0.00000
     42       2.1865      0.00000

 k-point    72 :      -0.1667    0.3333    0.5000
  band No.  band energies     occupation 
      1     -21.7699      2.00000
      2     -21.7699      2.00000
      3     -18.8962      2.00000
      4     -18.8955      2.00000
      5     -18.8902      2.00000
      6     -18.8895      2.00000
      7     -16.5962      2.00000
      8     -16.5940      2.00000
      9     -15.5754      2.00000
     10     -15.5730      2.00000
     11     -13.3819      2.00000
     12     -13.3807      2.00000
     13     -13.3685      2.00000
     14     -13.3671      2.00000
     15     -10.9763      2.00000
     16     -10.9761      2.00000
     17      -9.7779      2.00000
     18      -9.7778      2.00000
     19      -9.3178      2.00000
     20      -9.3168      2.00000
     21      -9.2970      2.00000
     22      -9.2953      2.00000
     23      -7.4680      2.00000
     24      -7.4673      2.00000
     25      -6.7869      2.00000
     26      -6.7865      2.00000
     27      -6.5220      2.00000
     28      -6.5217      2.00000
     29      -6.5173      2.00000
     30      -6.5167      2.00000
     31      -4.5082      2.00000
     32      -4.5073      2.00000
     33      -1.2930      0.00000
     34      -1.2917      0.00000
     35       0.9654      0.00000
     36       0.9680      0.00000
     37       0.9757      0.00000
     38       0.9760      0.00000
     39       1.1906      0.00000
     40       1.1918      0.00000
     41       1.9611      0.00000
     42       1.9616      0.00000

 k-point    73 :       0.0000    0.5000    0.5000
  band No.  band energies     occupation 
      1     -20.7947      2.00000
      2     -20.7947      2.00000
      3     -20.7947      2.00000
      4     -20.7946      2.00000
      5     -17.9804      2.00000
      6     -17.9787      2.00000
      7     -17.9787      2.00000
      8     -17.9764      2.00000
      9     -13.2762      2.00000
     10     -13.2714      2.00000
     11     -13.2714      2.00000
     12     -13.2704      2.00000
     13     -11.6894      2.00000
     14     -11.6894      2.00000
     15     -11.6885      2.00000
     16     -11.6865      2.00000
     17     -10.1613      2.00000
     18     -10.1613      2.00000
     19     -10.1602      2.00000
     20     -10.1601      2.00000
     21      -8.6347      2.00000
     22      -8.6347      2.00000
     23      -8.6346      2.00000
     24      -8.6346      2.00000
     25      -7.7939      2.00000
     26      -7.7938      2.00000
     27      -7.7928      2.00000
     28      -7.7928      2.00000
     29      -5.4871      2.00000
     30      -5.4852      2.00000
     31      -5.4852      2.00000
     32      -5.4827      2.00000
     33       0.0642      0.00000
     34       0.0679      0.00000
     35       0.0679      0.00000
     36       0.0701      0.00000
     37       2.5253      0.00000
     38       2.5254      0.00000
     39       2.5254      0.00000
     40       2.5255      0.00000
     41       3.3024      0.00000
     42       3.3027      0.00000

 k-point    74 :       0.1667    0.5000    0.5000
  band No.  band energies     occupation 
      1     -21.1191      2.00000
      2     -21.1191      2.00000
      3     -20.1517      2.00000
      4     -20.1517      2.00000
      5     -19.2072      2.00000
      6     -19.2072      2.00000
      7     -16.5565      2.00000
      8     -16.5555      2.00000
      9     -14.6886      2.00000
     10     -14.6868      2.00000
     11     -12.4039      2.00000
     12     -12.4029      2.00000
     13     -12.2426      2.00000
     14     -12.2410      2.00000
     15     -11.2436      2.00000
     16     -11.2425      2.00000
     17     -10.1992      2.00000
     18     -10.1973      2.00000
     19      -9.1703      2.00000
     20      -9.1695      2.00000
     21      -9.0109      2.00000
     22      -9.0108      2.00000
     23      -8.6831      2.00000
     24      -8.6821      2.00000
     25      -7.8952      2.00000
     26      -7.8951      2.00000
     27      -7.7947      2.00000
     28      -7.7941      2.00000
     29      -6.8259      2.00000
     30      -6.8254      2.00000
     31      -4.1010      2.00000
     32      -4.1007      2.00000
     33      -1.4487      0.00000
     34      -1.4485      0.00000
     35       1.6764      0.00000
     36       1.6780      0.00000
     37       2.0812      0.00000
     38       2.0815      0.00000
     39       2.8616      0.00000
     40       2.8621      0.00000
     41       3.1721      0.00000
     42       3.1726      0.00000

 k-point    75 :       0.3333    0.5000    0.5000
  band No.  band energies     occupation 
      1     -21.1198      2.00000
      2     -21.1198      2.00000
      3     -20.1552      2.00000
      4     -20.1552      2.00000
      5     -19.2025      2.00000
      6     -19.2024      2.00000
      7     -16.5508      2.00000
      8     -16.5501      2.00000
      9     -14.6918      2.00000
     10     -14.6910      2.00000
     11     -12.4054      2.00000
     12     -12.4052      2.00000
     13     -12.2302      2.00000
     14     -12.2292      2.00000
     15     -11.2594      2.00000
     16     -11.2581      2.00000
     17     -10.2159      2.00000
     18     -10.2148      2.00000
     19      -9.1845      2.00000
     20      -9.1837      2.00000
     21      -9.0116      2.00000
     22      -9.0114      2.00000
     23      -8.6633      2.00000
     24      -8.6615      2.00000
     25      -7.8983      2.00000
     26      -7.8980      2.00000
     27      -7.7792      2.00000
     28      -7.7780      2.00000
     29      -6.8219      2.00000
     30      -6.8218      2.00000
     31      -4.0987      2.00000
     32      -4.0976      2.00000
     33      -1.4503      0.00000
     34      -1.4489      0.00000
     35       1.6821      0.00000
     36       1.6824      0.00000
     37       2.0803      0.00000
     38       2.0806      0.00000
     39       2.8607      0.00000
     40       2.8612      0.00000
     41       3.1635      0.00000
     42       3.1655      0.00000

 k-point    76 :       0.5000    0.5000    0.5000
  band No.  band energies     occupation 
      1     -20.7988      2.00000
      2     -20.7968      2.00000
      3     -20.7968      2.00000
      4     -20.7948      2.00000
      5     -17.9739      2.00000
      6     -17.9729      2.00000
      7     -17.9729      2.00000
      8     -17.9714      2.00000
      9     -13.2692      2.00000
     10     -13.2683      2.00000
     11     -13.2683      2.00000
     12     -13.2662      2.00000
     13     -11.6999      2.00000
     14     -11.6983      2.00000
     15     -11.6983      2.00000
     16     -11.6981      2.00000
     17     -10.1816      2.00000
     18     -10.1782      2.00000
     19     -10.1782      2.00000
     20     -10.1773      2.00000
     21      -8.6381      2.00000
     22      -8.6367      2.00000
     23      -8.6367      2.00000
     24      -8.6347      2.00000
     25      -7.7742      2.00000
     26      -7.7725      2.00000
     27      -7.7725      2.00000
     28      -7.7672      2.00000
     29      -5.4828      2.00000
     30      -5.4807      2.00000
     31      -5.4807      2.00000
     32      -5.4796      2.00000
     33       0.0676      0.00000
     34       0.0683      0.00000
     35       0.0683      0.00000
     36       0.0711      0.00000
     37       2.5226      0.00000
     38       2.5227      0.00000
     39       2.5228      0.00000
     40       2.5229      0.00000
     41       3.2996      0.00000
     42       3.2999      0.00000


--------------------------------------------------------------------------------------------------------


 soft charge-density along one line, spin component           1
         0         1         2         3         4         5         6         7         8         9
 total charge-density along one line
 
 pseudopotential strength for first ion, spin component:           1
 10.228   0.019  -0.000  -0.000   0.000   0.000   0.000  -0.000
  0.019  -0.002   0.000   0.000  -0.000   0.000   0.000  -0.000
 -0.000   0.000  -4.343   0.000   0.000  -0.018   0.000   0.000
 -0.000   0.000   0.000  -4.337   0.000   0.000  -0.015   0.000
  0.000  -0.000   0.000   0.000  -4.343   0.000   0.000  -0.018
  0.000   0.000  -0.018   0.000   0.000  -0.772   0.000   0.000
  0.000   0.000   0.000  -0.015   0.000   0.000  -0.772  -0.000
 -0.000  -0.000   0.000   0.000  -0.018   0.000  -0.000  -0.772
 total augmentation occupancy for first ion, spin component:           1
  1.468  -1.110  -0.000   0.001   0.001   0.000  -0.001   0.000
 -1.110   1.041  -0.000   0.007  -0.001  -0.000   0.002  -0.000
 -0.000  -0.000   1.224   0.000  -0.000   0.225   0.000  -0.000
  0.001   0.007   0.000   0.933  -0.000   0.000   0.103  -0.000
  0.001  -0.001  -0.000  -0.000   1.223  -0.000  -0.000   0.225
  0.000  -0.000   0.225   0.000  -0.000   0.047   0.000  -0.000
 -0.001   0.002   0.000   0.103  -0.000   0.000   0.013  -0.000
  0.000  -0.000  -0.000  -0.000   0.225  -0.000  -0.000   0.047


------------------------ aborting loop because EDIFF is reached ----------------------------------------


    CHARGE:  cpu time   15.65: real time   15.66
    FORLOC:  cpu time    0.26: real time    0.26
    FORNL :  cpu time   51.99: real time   52.01
    STRESS:  cpu time   85.92: real time   85.97
    FORHAR:  cpu time    0.50: real time    0.50
    MIXING:  cpu time    0.11: real time    0.11
    OFIELD:  cpu time    0.00: real time    0.00

 ---------------------------------------------------------------------------------------------

         DFTD3 V3.0 Rev 1        
 IVDW         = 12
 DF pbe       
 parameters
 VDW_S6       =    1.0000
 VDW_S8       =    0.7875
 VDW_A1       =    0.4289
 VDW_A2       =    4.4407
 k1-k3        =   16.0000    1.3333   -4.0000
 VDW_RADIUS   =   50.2022 A
 VDW_CNRADIUS =   21.1671 A
 Edisp (eV)   -1.41780

 E6    (eV) :    -0.9742
 E8    (eV) :    -0.4436
 % E8        : 31.29
    FORVDW:  cpu time    0.04: real time    0.10

  FORCE on cell =-STRESS in cart. coord.  units (eV):
  Direction    XX          YY          ZZ          XY          YZ          ZX
  --------------------------------------------------------------------------------------
  Alpha Z    24.75691    24.75691    24.75691
  Ewald   12510.51992 12510.28965-14661.48031    -0.46728    -0.00061    -0.00199
  Hartree 12244.33318 12244.65649-12153.94898     0.10857    -0.00002    -0.00051
  E(xc)    -233.42553  -233.41623  -242.77622     0.00175     0.00001    -0.00000
  Local  -25443.42835-25444.12320 25990.80104     0.02390    -0.00095     0.00263
  n-local   -56.27701   -56.41590   -51.25154    -0.08669    -0.00006     0.00007
  augment    -6.18894    -6.18572    -5.66927     0.00204     0.00002    -0.00001
  Kinetic   961.21617   960.20502  1099.26006    -0.21873     0.00339    -0.00177
  Fock        0.00000     0.00000     0.00000     0.00000     0.00000     0.00000
  vdW        -0.34516    -0.34258    -0.00360     0.00231     0.00000    -0.00000
  -------------------------------------------------------------------------------------
  Total       1.16120    -0.57558    -0.31191    -0.63414     0.00177    -0.00159
  in kB       2.20812    -1.09452    -0.59312    -1.20587     0.00337    -0.00302
  external pressure =        0.17 kB  Pullay stress =        0.00 kB


 VOLUME and BASIS-vectors are now :
 -----------------------------------------------------------------------------
  energy-cutoff  :      600.00
  volume of cell :      842.55
      direct lattice vectors                 reciprocal lattice vectors
     4.932874680  0.000000000  0.000000000     0.202721550  0.117251773  0.000000000
    -2.469760955  4.270074171  0.000000000     0.000000000  0.234187970  0.000000000
     0.000000000  0.000000000 40.000000000     0.000000000  0.000000000  0.025000000

  length of vectors
     4.932874680  4.932874680 40.000000000     0.234187970  0.234187970  0.025000000


 FORCES acting on ions
    electron-ion (+dipol)            ewald-force                    non-local-force                 convergence-correction
 -----------------------------------------------------------------------------------------------
   0.960E-01 0.198E+00 -.444E+01   -.200E+00 -.619E-01 0.449E+01   -.555E-01 0.440E-01 -.189E+00   0.990E-03 -.223E-02 -.642E-03
   -.241E+00 0.198E+00 0.473E+00   0.186E+00 -.625E-01 -.457E+00   -.155E-01 0.441E-01 -.249E-01   0.105E-02 -.223E-02 -.189E-03
   -.179E+00 0.234E+00 0.475E+00   0.115E+00 -.103E+00 -.457E+00   -.192E-01 0.418E-01 -.263E-01   0.101E-02 -.225E-02 -.222E-03
   -.179E+00 0.162E+00 0.476E+00   0.115E+00 -.216E-01 -.457E+00   -.191E-01 0.462E-01 -.271E-01   0.101E-02 -.221E-02 -.244E-03
   -.236E+00 0.136E+00 -.341E-01   0.108E+00 -.624E-01 0.341E-01   -.432E-01 0.249E-01 0.261E-04   -.638E-04 0.371E-04 0.184E-04
   -.236E+00 0.136E+00 -.341E-01   0.108E+00 -.624E-01 0.341E-01   -.432E-01 0.249E-01 0.260E-04   -.633E-04 0.370E-04 0.183E-04
   -.236E+00 0.136E+00 -.341E-01   0.108E+00 -.624E-01 0.341E-01   -.432E-01 0.249E-01 0.261E-04   -.635E-04 0.359E-04 0.185E-04
   -.236E+00 0.136E+00 -.341E-01   0.108E+00 -.624E-01 0.341E-01   -.432E-01 0.249E-01 0.264E-04   -.636E-04 0.363E-04 0.184E-04
   0.143E+00 -.198E+00 0.409E+00   -.810E-01 0.625E-01 -.407E+00   0.221E-01 -.440E-01 0.105E-01   -.103E-02 0.223E-02 -.235E-03
   0.254E+00 -.191E+00 0.961E+00   -.191E+00 0.540E-01 -.996E+00   0.310E-01 -.437E-01 0.867E-01   -.103E-02 0.224E-02 -.360E-03
   0.477E-01 -.317E+00 0.961E+00   0.353E-01 0.193E+00 -.994E+00   0.278E-01 -.459E-01 0.848E-01   -.103E-02 0.225E-02 -.354E-03
   0.599E-01 -.862E-01 0.964E+00   0.214E-01 -.601E-01 -.997E+00   0.285E-01 -.425E-01 0.839E-01   -.103E-02 0.223E-02 -.349E-03
   0.236E+00 -.136E+00 -.341E-01   -.108E+00 0.624E-01 0.341E-01   0.432E-01 -.249E-01 0.270E-05   0.646E-04 -.372E-04 0.184E-04
   0.236E+00 -.136E+00 -.341E-01   -.108E+00 0.624E-01 0.341E-01   0.432E-01 -.249E-01 0.252E-05   0.651E-04 -.371E-04 0.182E-04
   0.236E+00 -.136E+00 -.341E-01   -.108E+00 0.624E-01 0.341E-01   0.432E-01 -.249E-01 0.262E-05   0.647E-04 -.378E-04 0.184E-04
   0.236E+00 -.136E+00 -.341E-01   -.108E+00 0.624E-01 0.341E-01   0.432E-01 -.249E-01 0.258E-05   0.650E-04 -.375E-04 0.185E-04
 -----------------------------------------------------------------------------------------------
   0.779E-04 -.109E-03 0.372E-02   0.527E-14 -.125E-13 0.246E-14   -.781E-04 0.255E-04 -.831E-03   -.460E-04 0.192E-04 -.245E-02
 
 
 POSITION                                       TOTAL-FORCE (eV/Angst)
 -----------------------------------------------------------------------------------
      2.46524      0.00140      1.66786        -0.159054      0.177676     -0.141820
      4.93046      0.00140      1.65794        -0.070087      0.177394     -0.008289
      1.22914      2.13643      1.65794        -0.082443      0.170057     -0.008040
      3.69558      2.13643      1.65794        -0.082480      0.184976     -0.008052
      2.46402      0.00140     21.65794        -0.170839      0.098576     -0.000002
      4.93046      0.00140     21.65794        -0.170839      0.098576     -0.000002
      1.22914      2.13643     21.65794        -0.170839      0.098576     -0.000002
      3.69558      2.13643     21.65794        -0.170839      0.098576     -0.000001
     -0.00388      1.42496      1.65794         0.082976     -0.177451      0.012516
      2.46256      1.42496      1.65794         0.092643     -0.178248      0.051999
     -1.23876      3.55999      1.65794         0.109723     -0.167878      0.051331
      1.22768      3.55999      1.65794         0.108759     -0.186591      0.050464
     -0.00388      1.42496     21.65794         0.170830     -0.098559     -0.000025
      2.46256      1.42496     21.65794         0.170830     -0.098559     -0.000025
     -1.23876      3.55999     21.65794         0.170830     -0.098559     -0.000025
      1.22768      3.55999     21.65794         0.170830     -0.098559     -0.000025
 -----------------------------------------------------------------------------------
    total drift:                               -0.000046     -0.000064      0.000444


--------------------------------------------------------------------------------------------------------



  FREE ENERGIE OF THE ION-ELECTRON SYSTEM (eV)
  ---------------------------------------------------
  free  energy   TOTEN  =      -148.93324701 eV

  energy  without entropy=     -148.93324701  energy(sigma->0) =     -148.93324701
 


--------------------------------------------------------------------------------------------------------


    POTLOK:  cpu time    1.51: real time    1.51


--------------------------------------------------------------------------------------------------------


     LOOP+:  cpu time11296.54: real time11303.20
    4ORBIT:  cpu time    0.00: real time    0.00
 BZINTS: Fermi energy: -2.746383; 64.000000 electrons
         Band energy:-760.468499;  BLOECHL correction:  0.000000

 total amount of memory used by VASP on root node  1086796. kBytes
========================================================================

   base      :      30000. kBytes
   nonl-proj :     144230. kBytes
   fftplans  :      70886. kBytes
   grid      :     119014. kBytes
   one-center:         49. kBytes
   wavefun   :     722617. kBytes
 
  
  
 General timing and accounting informations for this job:
 ========================================================
  
                  Total CPU time used (sec):    11343.346
                            User time (sec):     8015.038
                          System time (sec):     3328.308
                         Elapsed time (sec):    11350.131
  
                   Maximum memory used (kb):     1231608.
                   Average memory used (kb):           0.
  
                          Minor page faults:    106927839
                          Major page faults:            9
                 Voluntary context switches:         1120
