  32  32   0   0
  0.8643287E+01  0.4932875E-09  0.4932875E-09  0.1313087E-08  0.5000000E-15
  1.000000000000000E-004
  CAR 
 graphite                                
     16.11534890    -16.78572911  301      4.86022427      1.00000000
    -16.786  0.0000E+00  0.0000E+00
    -16.676  0.0000E+00  0.0000E+00
    -16.566  0.0000E+00  0.0000E+00
    -16.457  0.0000E+00  0.0000E+00
    -16.347  0.0000E+00  0.0000E+00
    -16.237  0.0000E+00  0.0000E+00
    -16.128  0.0000E+00  0.0000E+00
    -16.018  0.0000E+00  0.0000E+00
    -15.908  0.0000E+00  0.0000E+00
    -15.799  0.0000E+00  0.0000E+00
    -15.689  0.0000E+00  0.0000E+00
    -15.579  0.0000E+00  0.0000E+00
    -15.470  0.0000E+00  0.0000E+00
    -15.360  0.0000E+00  0.0000E+00
    -15.250  0.0000E+00  0.0000E+00
    -15.141  0.0000E+00  0.0000E+00
    -15.031  0.0000E+00  0.0000E+00
    -14.921  0.0000E+00  0.0000E+00
    -14.812  0.0000E+00  0.0000E+00
    -14.702  0.8614E+00  0.2797E-01
    -14.592  0.2361E+01  0.2274E+00
    -14.483  0.3198E+01  0.5263E+00
    -14.373  0.4743E+01  0.9579E+00
    -14.263  0.4807E+01  0.1515E+01
    -14.154  0.4942E+01  0.2052E+01
    -14.044  0.4963E+01  0.2594E+01
    -13.934  0.4939E+01  0.3139E+01
    -13.825  0.4892E+01  0.3676E+01
    -13.715  0.5127E+01  0.4223E+01
    -13.605  0.6287E+01  0.4816E+01
    -13.496  0.7236E+01  0.5570E+01
    -13.386  0.7046E+01  0.6356E+01
    -13.276  0.6175E+01  0.7135E+01
    -13.167  0.2361E+01  0.7545E+01
    -13.057  0.1840E+01  0.7768E+01
    -12.947  0.2014E+01  0.7973E+01
    -12.838  0.2443E+01  0.8218E+01
    -12.728  0.3919E+01  0.8532E+01
    -12.618  0.7204E+01  0.9407E+01
    -12.509  0.7664E+01  0.1020E+02
    -12.399  0.6751E+01  0.1102E+02
    -12.289  0.4065E+01  0.1156E+02
    -12.180  0.4182E+01  0.1201E+02
    -12.070  0.4334E+01  0.1247E+02
    -11.960  0.4504E+01  0.1296E+02
    -11.851  0.4658E+01  0.1346E+02
    -11.741  0.4792E+01  0.1398E+02
    -11.631  0.5166E+01  0.1452E+02
    -11.522  0.5487E+01  0.1511E+02
    -11.412  0.6242E+01  0.1574E+02
    -11.302  0.5953E+01  0.1641E+02
    -11.193  0.5646E+01  0.1705E+02
    -11.083  0.5574E+01  0.1766E+02
    -10.973  0.5744E+01  0.1828E+02
    -10.864  0.5914E+01  0.1892E+02
    -10.754  0.5978E+01  0.1958E+02
    -10.644  0.5738E+01  0.2021E+02
    -10.535  0.5636E+01  0.2084E+02
    -10.425  0.5463E+01  0.2145E+02
    -10.315  0.4308E+01  0.2199E+02
    -10.206  0.3816E+01  0.2242E+02
    -10.096  0.4664E+01  0.2289E+02
     -9.986  0.4983E+01  0.2342E+02
     -9.877  0.5321E+01  0.2398E+02
     -9.767  0.7068E+01  0.2468E+02
     -9.657  0.1021E+02  0.2560E+02
     -9.547  0.9496E+01  0.2676E+02
     -9.438  0.7124E+01  0.2767E+02
     -9.328  0.5122E+01  0.2834E+02
     -9.218  0.4500E+01  0.2886E+02
     -9.109  0.3997E+01  0.2932E+02
     -8.999  0.7941E+01  0.2984E+02
     -8.889  0.4999E+01  0.3044E+02
     -8.780  0.2034E+01  0.3092E+02
     -8.670  0.1823E+01  0.3113E+02
     -8.560  0.1612E+01  0.3132E+02
     -8.451  0.1402E+01  0.3149E+02
     -8.341  0.1246E+01  0.3163E+02
     -8.231  0.1657E+01  0.3179E+02
     -8.122  0.2159E+01  0.3200E+02
     -8.012  0.2662E+01  0.3226E+02
     -7.902  0.4278E+01  0.3260E+02
     -7.793  0.9678E+01  0.3335E+02
     -7.683  0.5917E+01  0.3434E+02
     -7.573  0.5110E+01  0.3490E+02
     -7.464  0.6005E+01  0.3550E+02
     -7.354  0.7207E+01  0.3622E+02
     -7.244  0.8410E+01  0.3708E+02
     -7.135  0.9612E+01  0.3806E+02
     -7.025  0.7600E+01  0.3902E+02
     -6.915  0.5594E+01  0.3971E+02
     -6.806  0.5566E+01  0.4032E+02
     -6.696  0.5565E+01  0.4093E+02
     -6.586  0.5407E+01  0.4154E+02
     -6.477  0.5223E+01  0.4212E+02
     -6.367  0.5072E+01  0.4268E+02
     -6.257  0.4953E+01  0.4323E+02
     -6.148  0.4834E+01  0.4377E+02
     -6.038  0.4715E+01  0.4429E+02
     -5.928  0.4596E+01  0.4480E+02
     -5.819  0.4478E+01  0.4530E+02
     -5.709  0.4356E+01  0.4579E+02
     -5.599  0.4641E+01  0.4627E+02
     -5.490  0.5270E+01  0.4681E+02
     -5.380  0.5873E+01  0.4742E+02
     -5.270  0.6477E+01  0.4810E+02
     -5.161  0.7081E+01  0.4884E+02
     -5.051  0.7684E+01  0.4965E+02
     -4.941  0.8288E+01  0.5053E+02
     -4.832  0.8892E+01  0.5147E+02
     -4.722  0.5670E+01  0.5229E+02
     -4.612  0.5422E+01  0.5280E+02
     -4.503  0.7228E+01  0.5351E+02
     -4.393  0.5716E+01  0.5422E+02
     -4.283  0.4204E+01  0.5476E+02
     -4.174  0.2692E+01  0.5514E+02
     -4.064  0.1192E+01  0.5535E+02
     -3.954  0.1934E+01  0.5550E+02
     -3.845  0.3501E+01  0.5579E+02
     -3.735  0.5067E+01  0.5626E+02
     -3.625  0.8266E+01  0.5695E+02
     -3.516  0.1255E+02  0.5807E+02
     -3.406  0.1302E+02  0.5947E+02
     -3.296  0.1227E+02  0.6088E+02
     -3.187  0.6156E+01  0.6194E+02
     -3.077  0.5122E+01  0.6247E+02
     -2.967  0.6088E+01  0.6309E+02
     -2.858  0.6998E+01  0.6381E+02
     -2.748  0.1146E+02  0.6477E+02
     -2.638  0.1732E+02  0.6635E+02
     -2.529  0.1827E+02  0.6860E+02
     -2.419  0.7171E+01  0.6955E+02
     -2.309  0.7432E+01  0.7035E+02
     -2.200  0.7617E+01  0.7117E+02
     -2.090  0.8138E+01  0.7204E+02
     -1.980  0.1031E+02  0.7303E+02
     -1.871  0.1453E+02  0.7464E+02
     -1.761  0.1143E+02  0.7605E+02
     -1.651  0.9835E+01  0.7720E+02
     -1.542  0.3157E+02  0.7900E+02
     -1.432  0.1819E+02  0.8180E+02
     -1.322  0.1795E+02  0.8394E+02
     -1.213  0.1494E+02  0.8556E+02
     -1.103  0.1688E+02  0.8731E+02
     -0.993  0.1185E+02  0.8902E+02
     -0.884  0.7411E+01  0.9004E+02
     -0.774  0.6598E+01  0.9076E+02
     -0.664  0.7559E+01  0.9154E+02
     -0.555  0.8494E+01  0.9242E+02
     -0.445  0.9851E+01  0.9342E+02
     -0.335  0.1103E+02  0.9457E+02
     -0.226  0.1156E+02  0.9582E+02
     -0.116  0.2341E+02  0.9745E+02
     -0.006  0.1286E+02  0.9890E+02
      0.103  0.1232E+02  0.1003E+03
      0.213  0.1028E+02  0.1016E+03
      0.323  0.9026E+01  0.1026E+03
      0.433  0.9807E+01  0.1036E+03
      0.542  0.9035E+01  0.1046E+03
      0.652  0.9761E+01  0.1057E+03
      0.762  0.9862E+01  0.1068E+03
      0.871  0.9688E+01  0.1078E+03
      0.981  0.9481E+01  0.1089E+03
      1.091  0.9380E+01  0.1099E+03
      1.200  0.9441E+01  0.1109E+03
      1.310  0.9915E+01  0.1120E+03
      1.420  0.9660E+01  0.1131E+03
      1.529  0.9484E+01  0.1141E+03
      1.639  0.1015E+02  0.1152E+03
      1.749  0.9745E+01  0.1163E+03
      1.858  0.7704E+01  0.1173E+03
      1.968  0.6652E+01  0.1181E+03
      2.078  0.5323E+01  0.1187E+03
      2.187  0.3830E+01  0.1192E+03
      2.297  0.2890E+01  0.1196E+03
      2.407  0.3412E+01  0.1199E+03
      2.516  0.4146E+01  0.1203E+03
      2.626  0.6123E+01  0.1208E+03
      2.736  0.8177E+01  0.1216E+03
      2.845  0.8425E+01  0.1225E+03
      2.955  0.8327E+01  0.1235E+03
      3.065  0.6861E+01  0.1243E+03
      3.174  0.5241E+01  0.1250E+03
      3.284  0.4140E+01  0.1255E+03
      3.394  0.3449E+01  0.1259E+03
      3.503  0.3061E+01  0.1263E+03
      3.613  0.2663E+01  0.1266E+03
      3.723  0.2296E+01  0.1269E+03
      3.832  0.1993E+01  0.1271E+03
      3.942  0.1717E+01  0.1273E+03
      4.052  0.1458E+01  0.1275E+03
      4.161  0.1206E+01  0.1276E+03
      4.271  0.9787E+00  0.1277E+03
      4.381  0.7711E+00  0.1278E+03
      4.490  0.5758E+00  0.1279E+03
      4.600  0.3910E+00  0.1280E+03
      4.710  0.2156E+00  0.1280E+03
      4.819  0.4893E-01  0.1280E+03
      4.929  0.5990E-01  0.1280E+03
      5.039  0.1846E+00  0.1280E+03
      5.148  0.3192E+00  0.1280E+03
      5.258  0.4650E+00  0.1281E+03
      5.368  0.6240E+00  0.1281E+03
      5.477  0.7971E+00  0.1282E+03
      5.587  0.9929E+00  0.1283E+03
      5.697  0.1228E+01  0.1284E+03
      5.806  0.1491E+01  0.1286E+03
      5.916  0.1754E+01  0.1288E+03
      6.026  0.2749E+01  0.1290E+03
      6.135  0.3326E+01  0.1294E+03
      6.245  0.3739E+01  0.1298E+03
      6.355  0.4946E+01  0.1302E+03
      6.464  0.9875E+01  0.1310E+03
      6.574  0.1100E+02  0.1324E+03
      6.684  0.8757E+01  0.1334E+03
      6.793  0.6908E+01  0.1343E+03
      6.903  0.5968E+01  0.1350E+03
      7.013  0.5296E+01  0.1356E+03
      7.122  0.5030E+01  0.1362E+03
      7.232  0.4527E+01  0.1367E+03
      7.342  0.3961E+01  0.1372E+03
      7.451  0.3571E+01  0.1376E+03
      7.561  0.3668E+01  0.1380E+03
      7.671  0.3992E+01  0.1384E+03
      7.780  0.4416E+01  0.1389E+03
      7.890  0.4752E+01  0.1394E+03
      8.000  0.4918E+01  0.1399E+03
      8.109  0.4714E+01  0.1405E+03
      8.219  0.4525E+01  0.1410E+03
      8.329  0.4408E+01  0.1414E+03
      8.438  0.4281E+01  0.1419E+03
      8.548  0.4183E+01  0.1424E+03
      8.658  0.4105E+01  0.1428E+03
      8.767  0.4032E+01  0.1433E+03
      8.877  0.3968E+01  0.1437E+03
      8.987  0.3706E+01  0.1442E+03
      9.096  0.3453E+01  0.1445E+03
      9.206  0.3336E+01  0.1449E+03
      9.316  0.3267E+01  0.1453E+03
      9.425  0.3204E+01  0.1456E+03
      9.535  0.3397E+01  0.1460E+03
      9.645  0.3568E+01  0.1464E+03
      9.754  0.3547E+01  0.1468E+03
      9.864  0.3575E+01  0.1472E+03
      9.974  0.3630E+01  0.1476E+03
     10.083  0.3668E+01  0.1480E+03
     10.193  0.3672E+01  0.1484E+03
     10.303  0.3625E+01  0.1488E+03
     10.412  0.3588E+01  0.1491E+03
     10.522  0.4650E+01  0.1496E+03
     10.632  0.4991E+01  0.1501E+03
     10.742  0.5260E+01  0.1507E+03
     10.851  0.5281E+01  0.1513E+03
     10.961  0.5460E+01  0.1519E+03
     11.071  0.5666E+01  0.1525E+03
     11.180  0.4338E+01  0.1530E+03
     11.290  0.4137E+01  0.1536E+03
     11.400  0.3039E+01  0.1540E+03
     11.509  0.2432E+01  0.1543E+03
     11.619  0.2446E+01  0.1546E+03
     11.729  0.2482E+01  0.1549E+03
     11.838  0.2759E+01  0.1552E+03
     11.948  0.3788E+01  0.1555E+03
     12.058  0.3288E+01  0.1559E+03
     12.167  0.5175E+01  0.1563E+03
     12.277  0.6732E+01  0.1570E+03
     12.387  0.8618E+01  0.1578E+03
     12.496  0.1062E+02  0.1589E+03
     12.606  0.1344E+02  0.1602E+03
     12.716  0.1409E+02  0.1617E+03
     12.825  0.1388E+02  0.1633E+03
     12.935  0.1131E+02  0.1647E+03
     13.045  0.9211E+01  0.1658E+03
     13.154  0.9869E+01  0.1668E+03
     13.264  0.4465E+01  0.1678E+03
     13.374  0.3025E+00  0.1679E+03
     13.483  0.2196E+00  0.1680E+03
     13.593  0.1500E+00  0.1680E+03
     13.703  0.9365E-01  0.1680E+03
     13.812  0.5050E-01  0.1680E+03
     13.922  0.2056E-01  0.1680E+03
     14.032  0.3855E-02  0.1680E+03
     14.141  0.0000E+00  0.1680E+03
     14.251  0.0000E+00  0.1680E+03
     14.361  0.0000E+00  0.1680E+03
     14.470  0.0000E+00  0.1680E+03
     14.580  0.0000E+00  0.1680E+03
     14.690  0.0000E+00  0.1680E+03
     14.799  0.0000E+00  0.1680E+03
     14.909  0.0000E+00  0.1680E+03
     15.019  0.0000E+00  0.1680E+03
     15.128  0.0000E+00  0.1680E+03
     15.238  0.0000E+00  0.1680E+03
     15.348  0.0000E+00  0.1680E+03
     15.457  0.0000E+00  0.1680E+03
     15.567  0.0000E+00  0.1680E+03
     15.677  0.0000E+00  0.1680E+03
     15.786  0.0000E+00  0.1680E+03
     15.896  0.0000E+00  0.1680E+03
     16.006  0.0000E+00  0.1680E+03
     16.115  0.0000E+00  0.1680E+03
