   32   32    1    1
  0.8643287E+01  0.4932875E-09  0.4932875E-09  0.1313087E-08  0.5000000E-15
  1.000000000000000E-004
  CAR 
 graphite                                
    128     76     84
 
  0.0000000E+00  0.0000000E+00  0.0000000E+00  0.6944444E-02
    1      -14.785729
    2      -14.615668
    3      -14.615025
    4      -14.431261
    5       -9.450341
    6       -9.440087
    7       -9.437773
    8       -9.378056
    9       -9.376493
   10       -9.366119
   11       -9.364828
   12       -9.364775
   13       -9.360670
   14       -9.318881
   15       -9.305897
   16       -9.302574
   17       -8.364018
   18       -8.362160
   19       -8.360466
   20       -8.328238
   21       -8.327538
   22       -8.325335
   23       -8.324974
   24       -8.324876
   25       -8.322146
   26       -8.262977
   27       -8.262428
   28       -8.260455
   29       -3.727302
   30       -2.744550
   31       -2.742770
   32       -1.538098
   33       -1.536065
   34       -1.535719
   35       -1.520088
   36       -1.504569
   37       -1.503774
   38       -1.503762
   39       -1.499505
   40       -1.486861
   41       -1.485066
   42       -1.469709
   43       -1.466910
   44       -1.451598
   45        1.863075
   46        1.871257
   47        1.873262
   48        1.878929
   49        1.884523
   50        1.889393
   51        1.892038
   52        1.899685
   53        2.046675
   54        2.048688
   55        2.050106
   56        2.506815
   57        2.510270
   58        2.516975
   59        2.517474
   60        2.517662
   61        2.522415
   62        2.802099
   63        2.821592
   64        2.824286
   65        6.392522
   66        6.395817
   67        6.403502
   68        6.517825
   69        6.519997
   70        6.522423
   71        6.524449
   72        6.524778
   73        6.527634
   74        7.113965
   75        7.121428
   76        7.123913
   77        9.366357
   78       12.035304
   79       12.039282
   80       12.070917
   81       12.176761
   82       12.181441
   83       12.261598
   84       12.265927
 
  0.1666667E+00  0.1387779E-16  0.0000000E+00  0.1388889E-01
    1      -14.619832
    2      -14.451350
    3      -14.450715
    4      -14.268823
    5      -10.759180
    6      -10.629019
    7      -10.628417
    8      -10.490904
    9       -9.884786
   10       -9.877575
   11       -9.769943
   12       -9.769383
   13       -9.762342
   14       -9.761253
   15       -9.650204
   16       -9.642081
   17       -7.756550
   18       -7.750732
   19       -7.665904
   20       -7.663600
   21       -7.658888
   22       -7.657877
   23       -7.564954
   24       -7.558636
   25       -6.913624
   26       -6.819271
   27       -6.817969
   28       -6.718775
   29       -3.525879
   30       -2.549047
   31       -2.547267
   32       -2.031061
   33       -2.014355
   34       -1.989585
   35       -1.989268
   36       -1.973419
   37       -1.971688
   38       -1.946784
   39       -1.930050
   40       -1.373406
   41       -1.348923
   42       -1.341411
   43       -1.338237
   44       -1.305843
   45        0.940955
   46        1.209673
   47        1.229278
   48        1.233449
   49        1.252645
   50        1.523046
   51        1.538562
   52        1.543689
   53        1.560071
   54        1.669860
   55        1.672575
   56        1.811612
   57        1.815532
   58        2.399386
   59        2.402624
   60        2.408218
   61        2.409813
   62        2.458681
   63        2.920351
   64        2.935067
   65        6.548392
   66        6.552431
   67        6.799546
   68        6.802884
   69        6.805326
   70        6.808487
   71        7.196249
   72        7.393219
   73        7.399920
   74        7.623273
   75        7.626714
   76        8.296496
   77        9.564148
   78       12.129766
   79       12.337568
   80       12.341879
   81       12.347168
   82       12.348915
   83       12.568404
   84       12.796574
 
  0.3333333E+00  0.2775558E-16  0.0000000E+00  0.1388889E-01
    1      -14.123961
    2      -13.960207
    3      -13.959598
    4      -13.783268
    5      -12.172308
    6      -12.027199
    7      -12.026646
    8      -11.871968
    9      -10.309188
   10      -10.305516
   11      -10.184095
   12      -10.183604
   13      -10.180422
   14      -10.179048
   15      -10.051414
   16      -10.047514
   17       -6.582134
   18       -6.573140
   19       -6.496976
   20       -6.494623
   21       -6.487323
   22       -6.485996
   23       -6.405463
   24       -6.396606
   25       -4.794751
   26       -4.716449
   27       -4.714893
   28       -4.633769
   29       -3.190760
   30       -3.176743
   31       -3.137028
   32       -3.136759
   33       -3.123597
   34       -3.121757
   35       -3.080644
   36       -3.066497
   37       -2.925870
   38       -1.967726
   39       -1.965951
   40       -0.899077
   41       -0.868449
   42       -0.865046
   43       -0.834161
   44       -0.794396
   45       -0.614556
   46       -0.447610
   47       -0.409844
   48       -0.406733
   49       -0.368737
   50        0.247205
   51        0.249282
   52        0.722314
   53        0.745281
   54        0.749896
   55        0.773258
   56        1.271519
   57        1.497504
   58        1.500656
   59        2.210789
   60        2.213909
   61        2.216785
   62        2.218178
   63        2.988150
   64        2.995544
   65        7.018355
   66        7.021102
   67        7.376754
   68        7.379068
   69        7.381530
   70        7.385205
   71        7.852356
   72        7.855648
   73        9.327258
   74        9.763930
   75        9.766891
   76       10.159067
   77       10.339298
   78       12.304783
   79       12.527998
   80       12.582004
   81       12.584116
   82       12.761436
   83       12.763716
   84       12.946687
 
  0.5000000E+00  0.5551115E-16  0.0000000E+00  0.6944444E-02
    1      -13.305501
    2      -13.302642
    3      -13.150470
    4      -13.148000
    5      -13.147970
    6      -13.144681
    7      -12.981710
    8      -12.978776
    9      -10.458217
   10      -10.456486
   11      -10.331063
   12      -10.329809
   13      -10.329755
   14      -10.327472
   15      -10.195471
   16      -10.193660
   17       -5.663283
   18       -5.661466
   19       -5.615837
   20       -5.615823
   21       -5.614870
   22       -5.610730
   23       -5.570543
   24       -5.568063
   25       -4.070476
   26       -4.068745
   27       -4.042199
   28       -4.039540
   29       -4.038653
   30       -4.038639
   31       -4.001550
   32       -4.000390
   33       -2.570769
   34       -2.567358
   35       -2.513821
   36       -2.508596
   37       -2.508573
   38       -2.507708
   39       -2.449908
   40       -2.447122
   41       -1.943645
   42       -1.941331
   43       -1.020526
   44       -1.018267
   45       -1.018168
   46       -1.014526
   47       -0.165116
   48       -0.161271
   49       -0.135978
   50       -0.134952
   51       -0.134939
   52       -0.126633
   53       -0.105674
   54       -0.098828
   55        0.101022
   56        0.103748
   57        1.374957
   58        1.376952
   59        2.126666
   60        2.130251
   61        2.130801
   62        2.132273
   63        2.987477
   64        2.990013
   65        7.338438
   66        7.340866
   67        7.682855
   68        7.683956
   69        7.684617
   70        7.689649
   71        8.030480
   72        8.033386
   73       11.141644
   74       11.142728
   75       11.769169
   76       11.772808
   77       12.044767
   78       12.049827
   79       12.051224
   80       12.054169
   81       12.492308
   82       12.495746
   83       12.791374
   84       12.794167
 
  0.0000000E+00  0.1666667E+00  0.0000000E+00  0.1388889E-01
    1      -14.619828
    2      -14.451349
    3      -14.450708
    4      -14.268819
    5      -10.759193
    6      -10.629024
    7      -10.628457
    8      -10.490939
    9       -9.884894
   10       -9.877319
   11       -9.770155
   12       -9.769408
   13       -9.762336
   14       -9.760594
   15       -9.650239
   16       -9.641768
   17       -7.756908
   18       -7.751637
   19       -7.665919
   20       -7.665017
   21       -7.658957
   22       -7.658623
   23       -7.565259
   24       -7.559336
   25       -6.912679
   26       -6.818011
   27       -6.817391
   28       -6.717877
   29       -3.525889
   30       -2.549056
   31       -2.547281
   32       -2.029855
   33       -2.014289
   34       -1.989567
   35       -1.986746
   36       -1.973465
   37       -1.971687
   38       -1.945478
   39       -1.930073
   40       -1.374564
   41       -1.348939
   42       -1.341419
   43       -1.340799
   44       -1.307294
   45        0.940375
   46        1.212958
   47        1.233449
   48        1.233982
   49        1.254529
   50        1.521224
   51        1.538552
   52        1.539014
   53        1.556400
   54        1.669528
   55        1.671370
   56        1.811699
   57        1.816430
   58        2.399777
   59        2.402566
   60        2.408369
   61        2.411772
   62        2.457638
   63        2.920476
   64        2.936435
   65        6.546422
   66        6.552181
   67        6.799090
   68        6.801092
   69        6.805050
   70        6.806767
   71        7.198128
   72        7.392689
   73        7.398333
   74        7.625543
   75        7.627563
   76        8.297938
   77        9.564136
   78       12.129116
   79       12.337443
   80       12.341796
   81       12.347027
   82       12.347693
   83       12.567697
   84       12.779526
 
  0.1666667E+00  0.1666667E+00  0.0000000E+00  0.1388889E-01
    1      -14.288721
    2      -14.123389
    3      -14.122769
    4      -13.944597
    5      -11.382550
    6      -11.379552
    7      -11.246333
    8      -11.243787
    9      -11.243759
   10      -11.240264
   11      -11.099101
   12      -11.096021
   13       -9.024320
   14       -8.954668
   15       -8.953615
   16       -8.898108
   17       -7.957162
   18       -7.927911
   19       -7.924055
   20       -7.870102
   21       -5.802427
   22       -5.798861
   23       -5.718409
   24       -5.714665
   25       -5.714636
   26       -5.711398
   27       -5.627189
   28       -5.623697
   29       -3.363676
   30       -3.307875
   31       -3.306199
   32       -3.248307
   33       -3.124821
   34       -2.160262
   35       -2.158484
   36       -1.702484
   37       -1.699756
   38       -1.663092
   39       -1.661794
   40       -1.661783
   41       -1.657261
   42       -1.621543
   43       -1.618350
   44       -0.977731
   45        0.175361
   46        0.194579
   47        0.198824
   48        0.216121
   49        0.290256
   50        0.292055
   51        0.847805
   52        0.859668
   53        0.864735
   54        0.879451
   55        1.094872
   56        1.097135
   57        1.097357
   58        1.100845
   59        2.027244
   60        2.029839
   61        2.644887
   62        3.104424
   63        3.107347
   64        3.384078
   65        6.306272
   66        6.310756
   67        6.339217
   68        6.639935
   69        8.134441
   70        8.137217
   71        8.575228
   72        8.578992
   73        8.579419
   74        8.581540
   75        9.155498
   76        9.158100
   77        9.962512
   78       12.666335
   79       12.670046
   80       12.933688
   81       12.937712
   82       13.158146
   83       13.161737
   84       13.166288
 
  0.3333333E+00  0.1666667E+00  0.0000000E+00  0.1388889E-01
    1      -13.630593
    2      -13.471516
    3      -13.470938
    4      -13.300098
    5      -12.656044
    6      -12.506275
    7      -12.505688
    8      -12.345691
    9      -11.698591
   10      -11.558241
   11      -11.557546
   12      -11.408292
   13       -9.014402
   14       -8.908719
   15       -8.908419
   16       -8.799508
   17       -7.110632
   18       -7.040817
   19       -7.037626
   20       -6.964408
   21       -4.797139
   22       -4.743594
   23       -4.741767
   24       -4.681923
   25       -4.636385
   26       -4.574859
   27       -4.572845
   28       -4.510729
   29       -3.655496
   30       -3.590531
   31       -3.589020
   32       -3.522282
   33       -2.602463
   34       -2.561081
   35       -2.559884
   36       -2.515040
   37       -2.332066
   38       -1.559235
   39       -1.521840
   40       -1.518360
   41       -1.475751
   42       -1.391308
   43       -1.389135
   44       -1.173337
   45       -1.061392
   46       -1.026957
   47       -1.023886
   48       -0.988513
   49       -0.281412
   50       -0.279592
   51       -0.249854
   52       -0.161622
   53       -0.137261
   54       -0.132315
   55       -0.106361
   56       -0.049017
   57        0.788832
   58        0.790728
   59        0.793276
   60        1.781873
   61        2.925911
   62        3.512350
   63        3.514925
   64        4.044432
   65        5.924188
   66        6.164978
   67        6.169053
   68        6.541446
   69        8.949021
   70        9.293868
   71        9.296389
   72        9.662319
   73       10.433285
   74       10.756935
   75       10.787299
   76       10.789827
   77       11.220455
   78       11.933648
   79       12.709181
   80       12.878353
   81       12.886041
   82       13.163474
   83       13.230789
   84       13.302816
 
  0.5000000E+00  0.1666667E+00  0.0000000E+00  0.1388889E-01
    1      -13.631789
    2      -13.472724
    3      -13.472123
    4      -13.301286
    5      -12.654360
    6      -12.504582
    7      -12.504019
    8      -12.344013
    9      -11.699810
   10      -11.559469
   11      -11.558765
   12      -11.409523
   13       -9.011612
   14       -8.905676
   15       -8.905209
   16       -8.795941
   17       -7.106201
   18       -7.035309
   19       -7.033904
   20       -6.959795
   21       -4.805161
   22       -4.751267
   23       -4.750920
   24       -4.690656
   25       -4.645759
   26       -4.584535
   27       -4.581095
   28       -4.519196
   29       -3.659184
   30       -3.594623
   31       -3.592383
   32       -3.526057
   33       -2.591513
   34       -2.550551
   35       -2.547714
   36       -2.503391
   37       -2.333354
   38       -1.557158
   39       -1.518988
   40       -1.517460
   41       -1.473875
   42       -1.392525
   43       -1.390384
   44       -1.171613
   45       -1.057841
   46       -1.023822
   47       -1.019885
   48       -0.984911
   49       -0.279749
   50       -0.277869
   51       -0.251125
   52       -0.163614
   53       -0.138492
   54       -0.135719
   55       -0.109106
   56       -0.050266
   57        0.788083
   58        0.789800
   59        0.793743
   60        1.780027
   61        2.926580
   62        3.516226
   63        3.518084
   64        4.054375
   65        5.919627
   66        6.165520
   67        6.168051
   68        6.540751
   69        8.945181
   70        9.290519
   71        9.293668
   72        9.661532
   73       10.434087
   74       10.755188
   75       10.786258
   76       10.788531
   77       11.217460
   78       11.936042
   79       12.706078
   80       12.879358
   81       12.886848
   82       13.149383
   83       13.228168
   84       13.295599
 
 -0.3333333E+00  0.1666667E+00  0.0000000E+00  0.1388889E-01
    1      -14.289436
    2      -14.124108
    3      -14.123473
    4      -13.945305
    5      -11.384664
    6      -11.378873
    7      -11.247563
    8      -11.246883
    9      -11.241676
   10      -11.241132
   11      -11.101337
   12      -11.095491
   13       -9.014061
   14       -8.942726
   15       -8.942197
   16       -8.884892
   17       -7.958239
   18       -7.926460
   19       -7.925938
   20       -7.869497
   21       -5.810176
   22       -5.804677
   23       -5.725559
   24       -5.722993
   25       -5.719681
   26       -5.718168
   27       -5.634879
   28       -5.629717
   29       -3.377063
   30       -3.320773
   31       -3.320189
   32       -3.261782
   33       -3.125617
   34       -2.161042
   35       -2.159281
   36       -1.697835
   37       -1.685060
   38       -1.659419
   39       -1.656107
   40       -1.646112
   41       -1.643868
   42       -1.616813
   43       -1.604105
   44       -0.978473
   45        0.170505
   46        0.191183
   47        0.191549
   48        0.210741
   49        0.287418
   50        0.293382
   51        0.853618
   52        0.867201
   53        0.867640
   54        0.883151
   55        1.092035
   56        1.093852
   57        1.098658
   58        1.101017
   59        2.022494
   60        2.030569
   61        2.646010
   62        3.113043
   63        3.114977
   64        3.403020
   65        6.307982
   66        6.310091
   67        6.330502
   68        6.643037
   69        8.131293
   70        8.134660
   71        8.571238
   72        8.574772
   73        8.575030
   74        8.578104
   75        9.152899
   76        9.153196
   77        9.961418
   78       12.665113
   79       12.668792
   80       12.933799
   81       12.964406
   82       13.159590
   83       13.167347
   84       13.193121
 
 -0.1666667E+00  0.1666667E+00  0.0000000E+00  0.1388889E-01
    1      -14.620066
    2      -14.451589
    3      -14.450942
    4      -14.269054
    5      -10.765474
    6      -10.635405
    7      -10.634836
    8      -10.497424
    9       -9.876252
   10       -9.874264
   11       -9.761418
   12       -9.760008
   13       -9.759960
   14       -9.757175
   15       -9.640967
   16       -9.638729
   17       -7.755103
   18       -7.753200
   19       -7.664122
   20       -7.661724
   21       -7.661692
   22       -7.660455
   23       -7.563089
   24       -7.561318
   25       -6.919862
   26       -6.826049
   27       -6.823656
   28       -6.724953
   29       -3.526156
   30       -2.549322
   31       -2.547552
   32       -2.030601
   33       -2.028424
   34       -1.989277
   35       -1.988730
   36       -1.988714
   37       -1.984536
   38       -1.946506
   39       -1.943895
   40       -1.357549
   41       -1.349207
   42       -1.325066
   43       -1.322997
   44       -1.290170
   45        0.935168
   46        1.201969
   47        1.220817
   48        1.226026
   49        1.245513
   50        1.530452
   51        1.547017
   52        1.551312
   53        1.567179
   54        1.662681
   55        1.664719
   56        1.816505
   57        1.818281
   58        2.408411
   59        2.409573
   60        2.409780
   61        2.414246
   62        2.447704
   63        2.934720
   64        2.937413
   65        6.546347
   66        6.549562
   67        6.799507
   68        6.804564
   69        6.804871
   70        6.806346
   71        7.196094
   72        7.394967
   73        7.397585
   74        7.619080
   75        7.623064
   76        8.292534
   77        9.563756
   78       12.161974
   79       12.336962
   80       12.341351
   81       12.379626
   82       12.380667
   83       12.600394
   84       12.767484
 
  0.2710505E-19  0.3333333E+00  0.0000000E+00  0.1388889E-01
    1      -14.123944
    2      -13.960203
    3      -13.959568
    4      -13.783250
    5      -12.172272
    6      -12.027189
    7      -12.026583
    8      -11.871932
    9      -10.309530
   10      -10.305226
   11      -10.184877
   12      -10.183657
   13      -10.180418
   14      -10.178202
   15      -10.051682
   16      -10.047182
   17       -6.582654
   18       -6.574043
   19       -6.496992
   20       -6.496209
   21       -6.487363
   22       -6.486978
   23       -6.405937
   24       -6.397352
   25       -4.793687
   26       -4.714922
   27       -4.714340
   28       -4.632747
   29       -3.189534
   30       -3.176416
   31       -3.136792
   32       -3.134529
   33       -3.122976
   34       -3.121753
   35       -3.079329
   36       -3.066235
   37       -2.925913
   38       -1.967766
   39       -1.966017
   40       -0.900360
   41       -0.868457
   42       -0.867908
   43       -0.835804
   44       -0.794458
   45       -0.614823
   46       -0.445514
   47       -0.406739
   48       -0.406076
   49       -0.367022
   50        0.247013
   51        0.248800
   52        0.720616
   53        0.745273
   54        0.745828
   55        0.770622
   56        1.271049
   57        1.497507
   58        1.501530
   59        2.211173
   60        2.213805
   61        2.216806
   62        2.220050
   63        2.988426
   64        2.996667
   65        7.017020
   66        7.020359
   67        7.375298
   68        7.377420
   69        7.381533
   70        7.383964
   71        7.850721
   72        7.854879
   73        9.328506
   74        9.765348
   75        9.767541
   76       10.159039
   77       10.340306
   78       12.304224
   79       12.527521
   80       12.581804
   81       12.582697
   82       12.760901
   83       12.763013
   84       12.946151
 
  0.1666667E+00  0.3333333E+00  0.0000000E+00  0.1388889E-01
    1      -13.630578
    2      -13.471512
    3      -13.470911
    4      -13.300081
    5      -12.656009
    6      -12.506266
    7      -12.505622
    8      -12.345652
    9      -11.698637
   10      -11.558249
   11      -11.557630
   12      -11.408339
   13       -9.014336
   14       -8.908652
   15       -8.908339
   16       -8.799427
   17       -7.110994
   18       -7.040822
   19       -7.038509
   20       -6.964946
   21       -4.796673
   22       -4.742813
   23       -4.741762
   24       -4.681593
   25       -4.637777
   26       -4.575718
   27       -4.574850
   28       -4.512206
   29       -3.654102
   30       -3.589029
   31       -3.587753
   32       -3.520899
   33       -2.600777
   34       -2.559884
   35       -2.557744
   36       -2.513366
   37       -2.332102
   38       -1.558012
   39       -1.519963
   40       -1.518355
   41       -1.474952
   42       -1.391319
   43       -1.389158
   44       -1.173552
   45       -1.062955
   46       -1.027205
   47       -1.026946
   48       -0.990292
   49       -0.281582
   50       -0.279829
   51       -0.250035
   52       -0.162427
   53       -0.137264
   54       -0.134554
   55       -0.107998
   56       -0.048730
   57        0.789155
   58        0.790789
   59        0.793305
   60        1.782379
   61        2.926365
   62        3.513133
   63        3.515113
   64        4.044812
   65        5.924023
   66        6.164870
   67        6.167736
   68        6.540326
   69        8.947860
   70        9.293034
   71        9.294860
   72        9.661037
   73       10.434399
   74       10.757061
   75       10.787609
   76       10.791399
   77       11.221528
   78       11.933563
   79       12.709539
   80       12.878319
   81       12.886003
   82       13.158315
   83       13.239355
   84       13.308065
 
  0.3333333E+00  0.3333333E+00  0.0000000E+00  0.1388889E-01
    1      -12.820722
    2      -12.817999
    3      -12.815465
    4      -12.670785
    5      -12.667648
    6      -12.667618
    7      -12.665861
    8      -12.664744
    9      -12.661922
   10      -12.506961
   11      -12.504252
   12      -12.501641
   13       -7.801318
   14       -7.694297
   15       -7.692779
   16       -7.685507
   17       -7.683149
   18       -7.678509
   19       -7.676201
   20       -7.572354
   21       -5.642356
   22       -5.641829
   23       -5.635718
   24       -5.634607
   25       -2.887960
   26       -2.884594
   27       -2.882773
   28       -2.855711
   29       -2.851119
   30       -2.851091
   31       -2.850337
   32       -2.850194
   33       -2.844908
   34       -2.820458
   35       -2.818146
   36       -2.814487
   37       -1.523676
   38       -1.519654
   39       -1.517137
   40       -1.502660
   41       -1.499255
   42       -1.497306
   43       -1.496776
   44       -1.496764
   45       -1.491179
   46       -1.472728
   47       -1.471058
   48       -1.466444
   49       -1.363918
   50       -1.361568
   51       -1.359116
   52       -0.463827
   53       -0.460287
   54       -0.460034
   55       -0.458718
   56       -0.457598
   57       -0.454251
   58        0.626152
   59        0.628607
   60        0.631388
   61        4.151670
   62        4.836105
   63        4.845900
   64        4.857673
   65        4.861081
   66        4.884349
   67        4.885577
   68        5.682215
   69       10.963644
   70       10.966864
   71       10.971724
   72       11.230167
   73       11.234933
   74       11.235223
   75       11.236192
   76       11.236928
   77       11.239992
   78       11.514804
   79       11.520350
   80       11.522886
   81       11.752408
   82       11.754016
   83       11.758156
   84       14.115349
 
  0.5000000E+00  0.3333333E+00  0.0000000E+00  0.1388889E-01
    1      -13.632489
    2      -13.473433
    3      -13.472799
    4      -13.301981
    5      -12.657897
    6      -12.508188
    7      -12.507474
    8      -12.347536
    9      -11.694806
   10      -11.554381
   11      -11.553842
   12      -11.404513
   13       -9.004229
   14       -8.898466
   15       -8.897770
   16       -8.788730
   17       -7.114359
   18       -7.043703
   19       -7.043277
   20       -6.969409
   21       -4.803293
   22       -4.750052
   23       -4.748720
   24       -4.689092
   25       -4.644200
   26       -4.583049
   27       -4.580728
   28       -4.519000
   29       -3.665891
   30       -3.601564
   31       -3.598290
   32       -3.532154
   33       -2.596691
   34       -2.556688
   35       -2.552802
   36       -2.509297
   37       -2.334178
   38       -1.566131
   39       -1.527894
   40       -1.525375
   41       -1.482082
   42       -1.393559
   43       -1.391448
   44       -1.175576
   45       -1.047810
   46       -1.013179
   47       -1.010294
   48       -0.974832
   49       -0.283790
   50       -0.282025
   51       -0.252054
   52       -0.153867
   53       -0.128106
   54       -0.126212
   55       -0.099119
   56       -0.045013
   57        0.789165
   58        0.793475
   59        0.795539
   60        1.785964
   61        2.932010
   62        3.520942
   63        3.523181
   64        4.056515
   65        5.925531
   66        6.161552
   67        6.163665
   68        6.528235
   69        8.950487
   70        9.290577
   71        9.293366
   72        9.653915
   73       10.427476
   74       10.754204
   75       10.781368
   76       10.786262
   77       11.218907
   78       11.931459
   79       12.702011
   80       12.875158
   81       12.882786
   82       13.127919
   83       13.226016
   84       13.323034
 
 -0.3333333E+00  0.3333333E+00  0.0000000E+00  0.1388889E-01
    1      -14.124895
    2      -13.961161
    3      -13.960505
    4      -13.784193
    5      -12.176100
    6      -12.031064
    7      -12.030372
    8      -11.875769
    9      -10.301927
   10      -10.300138
   11      -10.177044
   12      -10.175698
   13      -10.175654
   14      -10.173330
   15      -10.043998
   16      -10.042111
   17       -6.581382
   18       -6.579422
   19       -6.496495
   20       -6.493805
   21       -6.493784
   22       -6.492649
   23       -6.405158
   24       -6.403282
   25       -4.803619
   26       -4.725698
   27       -4.723094
   28       -4.642334
   29       -3.188067
   30       -3.186251
   31       -3.134404
   32       -3.134366
   33       -3.134195
   34       -3.130249
   35       -3.078248
   36       -3.076061
   37       -2.926970
   38       -1.968817
   39       -1.967089
   40       -0.884342
   41       -0.853245
   42       -0.850859
   43       -0.819602
   44       -0.795552
   45       -0.618763
   46       -0.457370
   47       -0.420037
   48       -0.415678
   49       -0.377966
   50        0.242793
   51        0.244522
   52        0.732665
   53        0.756240
   54        0.759815
   55        0.783322
   56        1.266166
   57        1.503753
   58        1.505618
   59        2.218905
   60        2.220136
   61        2.220367
   62        2.224624
   63        2.997459
   64        3.000052
   65        7.019138
   66        7.021982
   67        7.373980
   68        7.378983
   69        7.379269
   70        7.380698
   71        7.845327
   72        7.848117
   73        9.321369
   74        9.758218
   75        9.761325
   76       10.157665
   77       10.336270
   78       12.319344
   79       12.547221
   80       12.611487
   81       12.612942
   82       12.761853
   83       12.764267
   84       12.968225
 
 -0.1666667E+00  0.3333333E+00  0.0000000E+00  0.1388889E-01
    1      -14.289424
    2      -14.124105
    3      -14.123451
    4      -13.945292
    5      -11.385087
    6      -11.378531
    7      -11.248298
    8      -11.247470
    9      -11.241624
   10      -11.239861
   11      -11.101696
   12      -11.095056
   13       -9.013352
   14       -8.942707
   15       -8.940664
   16       -8.884072
   17       -7.960081
   18       -7.929147
   19       -7.926461
   20       -7.871011
   21       -5.810739
   22       -5.803457
   23       -5.725569
   24       -5.724832
   25       -5.718186
   26       -5.716272
   27       -5.635385
   28       -5.628311
   29       -3.376038
   30       -3.320759
   31       -3.318031
   32       -3.260629
   33       -3.125647
   34       -2.161072
   35       -2.159325
   36       -1.699129
   37       -1.684910
   38       -1.659430
   39       -1.658925
   40       -1.645374
   41       -1.643866
   42       -1.618130
   43       -1.603809
   44       -0.978521
   45        0.172304
   46        0.191198
   47        0.195952
   48        0.213872
   49        0.287232