<?xml version="1.0" encoding="ISO-8859-1"?>
<modeling>
 <generator>
  <i name="program" type="string">vasp </i>
  <i name="version" type="string">5.3.5  </i>
  <i name="subversion" type="string">31Mar14 (build Nov 02 2014 15:17:37) complex                          parallel </i>
  <i name="platform" type="string">ion-Intel-MKL </i>
  <i name="date" type="string">2016 10 18 </i>
  <i name="time" type="string">06:22:31 </i>
 </generator>
 <incar>
  <i type="string" name="SYSTEM">graphite</i>
  <i type="string" name="PREC">accurate</i>
  <i type="int" name="NELM">   200</i>
  <i type="int" name="IBRION">    -1</i>
  <i name="EDIFF">      0.00000001</i>
  <i name="EDIFFG">      0.00100000</i>
  <i type="int" name="NSW">     0</i>
  <i type="int" name="ISIF">     2</i>
  <i name="ENCUT">    800.00000000</i>
  <i type="int" name="ISMEAR">    -5</i>
  <i type="logical" name="LWAVE"> F  </i>
  <i type="logical" name="LCHARG"> F  </i>
  <i type="int" name="NELM">   200</i>
  <i type="string" name="GGA">PE</i>
 </incar>
 <kpoints>
  <generation param="Gamma">
   <v type="int" name="divisions">       6        6        4 </v>
   <v name="usershift">      0.00000000       0.00000000       0.00000000 </v>
   <v name="genvec1">      0.16666667       0.00000000       0.00000000 </v>
   <v name="genvec2">      0.00000000       0.16666667       0.00000000 </v>
   <v name="genvec3">      0.00000000       0.00000000       0.25000000 </v>
   <v name="shift">      0.00000000       0.00000000       0.00000000 </v>
  </generation>
  <varray name="kpointlist" >
   <v>       0.00000000       0.00000000       0.00000000 </v>
   <v>       0.16666667       0.00000000       0.00000000 </v>
   <v>       0.33333333       0.00000000       0.00000000 </v>
   <v>       0.50000000       0.00000000       0.00000000 </v>
   <v>       0.00000000       0.16666667       0.00000000 </v>
   <v>       0.16666667       0.16666667       0.00000000 </v>
   <v>       0.33333333       0.16666667       0.00000000 </v>
   <v>       0.50000000       0.16666667       0.00000000 </v>
   <v>      -0.33333333       0.16666667       0.00000000 </v>
   <v>      -0.16666667       0.16666667       0.00000000 </v>
   <v>       0.00000000       0.33333333       0.00000000 </v>
   <v>       0.16666667       0.33333333       0.00000000 </v>
   <v>       0.33333333       0.33333333       0.00000000 </v>
   <v>       0.50000000       0.33333333       0.00000000 </v>
   <v>      -0.33333333       0.33333333       0.00000000 </v>
   <v>      -0.16666667       0.33333333       0.00000000 </v>
   <v>       0.00000000       0.50000000       0.00000000 </v>
   <v>       0.16666667       0.50000000       0.00000000 </v>
   <v>       0.33333333       0.50000000       0.00000000 </v>
   <v>       0.50000000       0.50000000       0.00000000 </v>
   <v>       0.00000000       0.00000000       0.25000000 </v>
   <v>       0.16666667       0.00000000       0.25000000 </v>
   <v>       0.33333333       0.00000000       0.25000000 </v>
   <v>       0.50000000       0.00000000       0.25000000 </v>
   <v>      -0.33333333      -0.00000000       0.25000000 </v>
   <v>      -0.16666667      -0.00000000       0.25000000 </v>
   <v>       0.00000000       0.16666667       0.25000000 </v>
   <v>       0.16666667       0.16666667       0.25000000 </v>
   <v>       0.33333333       0.16666667       0.25000000 </v>
   <v>       0.50000000       0.16666667       0.25000000 </v>
   <v>      -0.33333333       0.16666667       0.25000000 </v>
   <v>      -0.16666667       0.16666667       0.25000000 </v>
   <v>       0.00000000       0.33333333       0.25000000 </v>
   <v>       0.16666667       0.33333333       0.25000000 </v>
   <v>       0.33333333       0.33333333       0.25000000 </v>
   <v>       0.50000000       0.33333333       0.25000000 </v>
   <v>      -0.33333333       0.33333333       0.25000000 </v>
   <v>      -0.16666667       0.33333333       0.25000000 </v>
   <v>       0.00000000       0.50000000       0.25000000 </v>
   <v>       0.16666667       0.50000000       0.25000000 </v>
   <v>       0.33333333       0.50000000       0.25000000 </v>
   <v>       0.50000000       0.50000000       0.25000000 </v>
   <v>      -0.33333333       0.50000000       0.25000000 </v>
   <v>      -0.16666667       0.50000000       0.25000000 </v>
   <v>      -0.00000000      -0.33333333       0.25000000 </v>
   <v>       0.16666667      -0.33333333       0.25000000 </v>
   <v>       0.33333333      -0.33333333       0.25000000 </v>
   <v>       0.50000000      -0.33333333       0.25000000 </v>
   <v>      -0.33333333      -0.33333333       0.25000000 </v>
   <v>      -0.16666667      -0.33333333       0.25000000 </v>
   <v>       0.00000000      -0.16666667       0.25000000 </v>
   <v>       0.16666667      -0.16666667       0.25000000 </v>
   <v>       0.33333333      -0.16666667       0.25000000 </v>
   <v>       0.50000000      -0.16666667       0.25000000 </v>
   <v>      -0.33333333      -0.16666667       0.25000000 </v>
   <v>      -0.16666667      -0.16666667       0.25000000 </v>
   <v>       0.00000000       0.00000000       0.50000000 </v>
   <v>       0.16666667       0.00000000       0.50000000 </v>
   <v>       0.33333333       0.00000000       0.50000000 </v>
   <v>       0.50000000       0.00000000       0.50000000 </v>
   <v>       0.00000000       0.16666667       0.50000000 </v>
   <v>       0.16666667       0.16666667       0.50000000 </v>
   <v>       0.33333333       0.16666667       0.50000000 </v>
   <v>       0.50000000       0.16666667       0.50000000 </v>
   <v>      -0.33333333       0.16666667       0.50000000 </v>
   <v>      -0.16666667       0.16666667       0.50000000 </v>
   <v>       0.00000000       0.33333333       0.50000000 </v>
   <v>       0.16666667       0.33333333       0.50000000 </v>
   <v>       0.33333333       0.33333333       0.50000000 </v>
   <v>       0.50000000       0.33333333       0.50000000 </v>
   <v>      -0.33333333       0.33333333       0.50000000 </v>
   <v>      -0.16666667       0.33333333       0.50000000 </v>
   <v>       0.00000000       0.50000000       0.50000000 </v>
   <v>       0.16666667       0.50000000       0.50000000 </v>
   <v>       0.33333333       0.50000000       0.50000000 </v>
   <v>       0.50000000       0.50000000       0.50000000 </v>
  </varray>
  <varray name="weights" >
   <v>       0.00694444 </v>
   <v>       0.01388889 </v>
   <v>       0.01388889 </v>
   <v>       0.00694444 </v>
   <v>       0.01388889 </v>
   <v>       0.01388889 </v>
   <v>       0.01388889 </v>
   <v>       0.01388889 </v>
   <v>       0.01388889 </v>
   <v>       0.01388889 </v>
   <v>       0.01388889 </v>
   <v>       0.01388889 </v>
   <v>       0.01388889 </v>
   <v>       0.01388889 </v>
   <v>       0.01388889 </v>
   <v>       0.01388889 </v>
   <v>       0.00694444 </v>
   <v>       0.01388889 </v>
   <v>       0.01388889 </v>
   <v>       0.00694444 </v>
   <v>       0.01388889 </v>
   <v>       0.01388889 </v>
   <v>       0.01388889 </v>
   <v>       0.01388889 </v>
   <v>       0.01388889 </v>
   <v>       0.01388889 </v>
   <v>       0.01388889 </v>
   <v>       0.01388889 </v>
   <v>       0.01388889 </v>
   <v>       0.01388889 </v>
   <v>       0.01388889 </v>
   <v>       0.01388889 </v>
   <v>       0.01388889 </v>
   <v>       0.01388889 </v>
   <v>       0.01388889 </v>
   <v>       0.01388889 </v>
   <v>       0.01388889 </v>
   <v>       0.01388889 </v>
   <v>       0.01388889 </v>
   <v>       0.01388889 </v>
   <v>       0.01388889 </v>
   <v>       0.01388889 </v>
   <v>       0.01388889 </v>
   <v>       0.01388889 </v>
   <v>       0.01388889 </v>
   <v>       0.01388889 </v>
   <v>       0.01388889 </v>
   <v>       0.01388889 </v>
   <v>       0.01388889 </v>
   <v>       0.01388889 </v>
   <v>       0.01388889 </v>
   <v>       0.01388889 </v>
   <v>       0.01388889 </v>
   <v>       0.01388889 </v>
   <v>       0.01388889 </v>
   <v>       0.01388889 </v>
   <v>       0.00694444 </v>
   <v>       0.01388889 </v>
   <v>       0.01388889 </v>
   <v>       0.00694444 </v>
   <v>       0.01388889 </v>
   <v>       0.01388889 </v>
   <v>       0.01388889 </v>
   <v>       0.01388889 </v>
   <v>       0.01388889 </v>
   <v>       0.01388889 </v>
   <v>       0.01388889 </v>
   <v>       0.01388889 </v>
   <v>       0.01388889 </v>
   <v>       0.01388889 </v>
   <v>       0.01388889 </v>
   <v>       0.01388889 </v>
   <v>       0.00694444 </v>
   <v>       0.01388889 </v>
   <v>       0.01388889 </v>
   <v>       0.00694444 </v>
  </varray>
  <varray name="tetrahedronlist"  type="int" >
   <v type="int" >        2        2        5        6       27 </v>
   <v type="int" >        2        1        2        5       27 </v>
   <v type="int" >        2        1        2       21       27 </v>
   <v type="int" >        2        2        6       27       28 </v>
   <v type="int" >        2        2       22       27       28 </v>
   <v type="int" >        2        2       21       22       27 </v>
   <v type="int" >        2        3        6        7       28 </v>
   <v type="int" >        2        2        3        6       28 </v>
   <v type="int" >        2        2        3       22       28 </v>
   <v type="int" >        2        3        7       28       29 </v>
   <v type="int" >        2        3       23       28       29 </v>
   <v type="int" >        2        3       22       23       28 </v>
   <v type="int" >        2        4        7        8       29 </v>
   <v type="int" >        2        3        4        7       29 </v>
   <v type="int" >        2        3        4       23       29 </v>
   <v type="int" >        2        4        8       29       30 </v>
   <v type="int" >        2        4       24       29       30 </v>
   <v type="int" >        2        4       23       24       29 </v>
   <v type="int" >        2        3        8        9       30 </v>
   <v type="int" >        2        3        4        8       30 </v>
   <v type="int" >        2        3        4       24       30 </v>
   <v type="int" >        2        3        9       30       31 </v>
   <v type="int" >        2        3       25       30       31 </v>
   <v type="int" >        2        3       24       25       30 </v>
   <v type="int" >        2        2        9       10       31 </v>
   <v type="int" >        2        2        3        9       31 </v>
   <v type="int" >        2        2        3       25       31 </v>
   <v type="int" >        2        2       10       31       32 </v>
   <v type="int" >        2        2       26       31       32 </v>
   <v type="int" >        2        2       25       26       31 </v>
   <v type="int" >        2        1        5       10       32 </v>
   <v type="int" >        2        1        2       10       32 </v>
   <v type="int" >        2        1        2       26       32 </v>
   <v type="int" >        2        1        5       27       32 </v>
   <v type="int" >        2        1       21       27       32 </v>
   <v type="int" >        2        1       21       26       32 </v>
   <v type="int" >        2        6       11       12       33 </v>
   <v type="int" >        2        5        6       11       33 </v>
   <v type="int" >        2        5        6       27       33 </v>
   <v type="int" >        2        6       12       33       34 </v>
   <v type="int" >        2        6       28       33       34 </v>
   <v type="int" >        2        6       27       28       33 </v>
   <v type="int" >        2        7       12       13       34 </v>
   <v type="int" >        2        6        7       12       34 </v>
   <v type="int" >        2        6        7       28       34 </v>
   <v type="int" >        2        7       13       34       35 </v>
   <v type="int" >        2        7       29       34       35 </v>
   <v type="int" >        2        7       28       29       34 </v>
   <v type="int" >        2        8       13       14       35 </v>
   <v type="int" >        2        7        8       13       35 </v>
   <v type="int" >        2        7        8       29       35 </v>
   <v type="int" >        2        8       14       35       36 </v>
   <v type="int" >        2        8       30       35       36 </v>
   <v type="int" >        2        8       29       30       35 </v>
   <v type="int" >        2        9       14       15       36 </v>
   <v type="int" >        2        8        9       14       36 </v>
   <v type="int" >        2        8        9       30       36 </v>
   <v type="int" >        2        9       15       36       37 </v>
   <v type="int" >        2        9       31       36       37 </v>
   <v type="int" >        2        9       30       31       36 </v>
   <v type="int" >        2       10       15       16       37 </v>
   <v type="int" >        2        9       10       15       37 </v>
   <v type="int" >        2        9       10       31       37 </v>
   <v type="int" >        2       10       16       37       38 </v>
   <v type="int" >        2       10       32       37       38 </v>
   <v type="int" >        2       10       31       32       37 </v>
   <v type="int" >        2        5       11       16       38 </v>
   <v type="int" >        2        5       10       16       38 </v>
   <v type="int" >        2        5       10       32       38 </v>
   <v type="int" >        2        5       11       33       38 </v>
   <v type="int" >        2        5       27       33       38 </v>
   <v type="int" >        2        5       27       32       38 </v>
   <v type="int" >        2       12       17       18       39 </v>
   <v type="int" >        2       11       12       17       39 </v>
   <v type="int" >        2       11       12       33       39 </v>
   <v type="int" >        2       12       18       39       40 </v>
   <v type="int" >        2       12       34       39       40 </v>
   <v type="int" >        2       12       33       34       39 </v>
   <v type="int" >        2       13       18       19       40 </v>
   <v type="int" >        2       12       13       18       40 </v>
   <v type="int" >        2       12       13       34       40 </v>
   <v type="int" >        2       13       19       40       41 </v>
   <v type="int" >        2       13       35       40       41 </v>
   <v type="int" >        2       13       34       35       40 </v>
   <v type="int" >        2       14       19       20       41 </v>
   <v type="int" >        2       13       14       19       41 </v>
   <v type="int" >        2       13       14       35       41 </v>
   <v type="int" >        2       14       20       41       42 </v>
   <v type="int" >        2       14       36       41       42 </v>
   <v type="int" >        2       14       35       36       41 </v>
   <v type="int" >        2       15       19       20       42 </v>
   <v type="int" >        2       14       15       20       42 </v>
   <v type="int" >        2       14       15       36       42 </v>
   <v type="int" >        2       15       19       42       43 </v>
   <v type="int" >        2       15       37       42       43 </v>
   <v type="int" >        2       15       36       37       42 </v>
   <v type="int" >        2       16       18       19       43 </v>
   <v type="int" >        2       15       16       19       43 </v>
   <v type="int" >        2       15       16       37       43 </v>
   <v type="int" >        2       16       18       43       44 </v>
   <v type="int" >        2       16       38       43       44 </v>
   <v type="int" >        2       16       37       38       43 </v>
   <v type="int" >        2       11       17       18       44 </v>
   <v type="int" >        2       11       16       18       44 </v>
   <v type="int" >        2       11       16       38       44 </v>
   <v type="int" >        2       11       17       39       44 </v>
   <v type="int" >        2       11       33       39       44 </v>
   <v type="int" >        2       11       33       38       44 </v>
   <v type="int" >        2       11       16       18       45 </v>
   <v type="int" >        2       11       17       18       45 </v>
   <v type="int" >        2       17       18       39       45 </v>
   <v type="int" >        2       16       18       45       46 </v>
   <v type="int" >        2       18       40       45       46 </v>
   <v type="int" >        2       18       39       40       45 </v>
   <v type="int" >        2       15       16       19       46 </v>
   <v type="int" >        2       16       18       19       46 </v>
   <v type="int" >        2       18       19       40       46 </v>
   <v type="int" >        2       15       19       46       47 </v>
   <v type="int" >        2       19       41       46       47 </v>
   <v type="int" >        2       19       40       41       46 </v>
   <v type="int" >        2       14       15       20       47 </v>
   <v type="int" >        2       15       19       20       47 </v>
   <v type="int" >        2       19       20       41       47 </v>
   <v type="int" >        2       14       20       47       48 </v>
   <v type="int" >        2       20       42       47       48 </v>
   <v type="int" >        2       20       41       42       47 </v>
   <v type="int" >        2       13       14       19       48 </v>
   <v type="int" >        2       14       19       20       48 </v>
   <v type="int" >        2       19       20       42       48 </v>
   <v type="int" >        2       13       19       48       49 </v>
   <v type="int" >        2       19       43       48       49 </v>
   <v type="int" >        2       19       42       43       48 </v>
   <v type="int" >        2       12       13       18       49 </v>
   <v type="int" >        2       13       18       19       49 </v>
   <v type="int" >        2       18       19       43       49 </v>
   <v type="int" >        2       12       18       49       50 </v>
   <v type="int" >        2       18       44       49       50 </v>
   <v type="int" >        2       18       43       44       49 </v>
   <v type="int" >        2       11       12       17       50 </v>
   <v type="int" >        2       12       17       18       50 </v>
   <v type="int" >        2       17       18       44       50 </v>
   <v type="int" >        2       11       17       45       50 </v>
   <v type="int" >        2       17       39       45       50 </v>
   <v type="int" >        2       17       39       44       50 </v>
   <v type="int" >        2        5       10       16       51 </v>
   <v type="int" >        2        5       11       16       51 </v>
   <v type="int" >        2       11       16       45       51 </v>
   <v type="int" >        2       10       16       51       52 </v>
   <v type="int" >        2       16       46       51       52 </v>
   <v type="int" >        2       16       45       46       51 </v>
   <v type="int" >        2        9       10       15       52 </v>
   <v type="int" >        2       10       15       16       52 </v>
   <v type="int" >        2       15       16       46       52 </v>
   <v type="int" >        2        9       15       52       53 </v>
   <v type="int" >        2       15       47       52       53 </v>
   <v type="int" >        2       15       46       47       52 </v>
   <v type="int" >        2        8        9       14       53 </v>
   <v type="int" >        2        9       14       15       53 </v>
   <v type="int" >        2       14       15       47       53 </v>
   <v type="int" >        2        8       14       53       54 </v>
   <v type="int" >        2       14       48       53       54 </v>
   <v type="int" >        2       14       47       48       53 </v>
   <v type="int" >        2        7        8       13       54 </v>
   <v type="int" >        2        8       13       14       54 </v>
   <v type="int" >        2       13       14       48       54 </v>
   <v type="int" >        2        7       13       54       55 </v>
   <v type="int" >        2       13       49       54       55 </v>
   <v type="int" >        2       13       48       49       54 </v>
   <v type="int" >        2        6        7       12       55 </v>
   <v type="int" >        2        7       12       13       55 </v>
   <v type="int" >        2       12       13       49       55 </v>
   <v type="int" >        2        6       12       55       56 </v>
   <v type="int" >        2       12       50       55       56 </v>
   <v type="int" >        2       12       49       50       55 </v>
   <v type="int" >        2        5        6       11       56 </v>
   <v type="int" >        2        6       11       12       56 </v>
   <v type="int" >        2       11       12       50       56 </v>
   <v type="int" >        2        5       11       51       56 </v>
   <v type="int" >        2       11       45       51       56 </v>
   <v type="int" >        2       11       45       50       56 </v>
   <v type="int" >        2        1        2       10       21 </v>
   <v type="int" >        2        1        5       10       21 </v>
   <v type="int" >        2        5       10       21       51 </v>
   <v type="int" >        2        2       10       21       22 </v>
   <v type="int" >        2       10       21       22       52 </v>
   <v type="int" >        2       10       21       51       52 </v>
   <v type="int" >        2        2        3        9       22 </v>
   <v type="int" >        2        2        9       10       22 </v>
   <v type="int" >        2        9       10       22       52 </v>
   <v type="int" >        2        3        9       22       23 </v>
   <v type="int" >        2        9       22       23       53 </v>
   <v type="int" >        2        9       22       52       53 </v>
   <v type="int" >        2        3        4        8       23 </v>
   <v type="int" >        2        3        8        9       23 </v>
   <v type="int" >        2        8        9       23       53 </v>
   <v type="int" >        2        4        8       23       24 </v>
   <v type="int" >        2        8       23       24       54 </v>
   <v type="int" >        2        8       23       53       54 </v>
   <v type="int" >        2        3        4        7       24 </v>
   <v type="int" >        2        4        7        8       24 </v>
   <v type="int" >        2        7        8       24       54 </v>
   <v type="int" >        2        3        7       24       25 </v>
   <v type="int" >        2        7       24       25       55 </v>
   <v type="int" >        2        7       24       54       55 </v>
   <v type="int" >        2        2        3        6       25 </v>
   <v type="int" >        2        3        6        7       25 </v>
   <v type="int" >        2        6        7       25       55 </v>
   <v type="int" >        2        2        6       25       26 </v>
   <v type="int" >        2        6       25       26       56 </v>
   <v type="int" >        2        6       25       55       56 </v>
   <v type="int" >        2        1        2        5       26 </v>
   <v type="int" >        2        2        5        6       26 </v>
   <v type="int" >        2        5        6       26       56 </v>
   <v type="int" >        2        1        5       21       26 </v>
   <v type="int" >        2        5       21       26       51 </v>
   <v type="int" >        2        5       26       51       56 </v>
   <v type="int" >        2       22       27       28       61 </v>
   <v type="int" >        2       21       22       27       61 </v>
   <v type="int" >        2       21       22       57       61 </v>
   <v type="int" >        2       22       28       61       62 </v>
   <v type="int" >        2       22       58       61       62 </v>
   <v type="int" >        2       22       57       58       61 </v>
   <v type="int" >        2       23       28       29       62 </v>
   <v type="int" >        2       22       23       28       62 </v>
   <v type="int" >        2       22       23       58       62 </v>
   <v type="int" >        2       23       29       62       63 </v>
   <v type="int" >        2       23       59       62       63 </v>
   <v type="int" >        2       23       58       59       62 </v>
   <v type="int" >        2       24       29       30       63 </v>
   <v type="int" >        2       23       24       29       63 </v>
   <v type="int" >        2       23       24       59       63 </v>
   <v type="int" >        2       24       30       63       64 </v>
   <v type="int" >        2       24       60       63       64 </v>
   <v type="int" >        2       24       59       60       63 </v>
   <v type="int" >        2       25       30       31       64 </v>
   <v type="int" >        2       24       25       30       64 </v>
   <v type="int" >        2       24       25       60       64 </v>
   <v type="int" >        2       25       31       64       65 </v>
   <v type="int" >        2       25       59       64       65 </v>
   <v type="int" >        2       25       59       60       64 </v>
   <v type="int" >        2       26       31       32       65 </v>
   <v type="int" >        2       25       26       31       65 </v>
   <v type="int" >        2       25       26       59       65 </v>
   <v type="int" >        2       26       32       65       66 </v>
   <v type="int" >        2       26       58       65       66 </v>
   <v type="int" >        2       26       58       59       65 </v>
   <v type="int" >        2       21       27       32       66 </v>
   <v type="int" >        2       21       26       32       66 </v>
   <v type="int" >        2       21       26       58       66 </v>
   <v type="int" >        2       21       27       61       66 </v>
   <v type="int" >        2       21       57       61       66 </v>
   <v type="int" >        2       21       57       58       66 </v>
   <v type="int" >        2       28       33       34       67 </v>
   <v type="int" >        2       27       28       33       67 </v>
   <v type="int" >        2       27       28       61       67 </v>
   <v type="int" >        2       28       34       67       68 </v>
   <v type="int" >        2       28       62       67       68 </v>
   <v type="int" >        2       28       61       62       67 </v>
   <v type="int" >        2       29       34       35       68 </v>
   <v type="int" >        2       28       29       34       68 </v>
   <v type="int" >        2       28       29       62       68 </v>
   <v type="int" >        2       29       35       68       69 </v>
   <v type="int" >        2       29       63       68       69 </v>
   <v type="int" >        2       29       62       63       68 </v>
   <v type="int" >        2       30       35       36       69 </v>
   <v type="int" >        2       29       30       35       69 </v>
   <v type="int" >        2       29       30       63       69 </v>
   <v type="int" >        2       30       36       69       70 </v>
   <v type="int" >        2       30       64       69       70 </v>
   <v type="int" >        2       30       63       64       69 </v>
   <v type="int" >        2       31       36       37       70 </v>
   <v type="int" >        2       30       31       36       70 </v>
   <v type="int" >        2       30       31       64       70 </v>
   <v type="int" >        2       31       37       70       71 </v>
   <v type="int" >        2       31       65       70       71 </v>
   <v type="int" >        2       31       64       65       70 </v>
   <v type="int" >        2       32       37       38       71 </v>
   <v type="int" >        2       31       32       37       71 </v>
   <v type="int" >        2       31       32       65       71 </v>
   <v type="int" >        2       32       38       71       72 </v>
   <v type="int" >        2       32       66       71       72 </v>
   <v type="int" >        2       32       65       66       71 </v>
   <v type="int" >        2       27       33       38       72 </v>
   <v type="int" >        2       27       32       38       72 </v>
   <v type="int" >        2       27       32       66       72 </v>
   <v type="int" >        2       27       33       67       72 </v>
   <v type="int" >        2       27       61       67       72 </v>
   <v type="int" >        2       27       61       66       72 </v>
   <v type="int" >        2       34       39       40       73 </v>
   <v type="int" >        2       33       34       39       73 </v>
   <v type="int" >        2       33       34       67       73 </v>
   <v type="int" >        2       34       40       73       74 </v>
   <v type="int" >        2       34       68       73       74 </v>
   <v type="int" >        2       34       67       68       73 </v>
   <v type="int" >        2       35       40       41       74 </v>
   <v type="int" >        2       34       35       40       74 </v>
   <v type="int" >        2       34       35       68       74 </v>
   <v type="int" >        2       35       41       74       75 </v>
   <v type="int" >        2       35       69       74       75 </v>
   <v type="int" >        2       35       68       69       74 </v>
   <v type="int" >        2       36       41       42       75 </v>
   <v type="int" >        2       35       36       41       75 </v>
   <v type="int" >        2       35       36       69       75 </v>
   <v type="int" >        2       36       42       75       76 </v>
   <v type="int" >        2       36       70       75       76 </v>
   <v type="int" >        2       36       69       70       75 </v>
   <v type="int" >        2       37       42       43       76 </v>
   <v type="int" >        2       36       37       42       76 </v>
   <v type="int" >        2       36       37       70       76 </v>
   <v type="int" >        2       37       43       75       76 </v>
   <v type="int" >        2       37       71       75       76 </v>
   <v type="int" >        2       37       70       71       76 </v>
   <v type="int" >        2       38       43       44       75 </v>
   <v type="int" >        2       37       38       43       75 </v>
   <v type="int" >        2       37       38       71       75 </v>
   <v type="int" >        2       38       44       74       75 </v>
   <v type="int" >        2       38       72       74       75 </v>
   <v type="int" >        2       38       71       72       75 </v>
   <v type="int" >        2       33       39       44       74 </v>
   <v type="int" >        2       33       38       44       74 </v>
   <v type="int" >        2       33       38       72       74 </v>
   <v type="int" >        2       33       39       73       74 </v>
   <v type="int" >        2       33       67       73       74 </v>
   <v type="int" >        2       33       67       72       74 </v>
   <v type="int" >        2       40       45       46       67 </v>
   <v type="int" >        2       39       40       45       67 </v>
   <v type="int" >        2       39       40       67       73 </v>
   <v type="int" >        2       40       46       67       72 </v>
   <v type="int" >        2       40       67       72       74 </v>
   <v type="int" >        2       40       67       73       74 </v>
   <v type="int" >        2       41       46       47       72 </v>
   <v type="int" >        2       40       41       46       72 </v>
   <v type="int" >        2       40       41       72       74 </v>
   <v type="int" >        2       41       47       71       72 </v>
   <v type="int" >        2       41       71       72       75 </v>
   <v type="int" >        2       41       72       74       75 </v>
   <v type="int" >        2       42       47       48       71 </v>
   <v type="int" >        2       41       42       47       71 </v>
   <v type="int" >        2       41       42       71       75 </v>
   <v type="int" >        2       42       48       70       71 </v>
   <v type="int" >        2       42       70       71       76 </v>
   <v type="int" >        2       42       71       75       76 </v>
   <v type="int" >        2       43       48       49       70 </v>
   <v type="int" >        2       42       43       48       70 </v>
   <v type="int" >        2       42       43       70       76 </v>
   <v type="int" >        2       43       49       69       70 </v>
   <v type="int" >        2       43       69       70       75 </v>
   <v type="int" >        2       43       70       75       76 </v>
   <v type="int" >        2       44       49       50       69 </v>
   <v type="int" >        2       43       44       49       69 </v>
   <v type="int" >        2       43       44       69       75 </v>
   <v type="int" >        2       44       50       68       69 </v>
   <v type="int" >        2       44       68       69       74 </v>
   <v type="int" >        2       44       69       74       75 </v>
   <v type="int" >        2       39       45       50       68 </v>
   <v type="int" >        2       39       44       50       68 </v>
   <v type="int" >        2       39       44       68       74 </v>
   <v type="int" >        2       39       45       67       68 </v>
   <v type="int" >        2       39       67       68       73 </v>
   <v type="int" >        2       39       68       73       74 </v>
   <v type="int" >        2       46       51       52       61 </v>
   <v type="int" >        2       45       46       51       61 </v>
   <v type="int" >        2       45       46       61       67 </v>
   <v type="int" >        2       46       52       61       66 </v>
   <v type="int" >        2       46       61       66       72 </v>
   <v type="int" >        2       46       61       67       72 </v>
   <v type="int" >        2       47       52       53       66 </v>
   <v type="int" >        2       46       47       52       66 </v>
   <v type="int" >        2       46       47       66       72 </v>
   <v type="int" >        2       47       53       65       66 </v>
   <v type="int" >        2       47       65       66       71 </v>
   <v type="int" >        2       47       66       71       72 </v>
   <v type="int" >        2       48       53       54       65 </v>
   <v type="int" >        2       47       48       53       65 </v>
   <v type="int" >        2       47       48       65       71 </v>
   <v type="int" >        2       48       54       64       65 </v>
   <v type="int" >        2       48       64       65       70 </v>
   <v type="int" >        2       48       65       70       71 </v>
   <v type="int" >        2       49       54       55       64 </v>
   <v type="int" >        2       48       49       54       64 </v>
   <v type="int" >        2       48       49       64       70 </v>
   <v type="int" >        2       49       55       63       64 </v>
   <v type="int" >        2       49       63       64       69 </v>
   <v type="int" >        2       49       64       69       70 </v>
   <v type="int" >        2       50       55       56       63 </v>
   <v type="int" >        2       49       50       55       63 </v>
   <v type="int" >        2       49       50       63       69 </v>
   <v type="int" >        2       50       56       62       63 </v>
   <v type="int" >        2       50       62       63       68 </v>
   <v type="int" >        2       50       63       68       69 </v>
   <v type="int" >        2       45       51       56       62 </v>
   <v type="int" >        2       45       50       56       62 </v>
   <v type="int" >        2       45       50       62       68 </v>
   <v type="int" >        2       45       51       61       62 </v>
   <v type="int" >        2       45       61       62       67 </v>
   <v type="int" >        2       45       62       67       68 </v>
   <v type="int" >        2       21       22       52       57 </v>
   <v type="int" >        2       21       51       52       57 </v>
   <v type="int" >        2       51       52       57       61 </v>
   <v type="int" >        2       22       52       57       58 </v>
   <v type="int" >        2       52       57       58       66 </v>
   <v type="int" >        2       52       57       61       66 </v>
   <v type="int" >        2       22       23       53       58 </v>
   <v type="int" >        2       22       52       53       58 </v>
   <v type="int" >        2       52       53       58       66 </v>
   <v type="int" >        2       23       53       58       59 </v>
   <v type="int" >        2       53       58       59       65 </v>
   <v type="int" >        2       53       58       65       66 </v>
   <v type="int" >        2       23       24       54       59 </v>
   <v type="int" >        2       23       53       54       59 </v>
   <v type="int" >        2       53       54       59       65 </v>
   <v type="int" >        2       24       54       59       60 </v>
   <v type="int" >        2       54       59       60       64 </v>
   <v type="int" >        2       54       59       64       65 </v>
   <v type="int" >        2       24       25       55       60 </v>
   <v type="int" >        2       24       54       55       60 </v>
   <v type="int" >        2       54       55       60       64 </v>
   <v type="int" >        2       25       55       59       60 </v>
   <v type="int" >        2       55       59       60       63 </v>
   <v type="int" >        2       55       60       63       64 </v>
   <v type="int" >        2       25       26       56       59 </v>
   <v type="int" >        2       25       55       56       59 </v>
   <v type="int" >        2       55       56       59       63 </v>
   <v type="int" >        2       26       56       58       59 </v>
   <v type="int" >        2       56       58       59       62 </v>
   <v type="int" >        2       56       59       62       63 </v>
   <v type="int" >        2       21       26       51       58 </v>
   <v type="int" >        2       26       51       56       58 </v>
   <v type="int" >        2       51       56       58       62 </v>
   <v type="int" >        2       21       51       57       58 </v>
   <v type="int" >        2       51       57       58       61 </v>
   <v type="int" >        2       51       58       61       62 </v>
  </varray>
  <i name="volumeweight">      0.00115741 </i>
 </kpoints>
 <parameters>
  <separator name="general" >
   <i type="string" name="SYSTEM">graphite</i>
   <i type="logical" name="LCOMPAT"> F  </i>
  </separator>
  <separator name="electronic" >
   <i type="string" name="PREC">accura</i>
   <i name="ENMAX">    800.00000000</i>
   <i name="ENAUG">    644.87300000</i>
   <i name="EDIFF">      0.00000001</i>
   <i type="int" name="IALGO">    38</i>
   <i type="int" name="IWAVPR">    10</i>
   <i type="int" name="NBANDS">    84</i>
   <i name="NELECT">    128.00000000</i>
   <i type="int" name="TURBO">     0</i>
   <i type="int" name="IRESTART">     0</i>
   <i type="int" name="NREBOOT">     0</i>
   <i type="int" name="NMIN">     0</i>
   <i name="EREF">      0.00000000</i>
   <separator name="electronic smearing" >
    <i type="int" name="ISMEAR">    -5</i>
    <i name="SIGMA">      0.20000000</i>
    <i name="KSPACING">      0.50000000</i>
    <i type="logical" name="KGAMMA"> T  </i>
   </separator>
   <separator name="electronic projectors" >
    <i type="logical" name="LREAL"> F  </i>
    <v name="ROPT">      0.00000000</v>
    <i type="int" name="LMAXPAW">  -100</i>
    <i type="int" name="LMAXMIX">     2</i>
    <i type="logical" name="NLSPLINE"> F  </i>
   </separator>
   <separator name="electronic startup" >
    <i type="int" name="ISTART">     0</i>
    <i type="int" name="ICHARG">     2</i>
    <i type="int" name="INIWAV">     1</i>
   </separator>
   <separator name="electronic spin" >
    <i type="int" name="ISPIN">     1</i>
    <i type="logical" name="LNONCOLLINEAR"> F  </i>
    <v name="MAGMOM">      1.00000000      1.00000000      1.00000000      1.00000000      1.00000000      1.00000000      1.00000000      1.00000000      1.00000000      1.00000000      1.00000000      1.00000000      1.00000000      1.00000000      1.00000000      1.00000000      1.00000000      1.00000000      1.00000000      1.00000000
      1.00000000      1.00000000      1.00000000      1.00000000      1.00000000      1.00000000      1.00000000      1.00000000      1.00000000      1.00000000      1.00000000      1.00000000</v>
    <i name="NUPDOWN">     -1.00000000</i>
    <i type="logical" name="LSORBIT"> F  </i>
    <v name="SAXIS">      0.00000000      0.00000000      1.00000000</v>
    <i type="logical" name="LSPIRAL"> F  </i>
    <v name="QSPIRAL">      0.00000000      0.00000000      0.00000000</v>
    <i type="logical" name="LZEROZ"> F  </i>
   </separator>
   <separator name="electronic exchange-correlation" >
    <i type="logical" name="LASPH"> F  </i>
    <i type="logical" name="LMETAGGA"> F  </i>
   </separator>
   <separator name="electronic convergence" >
    <i type="int" name="NELM">   200</i>
    <i type="int" name="NELMDL">     0</i>
    <i type="int" name="NELMIN">     2</i>
    <i name="ENINI">    800.00000000</i>
    <separator name="electronic convergence detail" >
     <i type="logical" name="LDIAG"> T  </i>
     <i type="logical" name="LSUBROT"> F  </i>
     <i name="WEIMIN">      0.00000000</i>
     <i name="EBREAK">      0.00000000</i>
     <i name="DEPER">      0.30000000</i>
     <i type="int" name="NRMM">     4</i>
     <i name="TIME">      0.40000000</i>
    </separator>
   </separator>
   <separator name="electronic mixer" >
    <i name="AMIX">      0.40000000</i>
    <i name="BMIX">      1.00000000</i>
    <i name="AMIN">      0.10000000</i>
    <i name="AMIX_MAG">      1.60000000</i>
    <i name="BMIX_MAG">      1.00000000</i>
    <separator name="electronic mixer details" >
     <i type="int" name="IMIX">     4</i>
     <i type="int" name="MAXMIX">   -45</i>
     <i name="WC">    100.00000000</i>
     <i type="int" name="INIMIX">     1</i>
     <i type="int" name="MIXPRE">     1</i>
     <i type="int" name="MREMOVE">     5</i>
    </separator>
   </separator>
   <separator name="electronic dipolcorrection" >
    <i type="logical" name="LDIPOL"> F  </i>
    <i type="logical" name="LMONO"> F  </i>
    <i type="int" name="IDIPOL">     0</i>
    <i name="EPSILON">      1.00000000</i>
    <v name="DIPOL">   -100.00000000   -100.00000000   -100.00000000</v>
    <i name="EFIELD">      0.00000000</i>
   </separator>
  </separator>
  <separator name="grids" >
   <i type="int" name="NGX">    48</i>
   <i type="int" name="NGY">    48</i>
   <i type="int" name="NGZ">   126</i>
   <i type="int" name="NGXF">    96</i>
   <i type="int" name="NGYF">    96</i>
   <i type="int" name="NGZF">   252</i>
   <i type="logical" name="ADDGRID"> F  </i>
  </separator>
  <separator name="ionic" >
   <i type="int" name="NSW">     0</i>
   <i type="int" name="IBRION">    -1</i>
   <i type="int" name="ISIF">     2</i>
   <i name="PSTRESS">      0.00000000</i>
   <i name="EDIFFG">      0.00100000</i>
   <i type="int" name="NFREE">     0</i>
   <i name="POTIM">      0.50000000</i>
   <i name="SMASS">     -3.00000000</i>
   <i name="SCALEE">      1.00000000</i>
  </separator>
  <separator name="ionic md" >
   <i name="TEBEG">      0.00010000</i>
   <i name="TEEND">      0.00010000</i>
   <i type="int" name="NBLOCK">     1</i>
   <i type="int" name="KBLOCK">     1</i>
   <i type="int" name="NPACO">   256</i>
   <i name="APACO">     16.00000000</i>
  </separator>
  <separator name="symmetry" >
   <i type="int" name="ISYM">     2</i>
   <i name="SYMPREC">      0.00001000</i>
  </separator>
  <separator name="dos" >
   <i type="logical" name="LORBIT"> F  </i>
   <v name="RWIGS">     -1.00000000</v>
   <i type="int" name="NEDOS">   301</i>
   <i name="EMIN">     10.00000000</i>
   <i name="EMAX">    -10.00000000</i>
   <i name="EFERMI">      0.00000000</i>
  </separator>
  <separator name="writing" >
   <i type="int" name="NWRITE">     2</i>
   <i type="logical" name="LWAVE"> F  </i>
   <i type="logical" name="LCHARG"> F  </i>
   <i type="logical" name="LPARD"> F  </i>
   <i type="logical" name="LVTOT"> F  </i>
   <i type="logical" name="LVHAR"> F  </i>
   <i type="logical" name="LELF"> F  </i>
   <i type="logical" name="LOPTICS"> F  </i>
   <v name="STM">      0.00000000      0.00000000      0.00000000      0.00000000      0.00000000      0.00000000      0.00000000</v>
  </separator>
  <separator name="performance" >
   <i type="int" name="NPAR">     6</i>
   <i type="int" name="NSIM">     4</i>
   <i type="int" name="NBLK">    -1</i>
   <i type="logical" name="LPLANE"> T  </i>
   <i type="logical" name="LSCALAPACK"> T  </i>
   <i type="logical" name="LSCAAWARE"> F  </i>
   <i type="logical" name="LSCALU"> F  </i>
   <i type="logical" name="LASYNC"> F  </i>
   <i type="logical" name="LORBITALREAL"> F  </i>
  </separator>
  <separator name="miscellaneous" >
   <i type="int" name="IDIOT">     3</i>
   <i type="logical" name="LMUSIC"> F  </i>
   <v name="POMASS">     12.01100000</v>
   <v name="DARWINR">      0.00000000</v>
   <v name="DARWINV">      1.00000000</v>
   <i type="logical" name="LCORR"> T  </i>
  </separator>
  <i type="logical" name="GGA_COMPAT"> T  </i>
  <i type="logical" name="LBERRY"> F  </i>
  <i type="int" name="ICORELEVEL">     0</i>
  <i type="logical" name="LDAU"> F  </i>
  <i type="int" name="I_CONSTRAINED_M">     0</i>
  <separator name="electronic exchange-correlation" >
   <i type="string" name="GGA">PE</i>
   <i type="int" name="VOSKOWN">     0</i>
   <i type="logical" name="LHFCALC"> F  </i>
   <i type="string" name="PRECFOCK"></i>
   <i type="logical" name="LSYMGRAD"> F  </i>
   <i type="logical" name="LHFONE"> F  </i>
   <i type="logical" name="LRHFCALC"> F  </i>
   <i type="logical" name="LTHOMAS"> F  </i>
   <i type="logical" name="LMODELHF"> F  </i>
   <i name="ENCUT4O">     -1.00000000</i>
   <i type="int" name="EXXOEP">     0</i>
   <i type="int" name="FOURORBIT">     0</i>
   <i name="AEXX">      0.00000000</i>
   <i name="HFALPHA">      0.00000000</i>
   <i name="MCALPHA">      0.00000000</i>
   <i name="ALDAX">      1.00000000</i>
   <i name="AGGAX">      1.00000000</i>
   <i name="ALDAC">      1.00000000</i>
   <i name="AGGAC">      1.00000000</i>
   <i type="int" name="NKREDX">     1</i>
   <i type="int" name="NKREDY">     1</i>
   <i type="int" name="NKREDZ">     1</i>
   <i type="logical" name="SHIFTRED"> F  </i>
   <i type="logical" name="ODDONLY"> F  </i>
   <i type="logical" name="EVENONLY"> F  </i>
   <i type="int" name="LMAXFOCK">     0</i>
   <i type="int" name="NMAXFOCKAE">     0</i>
   <i type="logical" name="LFOCKAEDFT"> F  </i>
   <i name="HFSCREEN">      0.00000000</i>
   <i name="HFSCREENC">      0.00000000</i>
   <i type="int" name="NBANDSGWLOW">     0</i>
  </separator>
  <separator name="vdW DFT" >
   <i type="logical" name="LUSE_VDW"> F  </i>
   <i name="Zab_VDW">     -0.84910000</i>
   <i name="PARAM1">      0.12340000</i>
   <i name="PARAM2">      1.00000000</i>
   <i name="PARAM3">      0.00000000</i>
  </separator>
  <separator name="model GW" >
   <i type="int" name="MODEL_GW">     0</i>
   <i name="MODEL_EPS0">      5.18597232</i>
   <i name="MODEL_ALPHA">      1.00000000</i>
  </separator>
  <separator name="linear response parameters" >
   <i type="logical" name="LEPSILON"> F  </i>
   <i type="logical" name="LRPA"> F  </i>
   <i type="logical" name="LNABLA"> F  </i>
   <i type="logical" name="LVEL"> F  </i>
   <i type="int" name="KINTER">     0</i>
   <i name="CSHIFT">      0.10000000</i>
   <i name="OMEGAMAX">     -1.00000000</i>
   <i name="DEG_THRESHOLD">      0.00200000</i>
  </separator>
  <separator name="orbital magnetization" >
   <i type="logical" name="NUCIND"> F  </i>
   <v name="MAGPOS">      0.00000000      0.00000000      0.00000000</v>
   <i type="logical" name="LNICSALL"> T  </i>
   <i type="logical" name="ORBITALMAG"> F  </i>
   <i type="logical" name="LMAGBLOCH"> F  </i>
   <i type="logical" name="LCHIMAG"> F  </i>
   <i type="logical" name="LGAUGE"> T  </i>
   <i type="int" name="MAGATOM">     0</i>
   <v name="MAGDIPOL">      0.00000000      0.00000000      0.00000000</v>
   <v name="AVECCONST">      0.00000000      0.00000000      0.00000000</v>
  </separator>
  <separator name="response functions" >
   <i type="logical" name="LADDER"> F  </i>
   <i type="logical" name="LFXC"> F  </i>
   <i type="logical" name="LHARTREE"> T  </i>
   <i type="int" name="IBSE">     0</i>
   <i type="logical" name="LTCTE"> F  </i>
   <i type="logical" name="LTETE"> F  </i>
   <i type="logical" name="LTRIPLET"> F  </i>
   <i type="logical" name="LFXCEPS"> F  </i>
   <i type="logical" name="LFXHEG"> F  </i>
   <i type="logical" name="L2ORDER"> F  </i>
   <i type="logical" name="LUSEW"> F  </i>
   <i name="ENCUTGW">     -2.00000000</i>
   <i name="ENCUTGWSOFT">     -2.00000000</i>
   <i name="ENCUTLF">     -1.00000000</i>
   <i type="int" name="LMAXMP2">    -1</i>
   <i name="SCISSOR">      0.00000000</i>
   <i type="int" name="NOMEGA">     0</i>
   <i type="int" name="NOMEGAR">     0</i>
   <i type="int" name="NBANDSGW">    -1</i>
   <i type="int" name="NBANDSO">    -1</i>
   <i type="int" name="NBANDSV">    -1</i>
   <i type="int" name="NELM">   200</i>
   <i type="int" name="DIM">     3</i>
   <i type="int" name="ANTIRES">     0</i>
   <i name="OMEGAMAX">    -30.00000000</i>
   <i name="OMEGAMIN">    -30.00000000</i>
   <i name="OMEGATL">   -200.00000000</i>
   <i type="int" name="OMEGAGRID">     0</i>
   <i name="CSHIFT">     -0.10000000</i>
   <i type="logical" name="SELFENERGY"> F  </i>
   <i type="logical" name="LSPECTRAL"> F  </i>
   <i type="logical" name="ODDONLYGW"> F  </i>
   <i type="logical" name="EVENONLYGW"> F  </i>
   <i type="int" name="NKREDLFX">     1</i>
   <i type="int" name="NKREDLFY">     1</i>
   <i type="int" name="NKREDLFZ">     1</i>
   <i type="int" name="MAXMEM">  1800</i>
   <i type="int" name="TELESCOPE">     0</i>
   <i type="int" name="TAUPAR">     1</i>
  </separator>
  <separator name="External order field" >
   <i name="OFIELD_KAPPA">      0.00000000</i>
   <v name="OFIELD_K">      0.00000000      0.00000000      0.00000000</v>
   <i name="OFIELD_Q6_NEAR">      0.00000000</i>
   <i name="OFIELD_Q6_FAR">      0.00000000</i>
   <i name="OFIELD_A">      0.00000000</i>
  </separator>
 </parameters>
 <atominfo>
  <atoms>      32 </atoms>
  <types>       1 </types>
  <array name="atoms" >
   <dimension dim="1">ion</dimension>
   <field type="string">element</field>
   <field type="int">atomtype</field>
   <set>
    <rc><c>C </c><c>   1</c></rc>
    <rc><c>C </c><c>   1</c></rc>
    <rc><c>C </c><c>   1</c></rc>
    <rc><c>C </c><c>   1</c></rc>
    <rc><c>C </c><c>   1</c></rc>
    <rc><c>C </c><c>   1</c></rc>
    <rc><c>C </c><c>   1</c></rc>
    <rc><c>C </c><c>   1</c></rc>
    <rc><c>C </c><c>   1</c></rc>
    <rc><c>C </c><c>   1</c></rc>
    <rc><c>C </c><c>   1</c></rc>
    <rc><c>C </c><c>   1</c></rc>
    <rc><c>C </c><c>   1</c></rc>
    <rc><c>C </c><c>   1</c></rc>
    <rc><c>C </c><c>   1</c></rc>
    <rc><c>C </c><c>   1</c></rc>
    <rc><c>C </c><c>   1</c></rc>
    <rc><c>C </c><c>   1</c></rc>
    <rc><c>C </c><c>   1</c></rc>
    <rc><c>C </c><c>   1</c></rc>
    <rc><c>C </c><c>   1</c></rc>
    <rc><c>C </c><c>   1</c></rc>
    <rc><c>C </c><c>   1</c></rc>
    <rc><c>C </c><c>   1</c></rc>
    <rc><c>C </c><c>   1</c></rc>
    <rc><c>C </c><c>   1</c></rc>
    <rc><c>C </c><c>   1</c></rc>
    <rc><c>C </c><c>   1</c></rc>
    <rc><c>C </c><c>   1</c></rc>
    <rc><c>C </c><c>   1</c></rc>
    <rc><c>C </c><c>   1</c></rc>
    <rc><c>C </c><c>   1</c></rc>
   </set>
  </array>
  <array name="atomtypes" >
   <dimension dim="1">type</dimension>
   <field type="int">atomspertype</field>
   <field type="string">element</field>
   <field>mass</field>
   <field>valence</field>
   <field type="string">pseudopotential</field>
   <set>
    <rc><c>  32</c><c>C </c><c>     12.01100000</c><c>      4.00000000</c><c> PAW_PBE C 08Apr2002                    </c></rc>
   </set>
  </array>
 </atominfo>
 <structure name="initialpos" >
  <crystal>
   <varray name="basis" >
    <v>       4.93287450      -0.00191929       0.00000000 </v>
    <v>      -2.46809940       4.27103499       0.00000000 </v>
    <v>       0.00000000       0.00000000      13.13086644 </v>
   </varray>
   <i name="volume">    276.58519049 </i>
   <varray name="rec_basis" >
    <v>       0.20276715       0.11717288       0.00000000 </v>
    <v>       0.00009112       0.23418794       0.00000000 </v>
    <v>       0.00000000       0.00000000       0.07615644 </v>
   </varray>
  </crystal>
  <varray name="positions" >
   <v>       0.49896039       0.00032672       0.12428708 </v>
   <v>       0.99967330       0.00032672       0.12500000 </v>
   <v>       0.49967330       0.50032672       0.12500000 </v>
   <v>       0.99967330       0.50032672       0.12500000 </v>
   <v>       0.49967330       0.00032672       0.62500000 </v>
   <v>       0.99967330       0.00032672       0.62500000 </v>
   <v>       0.49967330       0.50032672       0.62500000 </v>
   <v>       0.99967330       0.50032672       0.62500000 </v>
   <v>       0.00032672       0.49967330       0.37500000 </v>
   <v>       0.50032672       0.49967330       0.37500000 </v>
   <v>       0.00032672       0.99967330       0.37500000 </v>
   <v>       0.50032672       0.99967330       0.37500000 </v>
   <v>       0.00032672       0.49967330       0.87500000 </v>
   <v>       0.50032672       0.49967330       0.87500000 </v>
   <v>       0.00032672       0.99967330       0.87500000 </v>
   <v>       0.50032672       0.99967330       0.87500000 </v>
   <v>       0.16629246       0.33370753       0.12500000 </v>
   <v>       0.66629246       0.33370753       0.12500000 </v>
   <v>       0.16629246       0.83370753       0.12500000 </v>
   <v>       0.66629246       0.83370753       0.12500000 </v>
   <v>       0.16629246       0.33370753       0.62500000 </v>
   <v>       0.66629246       0.33370753       0.62500000 </v>
   <v>       0.16629246       0.83370753       0.62500000 </v>
   <v>       0.66629246       0.83370753       0.62500000 </v>
   <v>       0.33370753       0.16629246       0.37500000 </v>
   <v>       0.83370753       0.16629246       0.37500000 </v>
   <v>       0.33370753       0.66629246       0.37500000 </v>
   <v>       0.83370753       0.66629246       0.37500000 </v>
   <v>       0.33370753       0.16629246       0.87500000 </v>
   <v>       0.83370753       0.16629246       0.87500000 </v>
   <v>       0.33370753       0.66629246       0.87500000 </v>
   <v>       0.83370753       0.66629246       0.87500000 </v>
  </varray>
 </structure>
 <calculation>
  <scstep>
   <time name="dav">  356.89  713.25</time>
   <time name="total">  358.30  715.68</time>
   <energy>
    <i name="alphaZ">    301.66361325 </i>
    <i name="ewald">  -3791.66601115 </i>
    <i name="hartreedc">  -1120.42036613 </i>
    <i name="XCdc">    443.42010439 </i>
    <i name="pawpsdc">   1210.60617908 </i>
    <i name="pawaedc">  -1247.42152856 </i>
    <i name="eentropy">      0.00000000 </i>
    <i name="bandstr">    192.67957512 </i>
    <i name="atom">   4708.94155045 </i>
    <i name="e_fr_energy">    697.80311645 </i>
    <i name="e_wo_entrp">    697.80311645 </i>
    <i name="e_0_energy">    697.80311645 </i>
   </energy>
  </scstep>
  <scstep>
   <time name="dav">  409.47  817.03</time>
   <time name="total">  409.57  817.23</time>
   <energy>
    <i name="e_fr_energy">   -255.34895431 </i>
    <i name="e_wo_entrp">   -255.34895431 </i>
    <i name="e_0_energy">   -255.34895431 </i>
   </energy>
  </scstep>
  <scstep>
   <time name="dav">  403.39  807.18</time>
   <time name="total">  403.49  807.40</time>
   <energy>
    <i name="e_fr_energy">   -312.32347269 </i>
    <i name="e_wo_entrp">   -312.32347269 </i>
    <i name="e_0_energy">   -312.32347269 </i>
   </energy>
  </scstep>
  <scstep>
   <time name="dav">  409.44  819.27</time>
   <time name="total">  409.52  819.44</time>
   <energy>
    <i name="e_fr_energy">   -313.44071112 </i>
    <i name="e_wo_entrp">   -313.44071112 </i>
    <i name="e_0_energy">   -313.44071112 </i>
   </energy>
  </scstep>
  <scstep>
   <time name="dav">  416.71  833.85</time>
   <time name="total">  423.69  847.85</time>
   <energy>
    <i name="e_fr_energy">   -313.47375736 </i>
    <i name="e_wo_entrp">   -313.47375736 </i>
    <i name="e_0_energy">   -313.47375736 </i>
   </energy>
  </scstep>
  <scstep>
   <time name="dav">  393.84  788.06</time>
   <time name="total">  402.90  806.21</time>
   <energy>
    <i name="e_fr_energy">   -299.14778015 </i>
    <i name="e_wo_entrp">   -299.14778015 </i>
    <i name="e_0_energy">   -299.14778015 </i>
   </energy>
  </scstep>
  <scstep>
   <time name="dav">  379.83  760.04</time>
   <time name="total">  389.37  779.13</time>
   <energy>
    <i name="e_fr_energy">   -294.62927492 </i>
    <i name="e_wo_entrp">   -294.62927492 </i>
    <i name="e_0_energy">   -294.62927492 </i>
   </energy>
  </scstep>
  <scstep>
   <time name="dav">  384.22  768.81</time>
   <time name="total">  392.32  785.03</time>
   <energy>
    <i name="e_fr_energy">   -294.69014145 </i>
    <i name="e_wo_entrp">   -294.69014145 </i>
    <i name="e_0_energy">   -294.69014145 </i>
   </energy>
  </scstep>
  <scstep>
   <time name="dav">  390.25  780.89</time>
   <time name="total">  398.65  797.68</time>
   <energy>
    <i name="e_fr_energy">   -294.69172362 </i>
    <i name="e_wo_entrp">   -294.69172362 </i>
    <i name="e_0_energy">   -294.69172362 </i>
   </energy>
  </scstep>
  <scstep>
   <time name="dav">  395.43  791.25</time>
   <time name="total">  403.17  806.75</time>
   <energy>
    <i name="e_fr_energy">   -294.68764977 </i>
    <i name="e_wo_entrp">   -294.68764977 </i>
    <i name="e_0_energy">   -294.68764977 </i>
   </energy>
  </scstep>
  <scstep>
   <time name="dav">  424.63  849.68</time>
   <time name="total">  432.56  865.55</time>
   <energy>
    <i name="e_fr_energy">   -294.68746482 </i>
    <i name="e_wo_entrp">   -294.68746482 </i>
    <i name="e_0_energy">   -294.68746482 </i>
   </energy>
  </scstep>
  <scstep>
   <time name="dav">  373.23  746.82</time>
   <time name="total">  380.85  762.07</time>
   <energy>
    <i name="e_fr_energy">   -294.68771127 </i>
    <i name="e_wo_entrp">   -294.68771127 </i>
    <i name="e_0_energy">   -294.68771127 </i>
   </energy>
  </scstep>
  <scstep>
   <time name="dav">  339.70  676.74</time>
   <time name="total">  347.02  691.40</time>
   <energy>
    <i name="e_fr_energy">   -294.68790657 </i>
    <i name="e_wo_entrp">   -294.68790657 </i>
    <i name="e_0_energy">   -294.68790657 </i>
   </energy>
  </scstep>
  <scstep>
   <time name="dav">  262.44  525.14</time>
   <time name="total">  269.51  539.30</time>
   <energy>
    <i name="e_fr_energy">   -294.68811717 </i>
    <i name="e_wo_entrp">   -294.68811717 </i>
    <i name="e_0_energy">   -294.68811717 </i>
   </energy>
  </scstep>
  <scstep>
   <time name="dav">  269.49  539.27</time>
   <time name="total">  276.69  553.66</time>
   <energy>
    <i name="e_fr_energy">   -294.68785244 </i>
    <i name="e_wo_entrp">   -294.68785244 </i>
    <i name="e_0_energy">   -294.68785244 </i>
   </energy>
  </scstep>
  <scstep>
   <time name="dav">  241.61  483.49</time>
   <time name="total">  248.80  497.90</time>
   <energy>
    <i name="e_fr_energy">   -294.68783724 </i>
    <i name="e_wo_entrp">   -294.68783724 </i>
    <i name="e_0_energy">   -294.68783724 </i>
   </energy>
  </scstep>
  <scstep>
   <time name="dav">  237.78  475.80</time>
   <time name="total">  244.85  489.95</time>
   <energy>
    <i name="e_fr_energy">   -294.68783762 </i>
    <i name="e_wo_entrp">   -294.68783762 </i>
    <i name="e_0_energy">   -294.68783762 </i>
   </energy>
  </scstep>
  <scstep>
   <time name="dav">  274.50  549.29</time>
   <time name="total">  281.54  563.37</time>
   <energy>
    <i name="e_fr_energy">   -294.68783593 </i>
    <i name="e_wo_entrp">   -294.68783593 </i>
    <i name="e_0_energy">   -294.68783593 </i>
   </energy>
  </scstep>
  <scstep>
   <time name="dav">  288.93  578.15</time>
   <time name="total">  296.39  593.10</time>
   <energy>
    <i name="e_fr_energy">   -294.68783592 </i>
    <i name="e_wo_entrp">   -294.68783592 </i>
    <i name="e_0_energy">   -294.68783592 </i>
   </energy>
  </scstep>
  <scstep>
   <time name="dav">  294.83  589.98</time>
   <time name="total">  302.44  605.21</time>
   <energy>
    <i name="e_fr_energy">   -294.68784730 </i>
    <i name="e_wo_entrp">   -294.68784730 </i>
    <i name="e_0_energy">   -294.68784730 </i>
   </energy>
  </scstep>
  <scstep>
   <time name="dav">  321.32  642.96</time>
   <time name="total">  328.88  658.10</time>
   <energy>
    <i name="e_fr_energy">   -294.68783446 </i>
    <i name="e_wo_entrp">   -294.68783446 </i>
    <i name="e_0_energy">   -294.68783446 </i>
   </energy>
  </scstep>
  <scstep>
   <time name="dav">  246.40  493.09</time>
   <time name="total">  254.07  508.45</time>
   <energy>
    <i name="e_fr_energy">   -294.68783463 </i>
    <i name="e_wo_entrp">   -294.68783463 </i>
    <i name="e_0_energy">   -294.68783463 </i>
   </energy>
  </scstep>
  <scstep>
   <time name="dav">  221.79  443.81</time>
   <time name="total">  222.84  445.90</time>
   <energy>
    <i name="alphaZ">    301.66361325 </i>
    <i name="ewald">  -3791.66601115 </i>
    <i name="hartreedc">  -1391.95299641 </i>
    <i name="XCdc">    461.33628678 </i>
    <i name="pawpsdc">   2223.18738698 </i>
    <i name="pawaedc">  -2264.40773765 </i>
    <i name="eentropy">      0.00000000 </i>
    <i name="bandstr">   -541.78992688 </i>
    <i name="atom">   4708.94155045 </i>
    <i name="e_fr_energy">   -294.68783462 </i>
    <i name="e_wo_entrp">   -294.68783462 </i>
    <i name="e_0_energy">   -294.68783462 </i>
   </energy>
  </scstep>
  <structure>
   <crystal>
    <varray name="basis" >
     <v>       4.93287450      -0.00191929       0.00000000 </v>
     <v>      -2.46809940       4.27103499       0.00000000 </v>
     <v>       0.00000000       0.00000000      13.13086644 </v>
    </varray>
    <i name="volume">    276.58519049 </i>
    <varray name="rec_basis" >
     <v>       0.20276715       0.11717288       0.00000000 </v>
     <v>       0.00009112       0.23418794       0.00000000 </v>
     <v>       0.00000000       0.00000000       0.07615644 </v>
    </varray>
   </crystal>
   <varray name="positions" >
    <v>       0.49896039       0.00032672       0.12428708 </v>
    <v>       0.99967330       0.00032672       0.12500000 </v>
    <v>       0.49967330       0.50032672       0.12500000 </v>
    <v>       0.99967330       0.50032672       0.12500000 </v>
    <v>       0.49967330       0.00032672       0.62500000 </v>
    <v>       0.99967330       0.00032672       0.62500000 </v>
    <v>       0.49967330       0.50032672       0.62500000 </v>
    <v>       0.99967330       0.50032672       0.62500000 </v>
    <v>       0.00032672       0.49967330       0.37500000 </v>
    <v>       0.50032672       0.49967330       0.37500000 </v>
    <v>       0.00032672       0.99967330       0.37500000 </v>
    <v>       0.50032672       0.99967330       0.37500000 </v>
    <v>       0.00032672       0.49967330       0.87500000 </v>
    <v>       0.50032672       0.49967330       0.87500000 </v>
    <v>       0.00032672       0.99967330       0.87500000 </v>
    <v>       0.50032672       0.99967330       0.87500000 </v>
    <v>       0.16629246       0.33370753       0.12500000 </v>
    <v>       0.66629246       0.33370753       0.12500000 </v>
    <v>       0.16629246       0.83370753       0.12500000 </v>
    <v>       0.66629246       0.83370753       0.12500000 </v>
    <v>       0.16629246       0.33370753       0.62500000 </v>
    <v>       0.66629246       0.33370753       0.62500000 </v>
    <v>       0.16629246       0.83370753       0.62500000 </v>
    <v>       0.66629246       0.83370753       0.62500000 </v>
    <v>       0.33370753       0.16629246       0.37500000 </v>
    <v>       0.83370753       0.16629246       0.37500000 </v>
    <v>       0.33370753       0.66629246       0.37500000 </v>
    <v>       0.83370753       0.66629246       0.37500000 </v>
    <v>       0.33370753       0.16629246       0.87500000 </v>
    <v>       0.83370753       0.16629246       0.87500000 </v>
    <v>       0.33370753       0.66629246       0.87500000 </v>
    <v>       0.83370753       0.66629246       0.87500000 </v>
   </varray>
  </structure>
  <varray name="forces" >
   <v>       0.20228753       0.00801541       0.13149768 </v>
   <v>      -0.05411835       0.00699517       0.00165561 </v>
   <v>      -0.01654997       0.02870800       0.00172438 </v>
   <v>      -0.01665600      -0.01470539       0.00167294 </v>
   <v>      -0.01144116       0.00733788      -0.00515515 </v>
   <v>      -0.01148148       0.00733930      -0.00520062 </v>
   <v>      -0.01146239       0.00734740      -0.00520013 </v>
   <v>      -0.01147069       0.00732913      -0.00520093 </v>
   <v>       0.01235819      -0.00820658       0.00530765 </v>
   <v>       0.01258495      -0.00810811       0.00539457 </v>
   <v>       0.01239093      -0.00835635       0.00534876 </v>
   <v>       0.01257686      -0.00820465       0.00440660 </v>
   <v>       0.01307963      -0.00684380       0.00535562 </v>
   <v>       0.01283289      -0.00676216       0.00526278 </v>
   <v>       0.01288808      -0.00657569       0.00531243 </v>
   <v>       0.01305622      -0.00670714       0.00456046 </v>
   <v>       0.01312379      -0.00575371      -0.01180244 </v>
   <v>      -0.01477325      -0.00624770      -0.04629104 </v>
   <v>      -0.06147914      -0.03269641      -0.04585930 </v>
   <v>      -0.06086726       0.02080534      -0.04664263 </v>
   <v>       0.00914994      -0.00595474       0.00078920 </v>
   <v>       0.00914808      -0.00594629       0.00076689 </v>
   <v>       0.00914411      -0.00595150       0.00076531 </v>
   <v>       0.00914779      -0.00594989       0.00076324 </v>
   <v>      -0.01022492       0.00679608      -0.00135546 </v>
   <v>      -0.01084839       0.00667308      -0.00140502 </v>
   <v>      -0.01042569       0.00725422      -0.00139363 </v>
   <v>      -0.01063047       0.00691323      -0.00050424 </v>
   <v>      -0.01072335       0.00565215      -0.00142502 </v>
   <v>      -0.00996290       0.00552232      -0.00133071 </v>
   <v>      -0.01022874       0.00491862      -0.00134444 </v>
   <v>      -0.01042482       0.00536279      -0.00047335 </v>
  </varray>
  <varray name="stress" >
   <v>      -4.01632264       2.94303608       0.09864453 </v>
   <v>       2.94303611      -0.76986224      -0.04580147 </v>
   <v>       0.09864453      -0.04580151       7.50490601 </v>
  </varray>
  <energy>
   <i name="e_fr_energy">   -299.82128012 </i>
   <i name="e_wo_entrp">   -299.82128012 </i>
   <i name="e_0_energy">      0.00000000 </i>
  </energy>
  <time name="totalsc"> 7983.0015967.62</time>
  <eigenvalues>
   <array>
    <dimension dim="1">band</dimension>
    <dimension dim="2">kpoint</dimension>
    <dimension dim="3">spin</dimension>
    <field>eigene</field>
    <field>occ</field>
    <set>
     <set comment="spin 1">
      <set comment="kpoint 1">
       <r>  -14.7857    1.0000 </r>
       <r>  -14.6157    1.0000 </r>
       <r>  -14.6150    1.0000 </r>
       <r>  -14.4313    1.0000 </r>
       <r>   -9.4503    1.0000 </r>
       <r>   -9.4401    1.0000 </r>
       <r>   -9.4378    1.0000 </r>
       <r>   -9.3781    1.0000 </r>
       <r>   -9.3765    1.0000 </r>
       <r>   -9.3661    1.0000 </r>
       <r>   -9.3648    1.0000 </r>
       <r>   -9.3648    1.0000 </r>
       <r>   -9.3607    1.0000 </r>
       <r>   -9.3189    1.0000 </r>
       <r>   -9.3059    1.0000 </r>
       <r>   -9.3026    1.0000 </r>
       <r>   -8.3640    1.0000 </r>
       <r>   -8.3622    1.0000 </r>
       <r>   -8.3605    1.0000 </r>
       <r>   -8.3282    1.0000 </r>
       <r>   -8.3275    1.0000 </r>
       <r>   -8.3253    1.0000 </r>
       <r>   -8.3250    1.0000 </r>
       <r>   -8.3249    1.0000 </r>
       <r>   -8.3221    1.0000 </r>
       <r>   -8.2630    1.0000 </r>
       <r>   -8.2624    1.0000 </r>
       <r>   -8.2605    1.0000 </r>
       <r>   -3.7273    1.0000 </r>
       <r>   -2.7446    1.0000 </r>
       <r>   -2.7428    1.0000 </r>
       <r>   -1.5381    1.0000 </r>
       <r>   -1.5361    1.0000 </r>
       <r>   -1.5357    1.0000 </r>
       <r>   -1.5201    1.0000 </r>
       <r>   -1.5046    1.0000 </r>
       <r>   -1.5038    1.0000 </r>
       <r>   -1.5038    1.0000 </r>
       <r>   -1.4995    1.0000 </r>
       <r>   -1.4869    1.0000 </r>
       <r>   -1.4851    1.0000 </r>
       <r>   -1.4697    1.0000 </r>
       <r>   -1.4669    1.0000 </r>
       <r>   -1.4516    1.0000 </r>
       <r>    1.8631    1.0000 </r>
       <r>    1.8713    1.0000 </r>
       <r>    1.8733    1.0000 </r>
       <r>    1.8789    1.0000 </r>
       <r>    1.8845    1.0000 </r>
       <r>    1.8894    1.0000 </r>
       <r>    1.8920    1.0000 </r>
       <r>    1.8997    1.0000 </r>
       <r>    2.0467    1.0000 </r>
       <r>    2.0487    1.0000 </r>
       <r>    2.0501    1.0000 </r>
       <r>    2.5068    1.0000 </r>
       <r>    2.5103    1.0000 </r>
       <r>    2.5170    1.0000 </r>
       <r>    2.5175    1.0000 </r>
       <r>    2.5177    1.0000 </r>
       <r>    2.5224    1.0000 </r>
       <r>    2.8021    1.0000 </r>
       <r>    2.8216    1.0000 </r>
       <r>    2.8243    1.0000 </r>
       <r>    6.3925    0.0000 </r>
       <r>    6.3958    0.0000 </r>
       <r>    6.4035    0.0000 </r>
       <r>    6.5178    0.0000 </r>
       <r>    6.5200    0.0000 </r>
       <r>    6.5224    0.0000 </r>
       <r>    6.5244    0.0000 </r>
       <r>    6.5248    0.0000 </r>
       <r>    6.5276    0.0000 </r>
       <r>    7.1140    0.0000 </r>
       <r>    7.1214    0.0000 </r>
       <r>    7.1239    0.0000 </r>
       <r>    9.3664    0.0000 </r>
       <r>   12.0353    0.0000 </r>
       <r>   12.0393    0.0000 </r>
       <r>   12.0709    0.0000 </r>
       <r>   12.1768    0.0000 </r>
       <r>   12.1814    0.0000 </r>
       <r>   12.2616    0.0000 </r>
       <r>   12.2659    0.0000 </r>
      </set>
      <set comment="kpoint 2">
       <r>  -14.6198    1.0000 </r>
       <r>  -14.4514    1.0000 </r>
       <r>  -14.4507    1.0000 </r>
       <r>  -14.2688    1.0000 </r>
       <r>  -10.7592    1.0000 </r>
       <r>  -10.6290    1.0000 </r>
       <r>  -10.6284    1.0000 </r>
       <r>  -10.4909    1.0000 </r>
       <r>   -9.8848    1.0000 </r>
       <r>   -9.8776    1.0000 </r>
       <r>   -9.7699    1.0000 </r>
       <r>   -9.7694    1.0000 </r>
       <r>   -9.7623    1.0000 </r>
       <r>   -9.7613    1.0000 </r>
       <r>   -9.6502    1.0000 </r>
       <r>   -9.6421    1.0000 </r>
       <r>   -7.7566    1.0000 </r>
       <r>   -7.7507    1.0000 </r>
       <r>   -7.6659    1.0000 </r>
       <r>   -7.6636    1.0000 </r>
       <r>   -7.6589    1.0000 </r>
       <r>   -7.6579    1.0000 </r>
       <r>   -7.5650    1.0000 </r>
       <r>   -7.5586    1.0000 </r>
       <r>   -6.9136    1.0000 </r>
       <r>   -6.8193    1.0000 </r>
       <r>   -6.8180    1.0000 </r>
       <r>   -6.7188    1.0000 </r>
       <r>   -3.5259    1.0000 </r>
       <r>   -2.5490    1.0000 </r>
       <r>   -2.5473    1.0000 </r>
       <r>   -2.0311    1.0000 </r>
       <r>   -2.0144    1.0000 </r>
       <r>   -1.9896    1.0000 </r>
       <r>   -1.9893    1.0000 </r>
       <r>   -1.9734    1.0000 </r>
       <r>   -1.9717    1.0000 </r>
       <r>   -1.9468    1.0000 </r>
       <r>   -1.9300    1.0000 </r>
       <r>   -1.3734    1.0000 </r>
       <r>   -1.3489    1.0000 </r>
       <r>   -1.3414    1.0000 </r>
       <r>   -1.3382    1.0000 </r>
       <r>   -1.3058    1.0000 </r>
       <r>    0.9410    1.0000 </r>
       <r>    1.2097    1.0000 </r>
       <r>    1.2293    1.0000 </r>
       <r>    1.2334    1.0000 </r>
       <r>    1.2526    1.0000 </r>
       <r>    1.5230    1.0000 </r>
       <r>    1.5386    1.0000 </r>
       <r>    1.5437    1.0000 </r>
       <r>    1.5601    1.0000 </r>
       <r>    1.6699    1.0000 </r>
       <r>    1.6726    1.0000 </r>
       <r>    1.8116    1.0000 </r>
       <r>    1.8155    1.0000 </r>
       <r>    2.3994    1.0000 </r>
       <r>    2.4026    1.0000 </r>
       <r>    2.4082    1.0000 </r>
       <r>    2.4098    1.0000 </r>
       <r>    2.4587    1.0000 </r>
       <r>    2.9204    1.0000 </r>
       <r>    2.9351    1.0000 </r>
       <r>    6.5484    0.0000 </r>
       <r>    6.5524    0.0000 </r>
       <r>    6.7995    0.0000 </r>
       <r>    6.8029    0.0000 </r>
       <r>    6.8053    0.0000 </r>
       <r>    6.8085    0.0000 </r>
       <r>    7.1962    0.0000 </r>
       <r>    7.3932    0.0000 </r>
       <r>    7.3999    0.0000 </r>
       <r>    7.6233    0.0000 </r>
       <r>    7.6267    0.0000 </r>
       <r>    8.2965    0.0000 </r>
       <r>    9.5641    0.0000 </r>
       <r>   12.1298    0.0000 </r>
       <r>   12.3376    0.0000 </r>
       <r>   12.3419    0.0000 </r>
       <r>   12.3472    0.0000 </r>
       <r>   12.3489    0.0000 </r>
       <r>   12.5684    0.0000 </r>
       <r>   12.7966    0.0000 </r>
      </set>
      <set comment="kpoint 3">
       <r>  -14.1240    1.0000 </r>
       <r>  -13.9602    1.0000 </r>
       <r>  -13.9596    1.0000 </r>
       <r>  -13.7833    1.0000 </r>
       <r>  -12.1723    1.0000 </r>
       <r>  -12.0272    1.0000 </r>
       <r>  -12.0266    1.0000 </r>
       <r>  -11.8720    1.0000 </r>
       <r>  -10.3092    1.0000 </r>
       <r>  -10.3055    1.0000 </r>
       <r>  -10.1841    1.0000 </r>
       <r>  -10.1836    1.0000 </r>
       <r>  -10.1804    1.0000 </r>
       <r>  -10.1790    1.0000 </r>
       <r>  -10.0514    1.0000 </r>
       <r>  -10.0475    1.0000 </r>
       <r>   -6.5821    1.0000 </r>
       <r>   -6.5731    1.0000 </r>
       <r>   -6.4970    1.0000 </r>
       <r>   -6.4946    1.0000 </r>
       <r>   -6.4873    1.0000 </r>
       <r>   -6.4860    1.0000 </r>
       <r>   -6.4055    1.0000 </r>
       <r>   -6.3966    1.0000 </r>
       <r>   -4.7948    1.0000 </r>
       <r>   -4.7164    1.0000 </r>
       <r>   -4.7149    1.0000 </r>
       <r>   -4.6338    1.0000 </r>
       <r>   -3.1908    1.0000 </r>
       <r>   -3.1767    1.0000 </r>
       <r>   -3.1370    1.0000 </r>
       <r>   -3.1368    1.0000 </r>
       <r>   -3.1236    1.0000 </r>
       <r>   -3.1218    1.0000 </r>
       <r>   -3.0806    1.0000 </r>
       <r>   -3.0665    1.0000 </r>
       <r>   -2.9259    1.0000 </r>
       <r>   -1.9677    1.0000 </r>
       <r>   -1.9660    1.0000 </r>
       <r>   -0.8991    1.0000 </r>
       <r>   -0.8684    1.0000 </r>
       <r>   -0.8650    1.0000 </r>
       <r>   -0.8342    1.0000 </r>
       <r>   -0.7944    1.0000 </r>
       <r>   -0.6146    1.0000 </r>
       <r>   -0.4476    1.0000 </r>
       <r>   -0.4098    1.0000 </r>
       <r>   -0.4067    1.0000 </r>
       <r>   -0.3687    1.0000 </r>
       <r>    0.2472    1.0000 </r>
       <r>    0.2493    1.0000 </r>
       <r>    0.7223    1.0000 </r>
       <r>    0.7453    1.0000 </r>
       <r>    0.7499    1.0000 </r>
       <r>    0.7733    1.0000 </r>
       <r>    1.2715    1.0000 </r>
       <r>    1.4975    1.0000 </r>
       <r>    1.5007    1.0000 </r>
       <r>    2.2108    1.0000 </r>
       <r>    2.2139    1.0000 </r>
       <r>    2.2168    1.0000 </r>
       <r>    2.2182    1.0000 </r>
       <r>    2.9881    1.0000 </r>
       <r>    2.9955    1.0000 </r>
       <r>    7.0184    0.0000 </r>
       <r>    7.0211    0.0000 </r>
       <r>    7.3768    0.0000 </r>
       <r>    7.3791    0.0000 </r>
       <r>    7.3815    0.0000 </r>
       <r>    7.3852    0.0000 </r>
       <r>    7.8524    0.0000 </r>
       <r>    7.8556    0.0000 </r>
       <r>    9.3273    0.0000 </r>
       <r>    9.7639    0.0000 </r>
       <r>    9.7669    0.0000 </r>
       <r>   10.1591    0.0000 </r>
       <r>   10.3393    0.0000 </r>
       <r>   12.3048    0.0000 </r>
       <r>   12.5280    0.0000 </r>
       <r>   12.5820    0.0000 </r>
       <r>   12.5841    0.0000 </r>
       <r>   12.7614    0.0000 </r>
       <r>   12.7637    0.0000 </r>
       <r>   12.9467    0.0000 </r>
      </set>
      <set comment="kpoint 4">
       <r>  -13.3055    1.0000 </r>
       <r>  -13.3026    1.0000 </r>
       <r>  -13.1505    1.0000 </r>
       <r>  -13.1480    1.0000 </r>
       <r>  -13.1480    1.0000 </r>
       <r>  -13.1447    1.0000 </r>
       <r>  -12.9817    1.0000 </r>
       <r>  -12.9788    1.0000 </r>
       <r>  -10.4582    1.0000 </r>
       <r>  -10.4565    1.0000 </r>
       <r>  -10.3311    1.0000 </r>
       <r>  -10.3298    1.0000 </r>
       <r>  -10.3298    1.0000 </r>
       <r>  -10.3275    1.0000 </r>
       <r>  -10.1955    1.0000 </r>
       <r>  -10.1937    1.0000 </r>
       <r>   -5.6633    1.0000 </r>
       <r>   -5.6615    1.0000 </r>
       <r>   -5.6158    1.0000 </r>
       <r>   -5.6158    1.0000 </r>
       <r>   -5.6149    1.0000 </r>
       <r>   -5.6107    1.0000 </r>
       <r>   -5.5705    1.0000 </r>
       <r>   -5.5681    1.0000 </r>
       <r>   -4.0705    1.0000 </r>
       <r>   -4.0687    1.0000 </r>
       <r>   -4.0422    1.0000 </r>
       <r>   -4.0395    1.0000 </r>
       <r>   -4.0387    1.0000 </r>
       <r>   -4.0386    1.0000 </r>
       <r>   -4.0016    1.0000 </r>
       <r>   -4.0004    1.0000 </r>
       <r>   -2.5708    1.0000 </r>
       <r>   -2.5674    1.0000 </r>
       <r>   -2.5138    1.0000 </r>
       <r>   -2.5086    1.0000 </r>
       <r>   -2.5086    1.0000 </r>
       <r>   -2.5077    1.0000 </r>
       <r>   -2.4499    1.0000 </r>
       <r>   -2.4471    1.0000 </r>
       <r>   -1.9436    1.0000 </r>
       <r>   -1.9413    1.0000 </r>
       <r>   -1.0205    1.0000 </r>
       <r>   -1.0183    1.0000 </r>
       <r>   -1.0182    1.0000 </r>
       <r>   -1.0145    1.0000 </r>
       <r>   -0.1651    1.0000 </r>
       <r>   -0.1613    1.0000 </r>
       <r>   -0.1360    1.0000 </r>
       <r>   -0.1350    1.0000 </r>
       <r>   -0.1349    1.0000 </r>
       <r>   -0.1266    1.0000 </r>
       <r>   -0.1057    1.0000 </r>
       <r>   -0.0988    1.0000 </r>
       <r>    0.1010    1.0000 </r>
       <r>    0.1037    1.0000 </r>
       <r>    1.3750    1.0000 </r>
       <r>    1.3770    1.0000 </r>
       <r>    2.1267    1.0000 </r>
       <r>    2.1303    1.0000 </r>
       <r>    2.1308    1.0000 </r>
       <r>    2.1323    1.0000 </r>
       <r>    2.9875    1.0000 </r>
       <r>    2.9900    1.0000 </r>
       <r>    7.3384    0.0000 </r>
       <r>    7.3409    0.0000 </r>
       <r>    7.6829    0.0000 </r>
       <r>    7.6840    0.0000 </r>
       <r>    7.6846    0.0000 </r>
       <r>    7.6896    0.0000 </r>
       <r>    8.0305    0.0000 </r>
       <r>    8.0334    0.0000 </r>
       <r>   11.1416    0.0000 </r>
       <r>   11.1427    0.0000 </r>
       <r>   11.7692    0.0000 </r>
       <r>   11.7728    0.0000 </r>
       <r>   12.0448    0.0000 </r>
       <r>   12.0498    0.0000 </r>
       <r>   12.0512    0.0000 </r>
       <r>   12.0542    0.0000 </r>
       <r>   12.4923    0.0000 </r>
       <r>   12.4957    0.0000 </r>
       <r>   12.7914    0.0000 </r>
       <r>   12.7942    0.0000 </r>
      </set>
      <set comment="kpoint 5">
       <r>  -14.6198    1.0000 </r>
       <r>  -14.4513    1.0000 </r>
       <r>  -14.4507    1.0000 </r>
[...]
       <r>   -4.0142    1.0000 </r>
       <r>   -4.0141    1.0000 </r>
       <r>   -4.0127    1.0000 </r>
       <r>   -4.0095    1.0000 </r>
       <r>   -2.5635    1.0000 </r>
       <r>   -2.5631    1.0000 </r>
       <r>   -2.5631    1.0000 </r>
       <r>   -2.5577    1.0000 </r>
       <r>   -2.4784    1.0000 </r>
       <r>   -2.4779    1.0000 </r>
       <r>   -2.4779    1.0000 </r>
       <r>   -2.4716    1.0000 </r>
       <r>   -1.6907    1.0000 </r>
       <r>   -1.6879    1.0000 </r>
       <r>   -1.6878    1.0000 </r>
       <r>   -1.6855    1.0000 </r>
       <r>   -0.2606    1.0000 </r>
       <r>   -0.2573    1.0000 </r>
       <r>   -0.2572    1.0000 </r>
       <r>   -0.2547    1.0000 </r>
       <r>   -0.1492    1.0000 </r>
       <r>   -0.1393    1.0000 </r>
       <r>   -0.1393    1.0000 </r>
       <r>   -0.1378    1.0000 </r>
       <r>   -0.1043    1.0000 </r>
       <r>   -0.0974    1.0000 </r>
       <r>   -0.0974    1.0000 </r>
       <r>   -0.0958    1.0000 </r>
       <r>    1.5928    1.0000 </r>
       <r>    1.5940    1.0000 </r>
       <r>    1.5941    1.0000 </r>
       <r>    1.5974    1.0000 </r>
       <r>    2.7279    1.0000 </r>
       <r>    2.7291    1.0000 </r>
       <r>    2.7293    1.0000 </r>
       <r>    2.7334    1.0000 </r>
       <r>    7.4396    0.0000 </r>
       <r>    7.4443    0.0000 </r>
       <r>    7.4446    0.0000 </r>
       <r>    7.4455    0.0000 </r>
       <r>    7.9140    0.0000 </r>
       <r>    7.9195    0.0000 </r>
       <r>    7.9198    0.0000 </r>
       <r>    7.9207    0.0000 </r>
       <r>   11.6617    0.0000 </r>
       <r>   11.6718    0.0000 </r>
       <r>   11.6740    0.0000 </r>
       <r>   11.6839    0.0000 </r>
       <r>   12.0286    0.0000 </r>
       <r>   12.0399    0.0000 </r>
       <r>   12.0416    0.0000 </r>
       <r>   12.0542    0.0000 </r>
       <r>   12.3457    0.0000 </r>
       <r>   12.3474    0.0000 </r>
       <r>   12.3478    0.0000 </r>
       <r>   12.3529    0.0000 </r>
      </set>
     </set>
    </set>
   </array>
  </eigenvalues>
  <separator name="orbital magnetization" >
   <v name="MAGDIPOLOUT">      0.00000000      0.00000000      0.00000000</v>
  </separator>
  <dos>
   <i name="efermi">      4.86022427 </i>
   <total>
    <array>
     <dimension dim="1">gridpoints</dimension>
     <dimension dim="2">spin</dimension>
     <field>energy</field>
     <field>total</field>
     <field>integrated</field>
     <set>
      <set comment="spin 1">
       <r>   -16.7857     0.0000     0.0000 </r>
       <r>   -16.6761     0.0000     0.0000 </r>
       <r>   -16.5664     0.0000     0.0000 </r>
       <r>   -16.4567     0.0000     0.0000 </r>
       <r>   -16.3470     0.0000     0.0000 </r>
       <r>   -16.2374     0.0000     0.0000 </r>
       <r>   -16.1277     0.0000     0.0000 </r>
       <r>   -16.0180     0.0000     0.0000 </r>
       <r>   -15.9084     0.0000     0.0000 </r>
       <r>   -15.7987     0.0000     0.0000 </r>
       <r>   -15.6890     0.0000     0.0000 </r>
       <r>   -15.5794     0.0000     0.0000 </r>
       <r>   -15.4697     0.0000     0.0000 </r>
       <r>   -15.3600     0.0000     0.0000 </r>
       <r>   -15.2503     0.0000     0.0000 </r>
       <r>   -15.1407     0.0000     0.0000 </r>
       <r>   -15.0310     0.0000     0.0000 </r>
       <r>   -14.9213     0.0000     0.0000 </r>
       <r>   -14.8117     0.0000     0.0000 </r>
       <r>   -14.7020     0.8614     0.0280 </r>
       <r>   -14.5923     2.3612     0.2274 </r>
       <r>   -14.4827     3.1985     0.5263 </r>
       <r>   -14.3730     4.7427     0.9579 </r>
       <r>   -14.2633     4.8071     1.5146 </r>
       <r>   -14.1536     4.9424     2.0516 </r>
       <r>   -14.0440     4.9626     2.5940 </r>
       <r>   -13.9343     4.9395     3.1388 </r>
       <r>   -13.8246     4.8920     3.6760 </r>
       <r>   -13.7150     5.1268     4.2234 </r>
       <r>   -13.6053     6.2875     4.8162 </r>
       <r>   -13.4956     7.2362     5.5700 </r>
       <r>   -13.3860     7.0459     6.3561 </r>
       <r>   -13.2763     6.1747     7.1354 </r>
       <r>   -13.1666     2.3614     7.5448 </r>
       <r>   -13.0569     1.8405     7.7685 </r>
       <r>   -12.9473     2.0138     7.9733 </r>
       <r>   -12.8376     2.4430     8.2177 </r>
       <r>   -12.7279     3.9188     8.5316 </r>
       <r>   -12.6183     7.2041     9.4075 </r>
       <r>   -12.5086     7.6641    10.1999 </r>
       <r>   -12.3989     6.7512    11.0241 </r>
       <r>   -12.2892     4.0647    11.5557 </r>
       <r>   -12.1796     4.1824    12.0080 </r>
       <r>   -12.0699     4.3343    12.4745 </r>
       <r>   -11.9602     4.5038    12.9591 </r>
       <r>   -11.8506     4.6583    13.4619 </r>
       <r>   -11.7409     4.7924    13.9802 </r>
       <r>   -11.6312     5.1658    14.5246 </r>
       <r>   -11.5216     5.4866    15.1099 </r>
       <r>   -11.4119     6.2417    15.7373 </r>
       <r>   -11.3022     5.9533    16.4123 </r>
       <r>   -11.1925     5.6459    17.0471 </r>
       <r>   -11.0829     5.5738    17.6584 </r>
       <r>   -10.9732     5.7436    18.2790 </r>
       <r>   -10.8635     5.9136    18.9182 </r>
       <r>   -10.7539     5.9777    19.5756 </r>
       <r>   -10.6442     5.7385    20.2133 </r>
       <r>   -10.5345     5.6364    20.8367 </r>
       <r>   -10.4249     5.4626    21.4472 </r>
       <r>   -10.3152     4.3081    21.9917 </r>
       <r>   -10.2055     3.8163    22.4197 </r>
       <r>   -10.0958     4.6644    22.8866 </r>
       <r>    -9.9862     4.9835    23.4202 </r>
       <r>    -9.8765     5.3207    23.9778 </r>
       <r>    -9.7668     7.0675    24.6759 </r>
       <r>    -9.6572    10.2146    25.6030 </r>
       <r>    -9.5475     9.4964    26.7612 </r>
       <r>    -9.4378     7.1239    27.6725 </r>
       <r>    -9.3282     5.1224    28.3355 </r>
       <r>    -9.2185     4.5001    28.8577 </r>
       <r>    -9.1088     3.9974    29.3236 </r>
       <r>    -8.9991     7.9412    29.8409 </r>
       <r>    -8.8895     4.9988    30.4415 </r>
       <r>    -8.7798     2.0337    30.9216 </r>
       <r>    -8.6701     1.8231    31.1331 </r>
       <r>    -8.5605     1.6124    31.3215 </r>
       <r>    -8.4508     1.4017    31.4868 </r>
       <r>    -8.3411     1.2462    31.6294 </r>
       <r>    -8.2314     1.6569    31.7859 </r>
       <r>    -8.1218     2.1593    31.9951 </r>
       <r>    -8.0121     2.6616    32.2595 </r>
       <r>    -7.9024     4.2784    32.6043 </r>
       <r>    -7.7928     9.6782    33.3537 </r>
       <r>    -7.6831     5.9171    34.3361 </r>
       <r>    -7.5734     5.1096    34.9011 </r>
       <r>    -7.4638     6.0052    35.4959 </r>
       <r>    -7.3541     7.2074    36.2204 </r>
       <r>    -7.2444     8.4095    37.0767 </r>
       <r>    -7.1347     9.6117    38.0649 </r>
       <r>    -7.0251     7.6001    39.0167 </r>
       <r>    -6.9154     5.5936    39.7108 </r>
       <r>    -6.8057     5.5662    40.3235 </r>
       <r>    -6.6961     5.5651    40.9339 </r>
       <r>    -6.5864     5.4073    41.5356 </r>
       <r>    -6.4767     5.2233    42.1190 </r>
       <r>    -6.3671     5.0716    42.6827 </r>
       <r>    -6.2574     4.9528    43.2323 </r>
       <r>    -6.1477     4.8340    43.7690 </r>
       <r>    -6.0380     4.7152    44.2926 </r>
       <r>    -5.9284     4.5965    44.8032 </r>
       <r>    -5.8187     4.4778    45.3008 </r>
       <r>    -5.7090     4.3560    45.7853 </r>
       <r>    -5.5994     4.6415    46.2678 </r>
       <r>    -5.4897     5.2696    46.8123 </r>
       <r>    -5.3800     5.8733    47.4233 </r>
       <r>    -5.2704     6.4770    48.1006 </r>
       <r>    -5.1607     7.0807    48.8440 </r>
       <r>    -5.0510     7.6845    49.6536 </r>
       <r>    -4.9413     8.2882    50.5295 </r>
       <r>    -4.8317     8.8920    51.4716 </r>
       <r>    -4.7220     5.6697    52.2883 </r>
       <r>    -4.6123     5.4219    52.7996 </r>
       <r>    -4.5027     7.2284    53.5060 </r>
       <r>    -4.3930     5.7164    54.2158 </r>
       <r>    -4.2833     4.2041    54.7598 </r>
       <r>    -4.1736     2.6916    55.1379 </r>
       <r>    -4.0640     1.1915    55.3502 </r>
       <r>    -3.9543     1.9345    55.4956 </r>
       <r>    -3.8446     3.5006    55.7936 </r>
       <r>    -3.7350     5.0665    56.2634 </r>
       <r>    -3.6253     8.2658    56.9463 </r>
       <r>    -3.5156    12.5476    58.0719 </r>
       <r>    -3.4060    13.0230    59.4749 </r>
       <r>    -3.2963    12.2712    60.8847 </r>
       <r>    -3.1866     6.1561    61.9358 </r>
       <r>    -3.0769     5.1215    62.4708 </r>
       <r>    -2.9673     6.0885    63.0905 </r>
       <r>    -2.8576     6.9980    63.8058 </r>
       <r>    -2.7479    11.4597    64.7689 </r>
       <r>    -2.6383    17.3226    66.3457 </r>
       <r>    -2.5286    18.2724    68.5970 </r>
       <r>    -2.4189     7.1708    69.5487 </r>
       <r>    -2.3093     7.4323    70.3541 </r>
       <r>    -2.1996     7.6166    71.1744 </r>
       <r>    -2.0899     8.1380    72.0362 </r>
       <r>    -1.9802    10.3103    73.0326 </r>
       <r>    -1.8706    14.5262    74.6418 </r>
       <r>    -1.7609    11.4278    76.0524 </r>
       <r>    -1.6512     9.8353    77.1953 </r>
       <r>    -1.5416    31.5727    78.9960 </r>
       <r>    -1.4319    18.1867    81.8009 </r>
       <r>    -1.3222    17.9498    83.9446 </r>
       <r>    -1.2126    14.9353    85.5625 </r>
       <r>    -1.1029    16.8788    87.3081 </r>
       <r>    -0.9932    11.8506    89.0151 </r>
       <r>    -0.8835     7.4108    90.0411 </r>
       <r>    -0.7739     6.5983    90.7629 </r>
       <r>    -0.6642     7.5591    91.5393 </r>
       <r>    -0.5545     8.4940    92.4163 </r>
       <r>    -0.4449     9.8512    93.4204 </r>
       <r>    -0.3352    11.0310    94.5729 </r>
       <r>    -0.2255    11.5592    95.8239 </r>
       <r>    -0.1158    23.4072    97.4509 </r>
       <r>    -0.0062    12.8602    98.8972 </r>
       <r>     0.1035    12.3248   100.3148 </r>
       <r>     0.2132    10.2808   101.5756 </r>
       <r>     0.3228     9.0259   102.6009 </r>
       <r>     0.4325     9.8074   103.6225 </r>
       <r>     0.5422     9.0348   104.6334 </r>
       <r>     0.6518     9.7615   105.6534 </r>
       <r>     0.7615     9.8622   106.7510 </r>
       <r>     0.8712     9.6883   107.8144 </r>
       <r>     0.9809     9.4809   108.8640 </r>
       <r>     1.0905     9.3800   109.8978 </r>
       <r>     1.2002     9.4409   110.9258 </r>
       <r>     1.3099     9.9150   112.0059 </r>
       <r>     1.4195     9.6596   113.0827 </r>
       <r>     1.5292     9.4842   114.1085 </r>
       <r>     1.6389    10.1548   115.2254 </r>
       <r>     1.7485     9.7452   116.3164 </r>
       <r>     1.8582     7.7039   117.2896 </r>
       <r>     1.9679     6.6518   118.0602 </r>
       <r>     2.0776     5.3233   118.7293 </r>
       <r>     2.1872     3.8295   119.2279 </r>
       <r>     2.2969     2.8898   119.5824 </r>
       <r>     2.4066     3.4119   119.8989 </r>
       <r>     2.5162     4.1458   120.3011 </r>
       <r>     2.6259     6.1234   120.8472 </r>
       <r>     2.7356     8.1773   121.6324 </r>
       <r>     2.8452     8.4255   122.5277 </r>
       <r>     2.9549     8.3265   123.4683 </r>
       <r>     3.0646     6.8614   124.3295 </r>
       <r>     3.1743     5.2411   124.9857 </r>
       <r>     3.2839     4.1402   125.4964 </r>
       <r>     3.3936     3.4494   125.9093 </r>
       <r>     3.5033     3.0610   126.2661 </r>
       <r>     3.6129     2.6630   126.5800 </r>
       <r>     3.7226     2.2958   126.8516 </r>
       <r>     3.8323     1.9933   127.0864 </r>
       <r>     3.9420     1.7171   127.2895 </r>
       <r>     4.0516     1.4580   127.4636 </r>
       <r>     4.1613     1.2058   127.6096 </r>
       <r>     4.2710     0.9787   127.7291 </r>
       <r>     4.3806     0.7711   127.8249 </r>
       <r>     4.4903     0.5758   127.8986 </r>
       <r>     4.6000     0.3910   127.9516 </r>
       <r>     4.7096     0.2156   127.9847 </r>
       <r>     4.8193     0.0489   127.9992 </r>
       <r>     4.9290     0.0599   128.0017 </r>
       <r>     5.0387     0.1846   128.0150 </r>
       <r>     5.1483     0.3192   128.0425 </r>
       <r>     5.2580     0.4650   128.0854 </r>
       <r>     5.3677     0.6240   128.1450 </r>
       <r>     5.4773     0.7971   128.2228 </r>
       <r>     5.5870     0.9929   128.3207 </r>
       <r>     5.6967     1.2276   128.4419 </r>
       <r>     5.8063     1.4906   128.5909 </r>
       <r>     5.9160     1.7544   128.7688 </r>
       <r>     6.0257     2.7490   129.0263 </r>
       <r>     6.1354     3.3258   129.3605 </r>
       <r>     6.2450     3.7387   129.7505 </r>
       <r>     6.3547     4.9457   130.2067 </r>
       <r>     6.4644     9.8754   130.9686 </r>
       <r>     6.5740    11.0039   132.3556 </r>
       <r>     6.6837     8.7566   133.4437 </r>
       <r>     6.7934     6.9076   134.3145 </r>
       <r>     6.9030     5.9677   135.0135 </r>
       <r>     7.0127     5.2961   135.6290 </r>
       <r>     7.1224     5.0298   136.1911 </r>
       <r>     7.2321     4.5273   136.7298 </r>
       <r>     7.3417     3.9608   137.2058 </r>
       <r>     7.4514     3.5713   137.6104 </r>
       <r>     7.5611     3.6681   138.0054 </r>
       <r>     7.6707     3.9924   138.4230 </r>
       <r>     7.7804     4.4159   138.8851 </r>
       <r>     7.8901     4.7522   139.3881 </r>
       <r>     7.9997     4.9177   139.9210 </r>
       <r>     8.1094     4.7144   140.4504 </r>
       <r>     8.2191     4.5247   140.9563 </r>
       <r>     8.3288     4.4082   141.4465 </r>
       <r>     8.4384     4.2806   141.9225 </r>
       <r>     8.5481     4.1828   142.3864 </r>
       <r>     8.6578     4.1045   142.8408 </r>
       <r>     8.7674     4.0322   143.2869 </r>
       <r>     8.8771     3.9682   143.7255 </r>
       <r>     8.9868     3.7056   144.1529 </r>
       <r>     9.0965     3.4534   144.5435 </r>
       <r>     9.2061     3.3364   144.9146 </r>
       <r>     9.3158     3.2670   145.2769 </r>
       <r>     9.4255     3.2043   145.6305 </r>
       <r>     9.5351     3.3966   145.9901 </r>
       <r>     9.6448     3.5682   146.3756 </r>
       <r>     9.7545     3.5466   146.7665 </r>
       <r>     9.8641     3.5748   147.1560 </r>
       <r>     9.9738     3.6304   147.5510 </r>
       <r>    10.0835     3.6685   147.9516 </r>
       <r>    10.1932     3.6718   148.3544 </r>
       <r>    10.3028     3.6248   148.7551 </r>
       <r>    10.4125     3.5885   149.1495 </r>
       <r>    10.5222     4.6505   149.6062 </r>
       <r>    10.6318     4.9914   150.1357 </r>
       <r>    10.7415     5.2595   150.6993 </r>
       <r>    10.8512     5.2814   151.2689 </r>
       <r>    10.9608     5.4598   151.8584 </r>
       <r>    11.0705     5.6656   152.4717 </r>
       <r>    11.1802     4.3385   153.0289 </r>
       <r>    11.2899     4.1373   153.6357 </r>
       <r>    11.3995     3.0391   154.0104 </r>
       <r>    11.5092     2.4319   154.3349 </r>
       <r>    11.6189     2.4459   154.6026 </r>
       <r>    11.7285     2.4818   154.8721 </r>
       <r>    11.8382     2.7586   155.1543 </r>
       <r>    11.9479     3.7877   155.5063 </r>
       <r>    12.0575     3.2878   155.9034 </r>
       <r>    12.1672     5.1746   156.3400 </r>
       <r>    12.2769     6.7323   156.9758 </r>
       <r>    12.3866     8.6176   157.8254 </r>
       <r>    12.4962    10.6219   158.8677 </r>
       <r>    12.6059    13.4404   160.1911 </r>
       <r>    12.7156    14.0914   161.7258 </r>
       <r>    12.8252    13.8768   163.2676 </r>
       <r>    12.9349    11.3119   164.7039 </r>
       <r>    13.0446     9.2109   165.7908 </r>
       <r>    13.1543     9.8694   166.7960 </r>
       <r>    13.2639     4.4654   167.8107 </r>
       <r>    13.3736     0.3025   167.9252 </r>
       <r>    13.4833     0.2196   167.9537 </r>
       <r>    13.5929     0.1500   167.9739 </r>
       <r>    13.7026     0.0937   167.9871 </r>
       <r>    13.8123     0.0505   167.9949 </r>
       <r>    13.9219     0.0206   167.9987 </r>
       <r>    14.0316     0.0039   167.9999 </r>
       <r>    14.1413     0.0000   168.0000 </r>
       <r>    14.2510     0.0000   168.0000 </r>
       <r>    14.3606     0.0000   168.0000 </r>
       <r>    14.4703     0.0000   168.0000 </r>
       <r>    14.5800     0.0000   168.0000 </r>
       <r>    14.6896     0.0000   168.0000 </r>
       <r>    14.7993     0.0000   168.0000 </r>
       <r>    14.9090     0.0000   168.0000 </r>
       <r>    15.0186     0.0000   168.0000 </r>
       <r>    15.1283     0.0000   168.0000 </r>
       <r>    15.2380     0.0000   168.0000 </r>
       <r>    15.3477     0.0000   168.0000 </r>
       <r>    15.4573     0.0000   168.0000 </r>
       <r>    15.5670     0.0000   168.0000 </r>
       <r>    15.6767     0.0000   168.0000 </r>
       <r>    15.7863     0.0000   168.0000 </r>
       <r>    15.8960     0.0000   168.0000 </r>
       <r>    16.0057     0.0000   168.0000 </r>
       <r>    16.1153     0.0000   168.0000 </r>
      </set>
     </set>
    </array>
   </total>
  </dos>
 </calculation>
 <structure name="finalpos" >
  <crystal>
   <varray name="basis" >
    <v>       4.93287450      -0.00191929       0.00000000 </v>
    <v>      -2.46809940       4.27103499       0.00000000 </v>
    <v>       0.00000000       0.00000000      13.13086644 </v>
   </varray>
   <i name="volume">    276.58519049 </i>
   <varray name="rec_basis" >
    <v>       0.20276715       0.11717288       0.00000000 </v>
    <v>       0.00009112       0.23418794       0.00000000 </v>
    <v>       0.00000000       0.00000000       0.07615644 </v>
   </varray>
  </crystal>
  <varray name="positions" >
   <v>       0.49896039       0.00032672       0.12428708 </v>
   <v>       0.99967330       0.00032672       0.12500000 </v>
   <v>       0.49967330       0.50032672       0.12500000 </v>
   <v>       0.99967330       0.50032672       0.12500000 </v>
   <v>       0.49967330       0.00032672       0.62500000 </v>
   <v>       0.99967330       0.00032672       0.62500000 </v>
   <v>       0.49967330       0.50032672       0.62500000 </v>
   <v>       0.99967330       0.50032672       0.62500000 </v>
   <v>       0.00032672       0.49967330       0.37500000 </v>
   <v>       0.50032672       0.49967330       0.37500000 </v>
   <v>       0.00032672       0.99967330       0.37500000 </v>
   <v>       0.50032672       0.99967330       0.37500000 </v>
   <v>       0.00032672       0.49967330       0.87500000 </v>
   <v>       0.50032672       0.49967330       0.87500000 </v>
   <v>       0.00032672       0.99967330       0.87500000 </v>
   <v>       0.50032672       0.99967330       0.87500000 </v>
   <v>       0.16629246       0.33370753       0.12500000 </v>
   <v>       0.66629246       0.33370753       0.12500000 </v>
   <v>       0.16629246       0.83370753       0.12500000 </v>
   <v>       0.66629246       0.83370753       0.12500000 </v>
   <v>       0.16629246       0.33370753       0.62500000 </v>
   <v>       0.66629246       0.33370753       0.62500000 </v>
   <v>       0.16629246       0.83370753       0.62500000 </v>
   <v>       0.66629246       0.83370753       0.62500000 </v>
   <v>       0.33370753       0.16629246       0.37500000 </v>
   <v>       0.83370753       0.16629246       0.37500000 </v>
   <v>       0.33370753       0.66629246       0.37500000 </v>
   <v>       0.83370753       0.66629246       0.37500000 </v>
   <v>       0.33370753       0.16629246       0.87500000 </v>
   <v>       0.83370753       0.16629246       0.87500000 </v>
   <v>       0.33370753       0.66629246       0.87500000 </v>
   <v>       0.83370753       0.66629246       0.87500000 </v>
  </varray>
 </structure>
</modeling>
