  32  32   0   0
  0.9128901E+01  0.4934311E-09  0.4934311E-09  0.1385503E-08  0.5000000E-15
  1.000000000000000E-004
  CAR 
 graphite                                
     15.17720404    -17.19812684  301      4.39394585      1.00000000
    -17.198  0.0000E+00  0.0000E+00
    -17.090  0.0000E+00  0.0000E+00
    -16.982  0.0000E+00  0.0000E+00
    -16.874  0.0000E+00  0.0000E+00
    -16.766  0.0000E+00  0.0000E+00
    -16.659  0.0000E+00  0.0000E+00
    -16.551  0.0000E+00  0.0000E+00
    -16.443  0.0000E+00  0.0000E+00
    -16.335  0.0000E+00  0.0000E+00
    -16.227  0.0000E+00  0.0000E+00
    -16.119  0.0000E+00  0.0000E+00
    -16.011  0.0000E+00  0.0000E+00
    -15.903  0.0000E+00  0.0000E+00
    -15.795  0.0000E+00  0.0000E+00
    -15.687  0.0000E+00  0.0000E+00
    -15.579  0.0000E+00  0.0000E+00
    -15.471  0.0000E+00  0.0000E+00
    -15.364  0.0000E+00  0.0000E+00
    -15.256  0.0000E+00  0.0000E+00
    -15.148  0.1105E+01  0.2154E-01
    -15.040  0.2741E+01  0.2437E+00
    -14.932  0.5000E+01  0.6511E+00
    -14.824  0.4890E+01  0.1179E+01
    -14.716  0.4936E+01  0.1715E+01
    -14.608  0.4949E+01  0.2247E+01
    -14.500  0.4951E+01  0.2782E+01
    -14.392  0.4910E+01  0.3311E+01
    -14.284  0.5011E+01  0.3847E+01
    -14.176  0.4995E+01  0.4386E+01
    -14.069  0.4972E+01  0.4925E+01
    -13.961  0.5676E+01  0.5494E+01
    -13.853  0.5973E+01  0.6125E+01
    -13.745  0.6632E+01  0.6830E+01
    -13.637  0.4654E+01  0.7420E+01
    -13.529  0.1742E+01  0.7744E+01
    -13.421  0.3630E+01  0.8007E+01
    -13.313  0.4424E+01  0.8474E+01
    -13.205  0.4547E+01  0.8962E+01
    -13.097  0.6305E+01  0.9712E+01
    -12.989  0.6302E+01  0.1045E+02
    -12.881  0.4359E+01  0.1095E+02
    -12.773  0.4514E+01  0.1143E+02
    -12.666  0.4629E+01  0.1192E+02
    -12.558  0.4741E+01  0.1242E+02
    -12.450  0.5235E+01  0.1296E+02
    -12.342  0.5852E+01  0.1355E+02
    -12.234  0.5516E+01  0.1418E+02
    -12.126  0.5571E+01  0.1477E+02
    -12.018  0.5154E+01  0.1535E+02
    -11.910  0.4806E+01  0.1589E+02
    -11.802  0.4912E+01  0.1642E+02
    -11.694  0.5001E+01  0.1695E+02
    -11.586  0.5058E+01  0.1749E+02
    -11.478  0.5130E+01  0.1804E+02
    -11.371  0.5511E+01  0.1862E+02
    -11.263  0.5869E+01  0.1924E+02
    -11.155  0.5750E+01  0.1987E+02
    -11.047  0.5691E+01  0.2048E+02
    -10.939  0.5771E+01  0.2110E+02
    -10.831  0.5340E+01  0.2172E+02
    -10.723  0.4678E+01  0.2224E+02
    -10.615  0.5280E+01  0.2278E+02
    -10.507  0.5350E+01  0.2336E+02
    -10.399  0.5463E+01  0.2394E+02
    -10.291  0.5670E+01  0.2454E+02
    -10.183  0.5912E+01  0.2517E+02
    -10.076  0.7427E+01  0.2587E+02
     -9.968  0.1018E+02  0.2686E+02
     -9.860  0.6790E+01  0.2778E+02
     -9.752  0.5322E+01  0.2841E+02
     -9.644  0.6204E+01  0.2913E+02
     -9.536  0.3613E+01  0.2964E+02
     -9.428  0.3244E+01  0.3001E+02
     -9.320  0.2874E+01  0.3034E+02
     -9.212  0.2505E+01  0.3063E+02
     -9.104  0.2360E+01  0.3088E+02
     -8.996  0.3290E+01  0.3120E+02
     -8.888  0.1824E+01  0.3148E+02
     -8.781  0.1532E+01  0.3164E+02
     -8.673  0.2439E+01  0.3185E+02
     -8.565  0.6114E+01  0.3224E+02
     -8.457  0.4496E+01  0.3301E+02
     -8.349  0.3890E+01  0.3345E+02
     -8.241  0.4219E+01  0.3388E+02
     -8.133  0.7076E+01  0.3449E+02
     -8.025  0.6220E+01  0.3528E+02
     -7.917  0.7293E+01  0.3600E+02
     -7.809  0.8368E+01  0.3685E+02
     -7.701  0.8357E+01  0.3780E+02
     -7.593  0.6320E+01  0.3856E+02
     -7.486  0.6061E+01  0.3923E+02
     -7.378  0.5803E+01  0.3987E+02
     -7.270  0.5565E+01  0.4048E+02
     -7.162  0.5372E+01  0.4107E+02
     -7.054  0.5191E+01  0.4164E+02
     -6.946  0.4998E+01  0.4219E+02
     -6.838  0.4858E+01  0.4272E+02
     -6.730  0.4829E+01  0.4325E+02
     -6.622  0.4799E+01  0.4377E+02
     -6.514  0.4666E+01  0.4428E+02
     -6.406  0.4428E+01  0.4477E+02
     -6.298  0.4374E+01  0.4524E+02
     -6.191  0.4046E+01  0.4566E+02
     -6.083  0.4198E+01  0.4610E+02
     -5.975  0.4828E+01  0.4658E+02
     -5.867  0.5633E+01  0.4715E+02
     -5.759  0.6420E+01  0.4780E+02
     -5.651  0.1020E+02  0.4866E+02
     -5.543  0.8886E+01  0.4974E+02
     -5.435  0.6623E+01  0.5058E+02
     -5.327  0.4361E+01  0.5117E+02
     -5.219  0.2666E+01  0.5153E+02
     -5.111  0.2928E+01  0.5182E+02
     -5.003  0.4125E+01  0.5220E+02
     -4.896  0.5433E+01  0.5271E+02
     -4.788  0.6930E+01  0.5337E+02
     -4.680  0.8152E+01  0.5421E+02
     -4.572  0.6995E+01  0.5503E+02
     -4.464  0.5746E+01  0.5572E+02
     -4.356  0.6634E+01  0.5635E+02
     -4.248  0.7338E+01  0.5716E+02
     -4.140  0.6824E+01  0.5792E+02
     -4.032  0.6311E+01  0.5863E+02
     -3.924  0.5978E+01  0.5929E+02
     -3.816  0.5996E+01  0.5994E+02
     -3.708  0.1268E+02  0.6094E+02
     -3.600  0.9474E+01  0.6212E+02
     -3.493  0.8048E+01  0.6307E+02
     -3.385  0.6955E+01  0.6387E+02
     -3.277  0.6741E+01  0.6460E+02
     -3.169  0.7422E+01  0.6536E+02
     -3.061  0.8443E+01  0.6621E+02
     -2.953  0.1003E+02  0.6719E+02
     -2.845  0.1436E+02  0.6848E+02
     -2.737  0.1372E+02  0.7004E+02
     -2.629  0.1199E+02  0.7135E+02
     -2.521  0.1317E+02  0.7274E+02
     -2.413  0.1401E+02  0.7412E+02
     -2.305  0.1321E+02  0.7570E+02
     -2.198  0.1500E+02  0.7710E+02
     -2.090  0.1344E+02  0.7896E+02
     -1.982  0.1311E+02  0.8024E+02
     -1.874  0.1634E+02  0.8231E+02
     -1.766  0.1808E+02  0.8422E+02
     -1.658  0.1565E+02  0.8611E+02
     -1.550  0.1188E+02  0.8760E+02
     -1.442  0.9961E+01  0.8876E+02
     -1.334  0.9358E+01  0.8977E+02
     -1.226  0.7865E+01  0.9076E+02
     -1.118  0.1048E+02  0.9174E+02
     -1.010  0.1302E+02  0.9306E+02
     -0.903  0.1324E+02  0.9447E+02
     -0.795  0.8938E+01  0.9598E+02
     -0.687  0.1013E+02  0.9702E+02
     -0.579  0.1117E+02  0.9816E+02
     -0.471  0.1039E+02  0.9929E+02
     -0.363  0.1120E+02  0.1004E+03
     -0.255  0.9484E+01  0.1016E+03
     -0.147  0.9870E+01  0.1026E+03
     -0.039  0.9665E+01  0.1037E+03
      0.069  0.9550E+01  0.1047E+03
      0.177  0.9285E+01  0.1057E+03
      0.285  0.9144E+01  0.1067E+03
      0.392  0.9478E+01  0.1077E+03
      0.500  0.9444E+01  0.1087E+03
      0.608  0.9451E+01  0.1097E+03
      0.716  0.9211E+01  0.1108E+03
      0.824  0.9092E+01  0.1117E+03
      0.932  0.9427E+01  0.1127E+03
      1.040  0.9484E+01  0.1138E+03
      1.148  0.9952E+01  0.1148E+03
      1.256  0.1036E+02  0.1159E+03
      1.364  0.7792E+01  0.1169E+03
      1.472  0.6607E+01  0.1176E+03
      1.580  0.5884E+01  0.1183E+03
      1.687  0.5043E+01  0.1189E+03
      1.795  0.3989E+01  0.1194E+03
      1.903  0.3689E+01  0.1198E+03
      2.011  0.5917E+01  0.1203E+03
      2.119  0.9708E+01  0.1211E+03
      2.227  0.6271E+01  0.1221E+03
      2.335  0.9665E+01  0.1229E+03
      2.443  0.6478E+01  0.1238E+03
      2.551  0.5147E+01  0.1244E+03
      2.659  0.4400E+01  0.1249E+03
      2.767  0.3749E+01  0.1254E+03
      2.875  0.3276E+01  0.1257E+03
      2.982  0.3114E+01  0.1261E+03
      3.090  0.2932E+01  0.1264E+03
      3.198  0.2471E+01  0.1267E+03
      3.306  0.2110E+01  0.1269E+03
      3.414  0.1875E+01  0.1272E+03
      3.522  0.1639E+01  0.1273E+03
      3.630  0.1399E+01  0.1275E+03
      3.738  0.1163E+01  0.1277E+03
      3.846  0.9371E+00  0.1278E+03
      3.954  0.7087E+00  0.1279E+03
      4.062  0.5110E+00  0.1279E+03
      4.170  0.3299E+00  0.1280E+03
      4.278  0.1624E+00  0.1280E+03
      4.385  0.6175E-02  0.1280E+03
      4.493  0.1022E+00  0.1280E+03
      4.601  0.2323E+00  0.1280E+03
      4.709  0.3773E+00  0.1281E+03
      4.817  0.5403E+00  0.1281E+03
      4.925  0.7314E+00  0.1282E+03
      5.033  0.9763E+00  0.1283E+03
      5.141  0.1325E+01  0.1284E+03
      5.249  0.1703E+01  0.1285E+03
      5.357  0.2058E+01  0.1288E+03
      5.465  0.2449E+01  0.1290E+03
      5.573  0.2899E+01  0.1293E+03
      5.680  0.3205E+01  0.1296E+03
      5.788  0.4113E+01  0.1300E+03
      5.896  0.6317E+01  0.1306E+03
      6.004  0.9089E+01  0.1316E+03
      6.112  0.8562E+01  0.1325E+03
      6.220  0.8198E+01  0.1334E+03
      6.328  0.7610E+01  0.1343E+03
      6.436  0.6417E+01  0.1350E+03
      6.544  0.6220E+01  0.1357E+03
      6.652  0.5666E+01  0.1363E+03
      6.760  0.5152E+01  0.1369E+03
      6.868  0.4607E+01  0.1375E+03
      6.975  0.3832E+01  0.1379E+03
      7.083  0.3608E+01  0.1383E+03
      7.191  0.3790E+01  0.1387E+03
      7.299  0.4337E+01  0.1391E+03
      7.407  0.4675E+01  0.1396E+03
      7.515  0.4663E+01  0.1401E+03
      7.623  0.4505E+01  0.1406E+03
      7.731  0.4359E+01  0.1411E+03
      7.839  0.4203E+01  0.1416E+03
      7.947  0.4056E+01  0.1420E+03
      8.055  0.3889E+01  0.1425E+03
      8.163  0.3731E+01  0.1429E+03
      8.270  0.3604E+01  0.1433E+03
      8.378  0.3519E+01  0.1436E+03
      8.486  0.3475E+01  0.1440E+03
      8.594  0.3704E+01  0.1444E+03
      8.702  0.3857E+01  0.1448E+03
      8.810  0.3948E+01  0.1452E+03
      8.918  0.4088E+01  0.1457E+03
      9.026  0.4193E+01  0.1461E+03
      9.134  0.4276E+01  0.1466E+03
      9.242  0.4329E+01  0.1470E+03
      9.350  0.4098E+01  0.1475E+03
      9.458  0.4056E+01  0.1479E+03
      9.565  0.4030E+01  0.1484E+03
      9.673  0.4050E+01  0.1488E+03
      9.781  0.4083E+01  0.1492E+03
      9.889  0.4199E+01  0.1497E+03
      9.997  0.4374E+01  0.1502E+03
     10.105  0.4441E+01  0.1506E+03
     10.213  0.4592E+01  0.1511E+03
     10.321  0.4769E+01  0.1516E+03
     10.429  0.5329E+01  0.1522E+03
     10.537  0.5395E+01  0.1528E+03
     10.645  0.4631E+01  0.1533E+03
     10.753  0.4536E+01  0.1538E+03
     10.860  0.3861E+01  0.1544E+03
     10.968  0.4093E+01  0.1548E+03
     11.076  0.3973E+01  0.1552E+03
     11.184  0.3849E+01  0.1557E+03
     11.292  0.3038E+01  0.1560E+03
     11.400  0.2759E+01  0.1563E+03
     11.508  0.4239E+01  0.1567E+03
     11.616  0.4596E+01  0.1572E+03
     11.724  0.6653E+01  0.1578E+03
     11.832  0.1008E+02  0.1587E+03
     11.940  0.1158E+02  0.1599E+03
     12.048  0.1354E+02  0.1613E+03
     12.156  0.1384E+02  0.1628E+03
     12.263  0.1154E+02  0.1642E+03
     12.371  0.8845E+01  0.1653E+03
     12.479  0.6552E+01  0.1661E+03
     12.587  0.5385E+01  0.1667E+03
     12.695  0.4415E+01  0.1673E+03
     12.803  0.2575E+01  0.1676E+03
     12.911  0.1533E+01  0.1679E+03
     13.019  0.5296E+00  0.1680E+03
     13.127  0.1368E-01  0.1680E+03
     13.235  0.0000E+00  0.1680E+03
     13.343  0.0000E+00  0.1680E+03
     13.451  0.0000E+00  0.1680E+03
     13.558  0.0000E+00  0.1680E+03
     13.666  0.0000E+00  0.1680E+03
     13.774  0.0000E+00  0.1680E+03
     13.882  0.0000E+00  0.1680E+03
     13.990  0.0000E+00  0.1680E+03
     14.098  0.0000E+00  0.1680E+03
     14.206  0.0000E+00  0.1680E+03
     14.314  0.0000E+00  0.1680E+03
     14.422  0.0000E+00  0.1680E+03
     14.530  0.0000E+00  0.1680E+03
     14.638  0.0000E+00  0.1680E+03
     14.746  0.0000E+00  0.1680E+03
     14.853  0.0000E+00  0.1680E+03
     14.961  0.0000E+00  0.1680E+03
     15.069  0.0000E+00  0.1680E+03
     15.177  0.0000E+00  0.1680E+03
