  32  32   0   0
  0.8905205E+01  0.4932875E-09  0.4932875E-09  0.1352877E-08  0.5000000E-15
  1.000000000000000E-004
  CAR 
 graphite                                
     15.48812146    -17.01662570  301      4.60337597      1.00000000
    -17.017  0.0000E+00  0.0000E+00
    -16.908  0.0000E+00  0.0000E+00
    -16.800  0.0000E+00  0.0000E+00
    -16.692  0.0000E+00  0.0000E+00
    -16.583  0.0000E+00  0.0000E+00
    -16.475  0.0000E+00  0.0000E+00
    -16.367  0.0000E+00  0.0000E+00
    -16.258  0.0000E+00  0.0000E+00
    -16.150  0.0000E+00  0.0000E+00
    -16.041  0.0000E+00  0.0000E+00
    -15.933  0.0000E+00  0.0000E+00
    -15.825  0.0000E+00  0.0000E+00
    -15.716  0.0000E+00  0.0000E+00
    -15.608  0.0000E+00  0.0000E+00
    -15.500  0.0000E+00  0.0000E+00
    -15.391  0.0000E+00  0.0000E+00
    -15.283  0.0000E+00  0.0000E+00
    -15.175  0.0000E+00  0.0000E+00
    -15.066  0.0000E+00  0.0000E+00
    -14.958  0.1260E+01  0.2855E-01
    -14.850  0.2528E+01  0.2396E+00
    -14.741  0.4078E+01  0.5948E+00
    -14.633  0.4795E+01  0.1110E+01
    -14.525  0.5037E+01  0.1645E+01
    -14.416  0.4899E+01  0.2179E+01
    -14.308  0.4949E+01  0.2713E+01
    -14.200  0.4913E+01  0.3248E+01
    -14.091  0.4973E+01  0.3784E+01
    -13.983  0.4979E+01  0.4323E+01
    -13.875  0.5008E+01  0.4864E+01
    -13.766  0.5632E+01  0.5438E+01
    -13.658  0.5892E+01  0.6066E+01
    -13.549  0.6801E+01  0.6784E+01
    -13.441  0.4589E+01  0.7366E+01
    -13.333  0.1804E+01  0.7726E+01
    -13.224  0.3422E+01  0.7976E+01
    -13.116  0.4244E+01  0.8420E+01
    -13.008  0.4713E+01  0.8905E+01
    -12.899  0.5866E+01  0.9657E+01
    -12.791  0.6652E+01  0.1035E+02
    -12.683  0.4359E+01  0.1090E+02
    -12.574  0.4538E+01  0.1139E+02
    -12.466  0.4675E+01  0.1189E+02
    -12.358  0.4792E+01  0.1240E+02
    -12.249  0.5145E+01  0.1294E+02
    -12.141  0.5479E+01  0.1351E+02
    -12.033  0.5667E+01  0.1414E+02
    -11.924  0.5527E+01  0.1474E+02
    -11.816  0.5120E+01  0.1531E+02
    -11.708  0.4945E+01  0.1585E+02
    -11.599  0.4935E+01  0.1638E+02
    -11.491  0.5031E+01  0.1692E+02
    -11.382  0.5089E+01  0.1747E+02
    -11.274  0.5250E+01  0.1803E+02
    -11.166  0.5507E+01  0.1861E+02
    -11.057  0.5901E+01  0.1923E+02
    -10.949  0.5791E+01  0.1986E+02
    -10.841  0.5751E+01  0.2048E+02
    -10.732  0.5816E+01  0.2111E+02
    -10.624  0.5252E+01  0.2173E+02
    -10.516  0.4531E+01  0.2224E+02
    -10.407  0.5142E+01  0.2277E+02
    -10.299  0.5333E+01  0.2334E+02
    -10.191  0.5444E+01  0.2392E+02
    -10.082  0.5645E+01  0.2452E+02
     -9.974  0.5894E+01  0.2514E+02
     -9.866  0.7346E+01  0.2585E+02
     -9.757  0.1047E+02  0.2681E+02
     -9.649  0.7068E+01  0.2775E+02
     -9.541  0.7233E+01  0.2842E+02
     -9.432  0.5957E+01  0.2912E+02
     -9.324  0.3612E+01  0.2964E+02
     -9.215  0.3242E+01  0.3001E+02
     -9.107  0.2871E+01  0.3034E+02
     -8.999  0.2500E+01  0.3063E+02
     -8.890  0.2457E+01  0.3089E+02
     -8.782  0.2949E+01  0.3121E+02
     -8.674  0.1949E+01  0.3148E+02
     -8.565  0.1624E+01  0.3164E+02
     -8.457  0.2524E+01  0.3187E+02
     -8.349  0.6910E+01  0.3230E+02
     -8.240  0.4412E+01  0.3304E+02
     -8.132  0.3913E+01  0.3348E+02
     -8.024  0.4246E+01  0.3392E+02
     -7.915  0.6823E+01  0.3455E+02
     -7.807  0.6256E+01  0.3532E+02
     -7.699  0.7321E+01  0.3606E+02
     -7.590  0.8436E+01  0.3691E+02
     -7.482  0.8092E+01  0.3786E+02
     -7.374  0.6290E+01  0.3861E+02
     -7.265  0.6027E+01  0.3928E+02
     -7.157  0.5769E+01  0.3992E+02
     -7.049  0.5539E+01  0.4053E+02
     -6.940  0.5347E+01  0.4112E+02
     -6.832  0.5167E+01  0.4169E+02
     -6.723  0.4972E+01  0.4224E+02
     -6.615  0.4848E+01  0.4277E+02
     -6.507  0.4821E+01  0.4329E+02
     -6.398  0.4790E+01  0.4382E+02
     -6.290  0.4625E+01  0.4433E+02
     -6.182  0.4427E+01  0.4482E+02
     -6.073  0.4169E+01  0.4530E+02
     -5.965  0.4064E+01  0.4570E+02
     -5.857  0.4328E+01  0.4615E+02
     -5.748  0.4958E+01  0.4665E+02
     -5.640  0.5775E+01  0.4723E+02
     -5.532  0.6626E+01  0.4790E+02
     -5.423  0.1066E+02  0.4883E+02
     -5.315  0.8568E+01  0.4988E+02
     -5.207  0.6260E+01  0.5069E+02
     -5.098  0.3953E+01  0.5124E+02
     -4.990  0.2611E+01  0.5157E+02
     -4.882  0.3071E+01  0.5187E+02
     -4.773  0.4330E+01  0.5226E+02
     -4.665  0.5674E+01  0.5281E+02
     -4.556  0.7329E+01  0.5350E+02
     -4.448  0.8019E+01  0.5436E+02
     -4.340  0.6787E+01  0.5517E+02
     -4.231  0.5649E+01  0.5584E+02
     -4.123  0.7307E+01  0.5648E+02
     -4.015  0.7276E+01  0.5730E+02
     -3.906  0.6754E+01  0.5806E+02
     -3.798  0.6524E+01  0.5877E+02
     -3.690  0.6425E+01  0.5948E+02
     -3.581  0.8315E+01  0.6021E+02
     -3.473  0.1393E+02  0.6140E+02
     -3.365  0.8744E+01  0.6241E+02
     -3.256  0.7868E+01  0.6331E+02
     -3.148  0.7173E+01  0.6414E+02
     -3.040  0.6862E+01  0.6488E+02
     -2.931  0.7720E+01  0.6566E+02
     -2.823  0.8829E+01  0.6656E+02
     -2.715  0.1113E+02  0.6761E+02
     -2.606  0.1410E+02  0.6902E+02
     -2.498  0.1164E+02  0.7050E+02
     -2.389  0.1291E+02  0.7176E+02
     -2.281  0.1240E+02  0.7310E+02
     -2.173  0.1493E+02  0.7449E+02
     -2.064  0.1288E+02  0.7607E+02
     -1.956  0.1944E+02  0.7761E+02
     -1.848  0.1118E+02  0.7932E+02
     -1.739  0.1707E+02  0.8061E+02
     -1.631  0.1703E+02  0.8272E+02
     -1.523  0.1861E+02  0.8470E+02
     -1.414  0.1442E+02  0.8647E+02
     -1.306  0.1186E+02  0.8789E+02
     -1.198  0.1073E+02  0.8909E+02
     -1.089  0.8882E+01  0.9016E+02
     -0.981  0.7750E+01  0.9104E+02
     -0.873  0.1138E+02  0.9207E+02
     -0.764  0.1338E+02  0.9349E+02
     -0.656  0.1847E+02  0.9505E+02
     -0.548  0.8702E+01  0.9633E+02
     -0.439  0.9888E+01  0.9735E+02
     -0.331  0.1078E+02  0.9847E+02
     -0.223  0.1064E+02  0.9960E+02
     -0.114  0.1078E+02  0.1008E+03
     -0.006  0.9404E+01  0.1019E+03
      0.103  0.9708E+01  0.1029E+03
      0.211  0.9526E+01  0.1040E+03
      0.319  0.9727E+01  0.1050E+03
      0.428  0.9289E+01  0.1060E+03
      0.536  0.9263E+01  0.1070E+03
      0.644  0.9407E+01  0.1081E+03
      0.753  0.9372E+01  0.1091E+03
      0.861  0.9232E+01  0.1101E+03
      0.969  0.9335E+01  0.1111E+03
      1.078  0.9218E+01  0.1121E+03
      1.186  0.9536E+01  0.1131E+03
      1.294  0.9432E+01  0.1141E+03
      1.403  0.9434E+01  0.1152E+03
      1.511  0.9526E+01  0.1162E+03
      1.619  0.6622E+01  0.1171E+03
      1.728  0.6481E+01  0.1178E+03
      1.836  0.5869E+01  0.1185E+03
      1.944  0.4642E+01  0.1191E+03
      2.053  0.3835E+01  0.1195E+03
      2.161  0.4817E+01  0.1200E+03
      2.270  0.8226E+01  0.1207E+03
      2.378  0.1002E+02  0.1216E+03
      2.486  0.5552E+01  0.1223E+03
      2.595  0.8411E+01  0.1231E+03
      2.703  0.6415E+01  0.1240E+03
      2.811  0.5063E+01  0.1246E+03
      2.920  0.4225E+01  0.1251E+03
      3.028  0.3619E+01  0.1255E+03
      3.136  0.3258E+01  0.1259E+03
      3.245  0.3114E+01  0.1262E+03
      3.353  0.2731E+01  0.1265E+03
      3.461  0.2333E+01  0.1268E+03
      3.570  0.1996E+01  0.1270E+03
      3.678  0.1765E+01  0.1272E+03
      3.786  0.1526E+01  0.1274E+03
      3.895  0.1287E+01  0.1276E+03
      4.003  0.1054E+01  0.1277E+03
      4.111  0.8673E+00  0.1278E+03
      4.220  0.6521E+00  0.1279E+03
      4.328  0.4516E+00  0.1279E+03
      4.437  0.2635E+00  0.1280E+03
      4.545  0.8569E-01  0.1280E+03
      4.653  0.4401E-01  0.1280E+03
      4.762  0.1719E+00  0.1280E+03
      4.870  0.3111E+00  0.1280E+03
      4.978  0.4650E+00  0.1281E+03
      5.087  0.6355E+00  0.1281E+03
      5.195  0.8322E+00  0.1282E+03
      5.303  0.1111E+01  0.1283E+03
      5.412  0.1474E+01  0.1285E+03
      5.520  0.1841E+01  0.1286E+03
      5.628  0.2191E+01  0.1289E+03
      5.737  0.2611E+01  0.1291E+03
      5.845  0.3143E+01  0.1294E+03
      5.953  0.3737E+01  0.1298E+03
      6.062  0.4715E+01  0.1303E+03
      6.170  0.1071E+02  0.1311E+03
      6.278  0.8467E+01  0.1321E+03
      6.387  0.7934E+01  0.1330E+03
      6.495  0.8094E+01  0.1339E+03
      6.603  0.6765E+01  0.1347E+03
      6.712  0.6099E+01  0.1354E+03
      6.820  0.6016E+01  0.1361E+03
      6.929  0.5394E+01  0.1367E+03
      7.037  0.4732E+01  0.1372E+03
      7.145  0.3961E+01  0.1377E+03
      7.254  0.3556E+01  0.1381E+03
      7.362  0.3624E+01  0.1385E+03
      7.470  0.4072E+01  0.1389E+03
      7.579  0.4478E+01  0.1394E+03
      7.687  0.4792E+01  0.1399E+03
      7.795  0.4658E+01  0.1404E+03
      7.904  0.4494E+01  0.1409E+03
      8.012  0.4335E+01  0.1414E+03
      8.120  0.4171E+01  0.1418E+03
      8.229  0.3984E+01  0.1423E+03
      8.337  0.3817E+01  0.1427E+03
      8.445  0.3674E+01  0.1431E+03
      8.554  0.3572E+01  0.1435E+03
      8.662  0.3504E+01  0.1439E+03
      8.770  0.3401E+01  0.1442E+03
      8.879  0.3329E+01  0.1446E+03
      8.987  0.3554E+01  0.1450E+03
      9.096  0.3768E+01  0.1454E+03
      9.204  0.3974E+01  0.1458E+03
      9.312  0.4078E+01  0.1462E+03
      9.421  0.4170E+01  0.1467E+03
      9.529  0.3990E+01  0.1471E+03
      9.637  0.3944E+01  0.1475E+03
      9.746  0.3933E+01  0.1480E+03
      9.854  0.3929E+01  0.1484E+03
      9.962  0.3944E+01  0.1488E+03
     10.071  0.3968E+01  0.1493E+03
     10.179  0.4022E+01  0.1497E+03
     10.287  0.4095E+01  0.1501E+03
     10.396  0.4230E+01  0.1506E+03
     10.504  0.4301E+01  0.1510E+03
     10.612  0.5601E+01  0.1516E+03
     10.721  0.5036E+01  0.1522E+03
     10.829  0.4900E+01  0.1528E+03
     10.937  0.4649E+01  0.1533E+03
     11.046  0.4995E+01  0.1538E+03
     11.154  0.3760E+01  0.1542E+03
     11.263  0.3477E+01  0.1546E+03
     11.371  0.3687E+01  0.1550E+03
     11.479  0.4254E+01  0.1555E+03
     11.588  0.2799E+01  0.1559E+03
     11.696  0.2676E+01  0.1561E+03
     11.804  0.3795E+01  0.1565E+03
     11.913  0.6939E+01  0.1571E+03
     12.021  0.8605E+01  0.1578E+03
     12.129  0.1132E+02  0.1589E+03
     12.238  0.1346E+02  0.1603E+03
     12.346  0.1394E+02  0.1618E+03
     12.454  0.1282E+02  0.1633E+03
     12.563  0.9873E+01  0.1645E+03
     12.671  0.7099E+01  0.1654E+03
     12.779  0.5983E+01  0.1661E+03
     12.888  0.5482E+01  0.1667E+03
     12.996  0.4963E+01  0.1673E+03
     13.104  0.2614E+01  0.1677E+03
     13.213  0.1337E+01  0.1679E+03
     13.321  0.3426E+00  0.1680E+03
     13.429  0.1062E-02  0.1680E+03
     13.538  0.0000E+00  0.1680E+03
     13.646  0.0000E+00  0.1680E+03
     13.755  0.0000E+00  0.1680E+03
     13.863  0.0000E+00  0.1680E+03
     13.971  0.0000E+00  0.1680E+03
     14.080  0.0000E+00  0.1680E+03
     14.188  0.0000E+00  0.1680E+03
     14.296  0.0000E+00  0.1680E+03
     14.405  0.0000E+00  0.1680E+03
     14.513  0.0000E+00  0.1680E+03
     14.621  0.0000E+00  0.1680E+03
     14.730  0.0000E+00  0.1680E+03
     14.838  0.0000E+00  0.1680E+03
     14.946  0.0000E+00  0.1680E+03
     15.055  0.0000E+00  0.1680E+03
     15.163  0.0000E+00  0.1680E+03
     15.271  0.0000E+00  0.1680E+03
     15.380  0.0000E+00  0.1680E+03
     15.488  0.0000E+00  0.1680E+03
