 vasp.5.3.5 31Mar14 (build Nov 02 2014 15:17:37) complex                        
  
 executed on        ion-Intel-MKL date 2016.08.28  01:33:18
 running on    6 total cores
 distrk:  each k-point on    6 cores,    1 groups
 distr:  one band on NCORES_PER_BAND=   1 cores,    6 groups


--------------------------------------------------------------------------------------------------------


 INCAR:
 POTCAR:   PAW_PBE C 08Apr2002                    

 ----------------------------------------------------------------------------- 
|                                                                             |
|           W    W    AA    RRRRR   N    N  II  N    N   GGGG   !!!           |
|           W    W   A  A   R    R  NN   N  II  NN   N  G    G  !!!           |
|           W    W  A    A  R    R  N N  N  II  N N  N  G       !!!           |
|           W WW W  AAAAAA  RRRRR   N  N N  II  N  N N  G  GGG   !            |
|           WW  WW  A    A  R   R   N   NN  II  N   NN  G    G                |
|           W    W  A    A  R    R  N    N  II  N    N   GGGG   !!!           |
|                                                                             |
|      For optimal performance we recommend to set                            |
|        NCORE= 4 - approx SQRT( number of cores)                             |
|      NCORE specifies how many cores store one orbital (NPAR=cpu/NCORE).     |
|      This setting can  greatly improve the performance of VASP for DFT.     |
|      The default, NPAR=number of cores might be grossly inefficient         |
|      on modern multi-core architectures or massively parallel machines.     |
|      Do your own testing !!!!                                               |
|      Unfortunately you need to use the default for GW and RPA calculations. |
|      (for HF NCORE is supported but not extensively tested yet)             |
|                                                                             |
 ----------------------------------------------------------------------------- 

 POTCAR:   PAW_PBE C 08Apr2002                    
   VRHFIN =C: s2p2                                                              
   LEXCH  = PE                                                                  
   EATOM  =   147.1560 eV,   10.8157 Ry                                         
                                                                                
   TITEL  = PAW_PBE C 08Apr2002                                                 
   LULTRA =        F    use ultrasoft PP ?                                      
   IUNSCR =        0    unscreen: 0-lin 1-nonlin 2-no                           
   RPACOR =     .000    partial core radius                                     
   POMASS =   12.011; ZVAL   =    4.000    mass and valenz                      
   RCORE  =    1.500    outmost cutoff radius                                   
   RWIGS  =    1.630; RWIGS  =     .863    wigner-seitz radius (au A)           
   ENMAX  =  400.000; ENMIN  =  300.000 eV                                      
   ICORE  =        2    local potential                                         
   LCOR   =        T    correct aug charges                                     
   LPAW   =        T    paw PP                                                  
   EAUG   =  644.873                                                            
   DEXC   =     .000                                                            
   RMAX   =    2.266    core radius for proj-oper                               
   RAUG   =    1.300    factor for augmentation sphere                          
   RDEP   =    1.501    radius for radial grids                                 
   RDEPT  =    1.300    core radius for aug-charge                              
   QCUT   =   -5.516; QGAM   =   11.032    optimization parameters              
                                                                                
   Description                                                                  
     l     E      TYP  RCUT    TYP  RCUT                                        
     0   .000     23  1.200                                                     
     0   .000     23  1.200                                                     
     1   .000     23  1.500                                                     
     1  2.500     23  1.500                                                     
     2   .000      7  1.500                                                     
  local pseudopotential read in
  atomic valenz-charges read in
  non local Contribution for L=           0  read in
    real space projection operators read in
  non local Contribution for L=           0  read in
    real space projection operators read in
  non local Contribution for L=           1  read in
    real space projection operators read in
  non local Contribution for L=           1  read in
    real space projection operators read in
    PAW grid and wavefunctions read in
 
   number of l-projection  operators is LMAX  =           4
   number of lm-projection operators is LMMAX =           8
 

 ----------------------------------------------------------------------------- 
|                                                                             |
|  ADVICE TO THIS USER RUNNING 'VASP/VAMP'   (HEAR YOUR MASTER'S VOICE ...):  |
|                                                                             |
|      You have a (more or less) 'large supercell' and for larger cells       |
|      it might be more efficient to use real space projection operators      |
|      So try LREAL= Auto  in the INCAR   file.                               |
|      Mind: If you want to do a very accurate calculations keep the          |
|      reciprocal projection scheme          (i.e. LREAL=.FALSE.)             |
|                                                                             |
 ----------------------------------------------------------------------------- 

 PAW_PBE C 08Apr2002                    :
 energy of atom  1       EATOM= -147.1560
 kinetic energy error for atom=    0.0057 (will be added to EATOM!!)
 
 
 POSCAR: C                                       
  positions in direct lattice
  No initial velocities read in
 exchange correlation table for  LEXCH =        8
   RHO(1)=    0.500       N(1)  =     2000
   RHO(2)=  100.500       N(2)  =     4000
 


--------------------------------------------------------------------------------------------------------


 ion  position               nearest neighbor table
   1  0.500  0.000  0.125-  18 1.42  19 1.42  20 1.42
   2  1.000  0.000  0.125-  20 1.42  17 1.42  19 1.42
   3  0.500  0.500  0.125-  17 1.42  20 1.42  18 1.42
   4  1.000  0.500  0.125-  19 1.42  18 1.42  17 1.43
   5  0.500  0.000  0.625-  22 1.42  23 1.42  24 1.42
   6  1.000  0.000  0.625-  21 1.42  24 1.42  23 1.42
   7  0.500  0.500  0.625-  24 1.42  21 1.42  22 1.42
   8  1.000  0.500  0.625-  23 1.42  22 1.42  21 1.42
   9  0.000  0.500  0.375-  27 1.42  26 1.42  28 1.42
  10  0.500  0.500  0.375-  28 1.42  25 1.42  27 1.42
  11  0.000  1.000  0.375-  25 1.42  28 1.42  26 1.42
  12  0.500  1.000  0.375-  26 1.42  27 1.42  25 1.42
  13  0.000  0.500  0.875-  31 1.42  30 1.42  32 1.42
  14  0.500  0.500  0.875-  32 1.42  29 1.42  31 1.42
  15  0.000  1.000  0.875-  29 1.42  32 1.42  30 1.42
  16  0.500  1.000  0.875-  30 1.42  31 1.42  29 1.42
  17  0.167  0.334  0.126-   3 1.42   2 1.42   4 1.43
  18  0.666  0.334  0.125-   1 1.42   4 1.42   3 1.42
  19  0.166  0.834  0.125-   4 1.42   1 1.42   2 1.42
  20  0.666  0.834  0.125-   3 1.42   2 1.42   1 1.42
  21  0.166  0.334  0.625-   6 1.42   7 1.42   8 1.42
  22  0.666  0.334  0.625-   5 1.42   8 1.42   7 1.42
  23  0.166  0.834  0.625-   8 1.42   5 1.42   6 1.42
  24  0.666  0.834  0.625-   7 1.42   6 1.42   5 1.42
  25  0.334  0.166  0.375-  11 1.42  10 1.42  12 1.42
  26  0.834  0.166  0.375-  12 1.42   9 1.42  11 1.42
  27  0.334  0.666  0.375-   9 1.42  12 1.42  10 1.42
  28  0.834  0.666  0.375-  10 1.42  11 1.42   9 1.42
  29  0.334  0.166  0.875-  15 1.42  14 1.42  16 1.42
  30  0.834  0.166  0.875-  16 1.42  13 1.42  15 1.42
  31  0.334  0.666  0.875-  13 1.42  16 1.42  14 1.42
  32  0.834  0.666  0.875-  14 1.42  15 1.42  13 1.42
 
  LATTYP: Found a base centered orthorhombic cell.
 ALAT       =     4.9295501972
 B/A-ratio  =     1.7336081796
 C/A-ratio  =     2.7444231105
  
  Lattice vectors:
  
 A1 = (   4.9328744980,  -0.0019192860,   0.0000000000)
 A2 = (  -2.4680993993,   4.2710349859,   0.0000000000)
 A3 = (   0.0000000000,   0.0000000000,  13.5287714854)


Analysis of symmetry for initial positions (statically):
=====================================================================
 Subroutine PRICEL returns:
 Original cell was already a primitive cell.
 

 Routine SETGRP: Setting up the symmetry group for a 
 base centered orthorhombic supercell.


 Subroutine GETGRP returns: Found  1 space group operations
 (whereof  1 operations were pure point group operations)
 out of a pool of  8 trial point group operations.


The static configuration has the point symmetry C_1 .


Analysis of symmetry for dynamics (positions and initial velocities):
=====================================================================
 Subroutine PRICEL returns:
 Original cell was already a primitive cell.
 

 Routine SETGRP: Setting up the symmetry group for a 
 base centered orthorhombic supercell.


 Subroutine GETGRP returns: Found  1 space group operations
 (whereof  1 operations were pure point group operations)
 out of a pool of  8 trial point group operations.


The dynamic configuration has the point symmetry C_1 .
 
 
 KPOINTS: B4C B11C-CBC                            

Automatic generation of k-mesh.
Space group operators:
 irot       det(A)        alpha          n_x          n_y          n_z        tau_x        tau_y        tau_z
    1     1.000000     0.000001     1.000000     0.000000     0.000000     0.000000     0.000000     0.000000
 
 Subroutine IBZKPT returns following result:
 ===========================================
 
 Found    163 irreducible k-points:
 
 Following reciprocal coordinates:
            Coordinates               Weight
  0.000000  0.000000  0.000000      1.000000
  0.111111  0.000000  0.000000      2.000000
  0.222222  0.000000  0.000000      2.000000
  0.333333  0.000000  0.000000      2.000000
  0.444444  0.000000  0.000000      2.000000
 -0.000000  0.111111  0.000000      2.000000
  0.111111  0.111111  0.000000      2.000000
  0.222222  0.111111  0.000000      2.000000
  0.333333  0.111111  0.000000      2.000000
  0.444444  0.111111  0.000000      2.000000
 -0.444444  0.111111  0.000000      2.000000
 -0.333333  0.111111  0.000000      2.000000
 -0.222222  0.111111  0.000000      2.000000
 -0.111111  0.111111  0.000000      2.000000
 -0.000000  0.222222  0.000000      2.000000
  0.111111  0.222222  0.000000      2.000000
  0.222222  0.222222  0.000000      2.000000
  0.333333  0.222222  0.000000      2.000000
  0.444444  0.222222  0.000000      2.000000
 -0.444444  0.222222  0.000000      2.000000
 -0.333333  0.222222  0.000000      2.000000
 -0.222222  0.222222  0.000000      2.000000
 -0.111111  0.222222  0.000000      2.000000
  0.000000  0.333333  0.000000      2.000000
  0.111111  0.333333  0.000000      2.000000
  0.222222  0.333333  0.000000      2.000000
  0.333333  0.333333  0.000000      2.000000
  0.444444  0.333333  0.000000      2.000000
 -0.444444  0.333333  0.000000      2.000000
 -0.333333  0.333333  0.000000      2.000000
 -0.222222  0.333333  0.000000      2.000000
 -0.111111  0.333333  0.000000      2.000000
 -0.000000  0.444444  0.000000      2.000000
  0.111111  0.444444  0.000000      2.000000
  0.222222  0.444444  0.000000      2.000000
  0.333333  0.444444  0.000000      2.000000
  0.444444  0.444444  0.000000      2.000000
 -0.444444  0.444444  0.000000      2.000000
 -0.333333  0.444444  0.000000      2.000000
 -0.222222  0.444444  0.000000      2.000000
 -0.111111  0.444444  0.000000      2.000000
  0.000000  0.000000  0.250000      2.000000
  0.111111  0.000000  0.250000      2.000000
  0.222222  0.000000  0.250000      2.000000
  0.333333  0.000000  0.250000      2.000000
  0.444444  0.000000  0.250000      2.000000
 -0.444444 -0.000000  0.250000      2.000000
 -0.333333  0.000000  0.250000      2.000000
 -0.222222 -0.000000  0.250000      2.000000
 -0.111111 -0.000000  0.250000      2.000000
 -0.000000  0.111111  0.250000      2.000000
  0.111111  0.111111  0.250000      2.000000
  0.222222  0.111111  0.250000      2.000000
  0.333333  0.111111  0.250000      2.000000
  0.444444  0.111111  0.250000      2.000000
 -0.444444  0.111111  0.250000      2.000000
 -0.333333  0.111111  0.250000      2.000000
 -0.222222  0.111111  0.250000      2.000000
 -0.111111  0.111111  0.250000      2.000000
 -0.000000  0.222222  0.250000      2.000000
  0.111111  0.222222  0.250000      2.000000
  0.222222  0.222222  0.250000      2.000000
  0.333333  0.222222  0.250000      2.000000
  0.444444  0.222222  0.250000      2.000000
 -0.444444  0.222222  0.250000      2.000000
 -0.333333  0.222222  0.250000      2.000000
 -0.222222  0.222222  0.250000      2.000000
 -0.111111  0.222222  0.250000      2.000000
  0.000000  0.333333  0.250000      2.000000
  0.111111  0.333333  0.250000      2.000000
  0.222222  0.333333  0.250000      2.000000
  0.333333  0.333333  0.250000      2.000000
  0.444444  0.333333  0.250000      2.000000
 -0.444444  0.333333  0.250000      2.000000
 -0.333333  0.333333  0.250000      2.000000
 -0.222222  0.333333  0.250000      2.000000
 -0.111111  0.333333  0.250000      2.000000
 -0.000000  0.444444  0.250000      2.000000
  0.111111  0.444444  0.250000      2.000000
  0.222222  0.444444  0.250000      2.000000
  0.333333  0.444444  0.250000      2.000000
  0.444444  0.444444  0.250000      2.000000
 -0.444444  0.444444  0.250000      2.000000
 -0.333333  0.444444  0.250000      2.000000
 -0.222222  0.444444  0.250000      2.000000
 -0.111111  0.444444  0.250000      2.000000
  0.000000 -0.444444  0.250000      2.000000
  0.111111 -0.444444  0.250000      2.000000
  0.222222 -0.444444  0.250000      2.000000
  0.333333 -0.444444  0.250000      2.000000
  0.444444 -0.444444  0.250000      2.000000
 -0.444444 -0.444444  0.250000      2.000000
 -0.333333 -0.444444  0.250000      2.000000
 -0.222222 -0.444444  0.250000      2.000000
 -0.111111 -0.444444  0.250000      2.000000
 -0.000000 -0.333333  0.250000      2.000000
  0.111111 -0.333333  0.250000      2.000000
  0.222222 -0.333333  0.250000      2.000000
  0.333333 -0.333333  0.250000      2.000000
  0.444444 -0.333333  0.250000      2.000000
 -0.444444 -0.333333  0.250000      2.000000
 -0.333333 -0.333333  0.250000      2.000000
 -0.222222 -0.333333  0.250000      2.000000
 -0.111111 -0.333333  0.250000      2.000000
  0.000000 -0.222222  0.250000      2.000000
  0.111111 -0.222222  0.250000      2.000000
  0.222222 -0.222222  0.250000      2.000000
  0.333333 -0.222222  0.250000      2.000000
  0.444444 -0.222222  0.250000      2.000000
 -0.444444 -0.222222  0.250000      2.000000
 -0.333333 -0.222222  0.250000      2.000000
 -0.222222 -0.222222  0.250000      2.000000
 -0.111111 -0.222222  0.250000      2.000000
  0.000000 -0.111111  0.250000      2.000000
  0.111111 -0.111111  0.250000      2.000000
  0.222222 -0.111111  0.250000      2.000000
  0.333333 -0.111111  0.250000      2.000000
  0.444444 -0.111111  0.250000      2.000000
 -0.444444 -0.111111  0.250000      2.000000
 -0.333333 -0.111111  0.250000      2.000000
 -0.222222 -0.111111  0.250000      2.000000
 -0.111111 -0.111111  0.250000      2.000000
  0.000000  0.000000  0.500000      1.000000
  0.111111  0.000000  0.500000      2.000000
  0.222222  0.000000  0.500000      2.000000
  0.333333  0.000000  0.500000      2.000000
  0.444444  0.000000  0.500000      2.000000
 -0.000000  0.111111  0.500000      2.000000
  0.111111  0.111111  0.500000      2.000000
  0.222222  0.111111  0.500000      2.000000
  0.333333  0.111111  0.500000      2.000000
  0.444444  0.111111  0.500000      2.000000
 -0.444444  0.111111  0.500000      2.000000
 -0.333333  0.111111  0.500000      2.000000
 -0.222222  0.111111  0.500000      2.000000
 -0.111111  0.111111  0.500000      2.000000
 -0.000000  0.222222  0.500000      2.000000
  0.111111  0.222222  0.500000      2.000000
  0.222222  0.222222  0.500000      2.000000
  0.333333  0.222222  0.500000      2.000000
  0.444444  0.222222  0.500000      2.000000
 -0.444444  0.222222  0.500000      2.000000
 -0.333333  0.222222  0.500000      2.000000
 -0.222222  0.222222  0.500000      2.000000
 -0.111111  0.222222  0.500000      2.000000
  0.000000  0.333333  0.500000      2.000000
  0.111111  0.333333  0.500000      2.000000
  0.222222  0.333333  0.500000      2.000000
  0.333333  0.333333  0.500000      2.000000
  0.444444  0.333333  0.500000      2.000000
 -0.444444  0.333333  0.500000      2.000000
 -0.333333  0.333333  0.500000      2.000000
 -0.222222  0.333333  0.500000      2.000000
 -0.111111  0.333333  0.500000      2.000000
 -0.000000  0.444444  0.500000      2.000000
  0.111111  0.444444  0.500000      2.000000
  0.222222  0.444444  0.500000      2.000000
  0.333333  0.444444  0.500000      2.000000
  0.444444  0.444444  0.500000      2.000000
 -0.444444  0.444444  0.500000      2.000000
 -0.333333  0.444444  0.500000      2.000000
 -0.222222  0.444444  0.500000      2.000000
 -0.111111  0.444444  0.500000      2.000000
 
 Following cartesian coordinates:
            Coordinates               Weight
  0.000000  0.000000  0.000000      1.000000
  0.022530  0.013019  0.000000      2.000000
  0.045059  0.026038  0.000000      2.000000
  0.067589  0.039058  0.000000      2.000000
  0.090119  0.052077  0.000000      2.000000
  0.000010  0.026021  0.000000      2.000000
  0.022540  0.039040  0.000000      2.000000
  0.045069  0.052059  0.000000      2.000000
  0.067599  0.065079  0.000000      2.000000
  0.090129  0.078098  0.000000      2.000000
 -0.090109 -0.026056  0.000000      2.000000
 -0.067579 -0.013037  0.000000      2.000000
 -0.045049 -0.000018  0.000000      2.000000
 -0.022520  0.013002  0.000000      2.000000
  0.000020  0.052042  0.000000      2.000000
  0.022550  0.065061  0.000000      2.000000
  0.045080  0.078080  0.000000      2.000000
  0.067609  0.091099  0.000000      2.000000
  0.090139  0.104119  0.000000      2.000000
 -0.090098 -0.000035  0.000000      2.000000
 -0.067569  0.012984  0.000000      2.000000
 -0.045039  0.026003  0.000000      2.000000
 -0.022509  0.039023  0.000000      2.000000
  0.000030  0.078063  0.000000      2.000000
  0.022560  0.091082  0.000000      2.000000
  0.045090  0.104101  0.000000      2.000000
  0.067619  0.117120  0.000000      2.000000
  0.090149  0.130139  0.000000      2.000000
 -0.090088  0.025986  0.000000      2.000000
 -0.067559  0.039005  0.000000      2.000000
 -0.045029  0.052024  0.000000      2.000000
 -0.022499  0.065043  0.000000      2.000000
  0.000040  0.104084  0.000000      2.000000
  0.022570  0.117103  0.000000      2.000000
  0.045100  0.130122  0.000000      2.000000
  0.067630  0.143141  0.000000      2.000000
  0.090159  0.156160  0.000000      2.000000
 -0.090078  0.052007  0.000000      2.000000
 -0.067549  0.065026  0.000000      2.000000
 -0.045019  0.078045  0.000000      2.000000
 -0.022489  0.091064  0.000000      2.000000
  0.000000  0.000000  0.018479      2.000000
  0.022530  0.013019  0.018479      2.000000
  0.045059  0.026038  0.018479      2.000000
  0.067589  0.039058  0.018479      2.000000
  0.090119  0.052077  0.018479      2.000000
 -0.090119 -0.052077  0.018479      2.000000
 -0.067589 -0.039058  0.018479      2.000000
 -0.045059 -0.026038  0.018479      2.000000
 -0.022530 -0.013019  0.018479      2.000000
  0.000010  0.026021  0.018479      2.000000
  0.022540  0.039040  0.018479      2.000000
  0.045069  0.052059  0.018479      2.000000
  0.067599  0.065079  0.018479      2.000000
  0.090129  0.078098  0.018479      2.000000
 -0.090109 -0.026056  0.018479      2.000000
 -0.067579 -0.013037  0.018479      2.000000
 -0.045049 -0.000018  0.018479      2.000000
 -0.022520  0.013002  0.018479      2.000000
  0.000020  0.052042  0.018479      2.000000
  0.022550  0.065061  0.018479      2.000000
  0.045080  0.078080  0.018479      2.000000
  0.067609  0.091099  0.018479      2.000000
  0.090139  0.104119  0.018479      2.000000
 -0.090098 -0.000035  0.018479      2.000000
 -0.067569  0.012984  0.018479      2.000000
 -0.045039  0.026003  0.018479      2.000000
 -0.022509  0.039023  0.018479      2.000000
  0.000030  0.078063  0.018479      2.000000
  0.022560  0.091082  0.018479      2.000000
  0.045090  0.104101  0.018479      2.000000
  0.067619  0.117120  0.018479      2.000000
  0.090149  0.130139  0.018479      2.000000
 -0.090088  0.025986  0.018479      2.000000
 -0.067559  0.039005  0.018479      2.000000
 -0.045029  0.052024  0.018479      2.000000
 -0.022499  0.065043  0.018479      2.000000
  0.000040  0.104084  0.018479      2.000000
  0.022570  0.117103  0.018479      2.000000
  0.045100  0.130122  0.018479      2.000000
  0.067630  0.143141  0.018479      2.000000
  0.090159  0.156160  0.018479      2.000000
 -0.090078  0.052007  0.018479      2.000000
 -0.067549  0.065026  0.018479      2.000000
 -0.045019  0.078045  0.018479      2.000000
 -0.022489  0.091064  0.018479      2.000000
 -0.000040 -0.104084  0.018479      2.000000
  0.022489 -0.091064  0.018479      2.000000
  0.045019 -0.078045  0.018479      2.000000
  0.067549 -0.065026  0.018479      2.000000
  0.090078 -0.052007  0.018479      2.000000
 -0.090159 -0.156160  0.018479      2.000000
 -0.067630 -0.143141  0.018479      2.000000
 -0.045100 -0.130122  0.018479      2.000000
 -0.022570 -0.117103  0.018479      2.000000
 -0.000030 -0.078063  0.018479      2.000000
  0.022499 -0.065043  0.018479      2.000000
  0.045029 -0.052024  0.018479      2.000000
  0.067559 -0.039005  0.018479      2.000000
  0.090088 -0.025986  0.018479      2.000000
 -0.090149 -0.130139  0.018479      2.000000
 -0.067619 -0.117120  0.018479      2.000000
 -0.045090 -0.104101  0.018479      2.000000
 -0.022560 -0.091082  0.018479      2.000000
 -0.000020 -0.052042  0.018479      2.000000
  0.022509 -0.039023  0.018479      2.000000
  0.045039 -0.026003  0.018479      2.000000
  0.067569 -0.012984  0.018479      2.000000
  0.090098  0.000035  0.018479      2.000000
 -0.090139 -0.104119  0.018479      2.000000
 -0.067609 -0.091099  0.018479      2.000000
 -0.045080 -0.078080  0.018479      2.000000
 -0.022550 -0.065061  0.018479      2.000000
 -0.000010 -0.026021  0.018479      2.000000
  0.022520 -0.013002  0.018479      2.000000
  0.045049  0.000018  0.018479      2.000000
  0.067579  0.013037  0.018479      2.000000
  0.090109  0.026056  0.018479      2.000000
 -0.090129 -0.078098  0.018479      2.000000
 -0.067599 -0.065079  0.018479      2.000000
 -0.045069 -0.052059  0.018479      2.000000
 -0.022540 -0.039040  0.018479      2.000000
  0.000000  0.000000  0.036958      1.000000
  0.022530  0.013019  0.036958      2.000000
  0.045059  0.026038  0.036958      2.000000
  0.067589  0.039058  0.036958      2.000000
  0.090119  0.052077  0.036958      2.000000
  0.000010  0.026021  0.036958      2.000000
  0.022540  0.039040  0.036958      2.000000
  0.045069  0.052059  0.036958      2.000000
  0.067599  0.065079  0.036958      2.000000
  0.090129  0.078098  0.036958      2.000000
 -0.090109 -0.026056  0.036958      2.000000
 -0.067579 -0.013037  0.036958      2.000000
 -0.045049 -0.000018  0.036958      2.000000
 -0.022520  0.013002  0.036958      2.000000
  0.000020  0.052042  0.036958      2.000000
  0.022550  0.065061  0.036958      2.000000
  0.045080  0.078080  0.036958      2.000000
  0.067609  0.091099  0.036958      2.000000
  0.090139  0.104119  0.036958      2.000000
 -0.090098 -0.000035  0.036958      2.000000
 -0.067569  0.012984  0.036958      2.000000
 -0.045039  0.026003  0.036958      2.000000
 -0.022509  0.039023  0.036958      2.000000
  0.000030  0.078063  0.036958      2.000000
  0.022560  0.091082  0.036958      2.000000
  0.045090  0.104101  0.036958      2.000000
  0.067619  0.117120  0.036958      2.000000
  0.090149  0.130139  0.036958      2.000000
 -0.090088  0.025986  0.036958      2.000000
 -0.067559  0.039005  0.036958      2.000000
 -0.045029  0.052024  0.036958      2.000000
 -0.022499  0.065043  0.036958      2.000000
  0.000040  0.104084  0.036958      2.000000
  0.022570  0.117103  0.036958      2.000000
  0.045100  0.130122  0.036958      2.000000
  0.067630  0.143141  0.036958      2.000000
  0.090159  0.156160  0.036958      2.000000
 -0.090078  0.052007  0.036958      2.000000
 -0.067549  0.065026  0.036958      2.000000
 -0.045019  0.078045  0.036958      2.000000
 -0.022489  0.091064  0.036958      2.000000
 
 TETIRR: Found    970 inequivalent tetrahedra from     1944


--------------------------------------------------------------------------------------------------------




 Dimension of arrays:
   k-points           NKPTS =    163   k-points in BZ     NKDIM =    163   number of bands    NBANDS=     84
   number of dos      NEDOS =    301   number of ions     NIONS =     32
   non local maximal  LDIM  =      4   non local SUM 2l+1 LMDIM =      8
   total plane-waves  NPLWV = 172800
   max r-space proj   IRMAX =      1   max aug-charges    IRDMAX=   7355
   dimension x,y,z NGX =    40 NGY =   40 NGZ =  108
   dimension x,y,z NGXF=    80 NGYF=   80 NGZF=  216
   support grid    NGXF=    80 NGYF=   80 NGZF=  216
   ions per type =              32
 NGX,Y,Z   is equivalent  to a cutoff of  13.48, 13.48, 13.27 a.u.
 NGXF,Y,Z  is equivalent  to a cutoff of  26.96, 26.96, 26.54 a.u.


 I would recommend the setting:
   dimension x,y,z NGX =    39 NGY =   39 NGZ =  108
 SYSTEM =  graphite                                
 POSCAR =  C                                       

 Startparameter for this run:
   NWRITE =      2    write-flag & timer
   PREC   = accura    normal or accurate (medium, high low for compatibility)
   ISTART =      0    job   : 0-new  1-cont  2-samecut
   ICHARG =      2    charge: 1-file 2-atom 10-const
   ISPIN  =      1    spin polarized calculation?
   LNONCOLLINEAR =      F non collinear calculations
   LSORBIT =      F    spin-orbit coupling
   INIWAV =      1    electr: 0-lowe 1-rand  2-diag
   LASPH  =      F    aspherical Exc in radial PAW
   METAGGA=      F    non-selfconsistent MetaGGA calc.

 Electronic Relaxation 1
   ENCUT  =  600.0 eV  44.10 Ry    6.64 a.u.   9.85  9.85 27.02*2*pi/ulx,y,z
   ENINI  =  600.0     initial cutoff
   ENAUG  =  644.9 eV  augmentation charge cutoff
   NELM   =    200;   NELMIN=  2; NELMDL=  0     # of ELM steps 
   EDIFF  = 0.1E-05   stopping-criterion for ELM
   LREAL  =      F    real-space projection
   NLSPLINE    = F    spline interpolate recip. space projectors
   LCOMPAT=      F    compatible to vasp.4.4
   GGA_COMPAT  = T    GGA compatible to vasp.4.4-vasp.4.6
   LMAXPAW     = -100 max onsite density
   LMAXMIX     =    2 max onsite mixed and CHGCAR
   VOSKOWN=      0    Vosko Wilk Nusair interpolation
   ROPT   =    0.00000
 Ionic relaxation
   EDIFFG = 0.1E-02   stopping-criterion for IOM
   NSW    =      0    number of steps for IOM
   NBLOCK =      1;   KBLOCK =      1    inner block; outer block 
   IBRION =     -1    ionic relax: 0-MD 1-quasi-New 2-CG
   NFREE  =      0    steps in history (QN), initial steepest desc. (CG)
   ISIF   =      2    stress and relaxation
   IWAVPR =     10    prediction:  0-non 1-charg 2-wave 3-comb
   ISYM   =      2    0-nonsym 1-usesym 2-fastsym
   LCORR  =      T    Harris-Foulkes like correction to forces

   POTIM  = 0.5000    time-step for ionic-motion
   TEIN   =    0.0    initial temperature
   TEBEG  =    0.0;   TEEND  =   0.0 temperature during run
   SMASS  =  -3.00    Nose mass-parameter (am)
   estimated Nose-frequenzy (Omega)   =  0.10E-29 period in steps =****** mass=  -0.556E-27a.u.
   SCALEE = 1.0000    scale energy and forces
   NPACO  =    256;   APACO  = 16.0  distance and # of slots for P.C.
   PSTRESS=    0.0 pullay stress

  Mass of Ions in am
   POMASS =  12.01
  Ionic Valenz
   ZVAL   =   4.00
  Atomic Wigner-Seitz radii
   RWIGS  =  -1.00
  virtual crystal weights 
   VCA    =   1.00
   NELECT =     128.0000    total number of electrons
   NUPDOWN=      -1.0000    fix difference up-down

 DOS related values:
   EMIN   =  10.00;   EMAX   =-10.00  energy-range for DOS
   EFERMI =   0.00
   ISMEAR =    -5;   SIGMA  =   0.20  broadening in eV -4-tet -1-fermi 0-gaus

 Electronic relaxation 2 (details)
   IALGO  =     38    algorithm
   LDIAG  =      T    sub-space diagonalisation (order eigenvalues)
   LSUBROT=      F    optimize rotation matrix (better conditioning)
   TURBO    =      0    0=normal 1=particle mesh
   IRESTART =      0    0=no restart 2=restart with 2 vectors
   NREBOOT  =      0    no. of reboots
   NMIN     =      0    reboot dimension
   EREF     =   0.00    reference energy to select bands
   IMIX   =      4    mixing-type and parameters
     AMIX     =   0.40;   BMIX     =  1.00
     AMIX_MAG =   1.60;   BMIX_MAG =  1.00
     AMIN     =   0.10
     WC   =   100.;   INIMIX=   1;  MIXPRE=   1;  MAXMIX= -45

 Intra band minimization:
   WEIMIN = 0.0000     energy-eigenvalue tresh-hold
   EBREAK =  0.30E-08  absolut break condition
   DEPER  =   0.30     relativ break condition  

   TIME   =   0.40     timestep for ELM

  volume/ion in A,a.u.               =       8.91        60.10
  Fermi-wavevector in a.u.,A,eV,Ry     =   1.253757  2.369258 21.387103  1.571908
  Thomas-Fermi vector in A             =   2.387595
 
 Write flags
   LWAVE  =      F    write WAVECAR
   LCHARG =      F    write CHGCAR
   LVTOT  =      F    write LOCPOT, total local potential
   LVHAR  =      F    write LOCPOT, Hartree potential only
   LELF   =      F    write electronic localiz. function (ELF)
   LORBIT =      0    0 simple, 1 ext, 2 COOP (PROOUT)


 Dipole corrections
   LMONO  =      F    monopole corrections only (constant potential shift)
   LDIPOL =      F    correct potential (dipole corrections)
   IDIPOL =      0    1-x, 2-y, 3-z, 4-all directions 
   EPSILON=  1.0000000 bulk dielectric constant

 Exchange correlation treatment:
   GGA     =    PE    GGA type
   LEXCH   =     8    internal setting for exchange type
   VOSKOWN=      0    Vosko Wilk Nusair interpolation
   LHFCALC =     F    Hartree Fock is set to
   LHFONE  =     F    Hartree Fock one center treatment
   AEXX    =    0.0000 exact exchange contribution

 Linear response parameters
   LEPSILON=     F    determine dielectric tensor
   LRPA    =     F    only Hartree local field effects (RPA)
   LNABLA  =     F    use nabla operator in PAW spheres
   LVEL    =     F    velocity operator in full k-point grid
   LINTERFAST=   F  fast interpolation
   KINTER  =     0    interpolate to denser k-point grid
   CSHIFT  =0.1000    complex shift for real part using Kramers Kronig
   OMEGAMAX=  -1.0    maximum frequency
   DEG_THRESHOLD= 0.2000000E-02 threshold for treating states as degnerate
   RTIME   =    0.100 relaxation time in fs

 Orbital magnetization related:
   ORBITALMAG=     F  switch on orbital magnetization
   LCHIMAG   =     F  perturbation theory with respect to B field
   DQ        =  0.001000  dq finite difference perturbation B field



--------------------------------------------------------------------------------------------------------


 Static calculation
 charge density and potential will be updated during run
 non-spin polarized calculation
 Variant of blocked Davidson
 Davidson routine will perform the subspace rotation
 perform sub-space diagonalisation
    after iterative eigenvector-optimisation
 modified Broyden-mixing scheme, WC =      100.0
 initial mixing is a Kerker type mixing with AMIX =  0.4000 and BMIX =      1.0000
 Hartree-type preconditioning will be used
 using additional bands           20
 reciprocal scheme for non local part
 calculate Harris-corrections to forces 
   (improved forces if not selfconsistent)
 use gradient corrections 
 use of overlap-Matrix (Vanderbilt PP)
 Fermi weights with tetrahedron method with Bloechl corrections


--------------------------------------------------------------------------------------------------------


  energy-cutoff  :      600.00
  volume of cell :      284.97
      direct lattice vectors                 reciprocal lattice vectors
     4.932874498 -0.001919286  0.000000000     0.202767147  0.117172881  0.000000000
    -2.468099399  4.271034986  0.000000000     0.000091118  0.234187941  0.000000000
     0.000000000  0.000000000 13.528771485     0.000000000  0.000000000  0.073916542

  length of vectors
     4.932874871  4.932874871 13.528771485     0.234187958  0.234187958  0.073916542


 
 k-points in units of 2pi/SCALE and weight: B4C B11C-CBC                            
   0.00000000  0.00000000  0.00000000       0.003
   0.02252968  0.01301921  0.00000000       0.006
   0.04505937  0.02603842  0.00000000       0.006
   0.06758905  0.03905763  0.00000000       0.006
   0.09011873  0.05207684  0.00000000       0.006
   0.00001012  0.02602088  0.00000000       0.006
   0.02253981  0.03904009  0.00000000       0.006
   0.04506949  0.05205930  0.00000000       0.006
   0.06759917  0.06507851  0.00000000       0.006
   0.09012886  0.07809772  0.00000000       0.006
  -0.09010861 -0.02605595  0.00000000       0.006
  -0.06757892 -0.01303674  0.00000000       0.006
  -0.04504924 -0.00001754  0.00000000       0.006
  -0.02251956  0.01300167  0.00000000       0.006
   0.00002025  0.05204176  0.00000000       0.006
   0.02254993  0.06506097  0.00000000       0.006
   0.04507961  0.07808018  0.00000000       0.006
   0.06760930  0.09109939  0.00000000       0.006
   0.09013898  0.10411860  0.00000000       0.006
  -0.09009848 -0.00003507  0.00000000       0.006
  -0.06756880  0.01298414  0.00000000       0.006
  -0.04503912  0.02600335  0.00000000       0.006
  -0.02250943  0.03902256  0.00000000       0.006
   0.00003037  0.07806265  0.00000000       0.006
   0.02256006  0.09108186  0.00000000       0.006
   0.04508974  0.10410106  0.00000000       0.006
   0.06761942  0.11712027  0.00000000       0.006
   0.09014910  0.13013948  0.00000000       0.006
  -0.09008836  0.02598581  0.00000000       0.006
  -0.06755868  0.03900502  0.00000000       0.006
  -0.04502899  0.05202423  0.00000000       0.006
  -0.02249931  0.06504344  0.00000000       0.006
   0.00004050  0.10408353  0.00000000       0.006
   0.02257018  0.11710274  0.00000000       0.006
   0.04509986  0.13012195  0.00000000       0.006
   0.06762955  0.14314116  0.00000000       0.006
   0.09015923  0.15616037  0.00000000       0.006
  -0.09007824  0.05200669  0.00000000       0.006
  -0.06754855  0.06502590  0.00000000       0.006
  -0.04501887  0.07804511  0.00000000       0.006
  -0.02248919  0.09106432  0.00000000       0.006
   0.00000000  0.00000000  0.01847914       0.006
   0.02252968  0.01301921  0.01847914       0.006
   0.04505937  0.02603842  0.01847914       0.006
   0.06758905  0.03905763  0.01847914       0.006
   0.09011873  0.05207684  0.01847914       0.006
  -0.09011873 -0.05207684  0.01847914       0.006
  -0.06758905 -0.03905763  0.01847914       0.006
  -0.04505937 -0.02603842  0.01847914       0.006
  -0.02252968 -0.01301921  0.01847914       0.006
   0.00001012  0.02602088  0.01847914       0.006
   0.02253981  0.03904009  0.01847914       0.006
   0.04506949  0.05205930  0.01847914       0.006
   0.06759917  0.06507851  0.01847914       0.006
   0.09012886  0.07809772  0.01847914       0.006
  -0.09010861 -0.02605595  0.01847914       0.006
  -0.06757892 -0.01303674  0.01847914       0.006
  -0.04504924 -0.00001754  0.01847914       0.006
  -0.02251956  0.01300167  0.01847914       0.006
   0.00002025  0.05204176  0.01847914       0.006
   0.02254993  0.06506097  0.01847914       0.006
   0.04507961  0.07808018  0.01847914       0.006
   0.06760930  0.09109939  0.01847914       0.006
   0.09013898  0.10411860  0.01847914       0.006
  -0.09009848 -0.00003507  0.01847914       0.006
  -0.06756880  0.01298414  0.01847914       0.006
  -0.04503912  0.02600335  0.01847914       0.006
  -0.02250943  0.03902256  0.01847914       0.006
   0.00003037  0.07806265  0.01847914       0.006
   0.02256006  0.09108186  0.01847914       0.006
   0.04508974  0.10410106  0.01847914       0.006
   0.06761942  0.11712027  0.01847914       0.006
   0.09014910  0.13013948  0.01847914       0.006
  -0.09008836  0.02598581  0.01847914       0.006
  -0.06755868  0.03900502  0.01847914       0.006
  -0.04502899  0.05202423  0.01847914       0.006
  -0.02249931  0.06504344  0.01847914       0.006
   0.00004050  0.10408353  0.01847914       0.006
   0.02257018  0.11710274  0.01847914       0.006
   0.04509986  0.13012195  0.01847914       0.006
   0.06762955  0.14314116  0.01847914       0.006
   0.09015923  0.15616037  0.01847914       0.006
  -0.09007824  0.05200669  0.01847914       0.006
  -0.06754855  0.06502590  0.01847914       0.006
  -0.04501887  0.07804511  0.01847914       0.006
  -0.02248919  0.09106432  0.01847914       0.006
  -0.00004050 -0.10408353  0.01847914       0.006
   0.02248919 -0.09106432  0.01847914       0.006
   0.04501887 -0.07804511  0.01847914       0.006
   0.06754855 -0.06502590  0.01847914       0.006
   0.09007824 -0.05200669  0.01847914       0.006
  -0.09015923 -0.15616037  0.01847914       0.006
  -0.06762955 -0.14314116  0.01847914       0.006
  -0.04509986 -0.13012195  0.01847914       0.006
  -0.02257018 -0.11710274  0.01847914       0.006
  -0.00003037 -0.07806265  0.01847914       0.006
   0.02249931 -0.06504344  0.01847914       0.006
   0.04502899 -0.05202423  0.01847914       0.006
   0.06755868 -0.03900502  0.01847914       0.006
   0.09008836 -0.02598581  0.01847914       0.006
  -0.09014910 -0.13013948  0.01847914       0.006
  -0.06761942 -0.11712027  0.01847914       0.006
  -0.04508974 -0.10410106  0.01847914       0.006
  -0.02256006 -0.09108186  0.01847914       0.006
  -0.00002025 -0.05204176  0.01847914       0.006
   0.02250943 -0.03902256  0.01847914       0.006
   0.04503912 -0.02600335  0.01847914       0.006
   0.06756880 -0.01298414  0.01847914       0.006
   0.09009848  0.00003507  0.01847914       0.006
  -0.09013898 -0.10411860  0.01847914       0.006
  -0.06760930 -0.09109939  0.01847914       0.006
  -0.04507961 -0.07808018  0.01847914       0.006
  -0.02254993 -0.06506097  0.01847914       0.006
  -0.00001012 -0.02602088  0.01847914       0.006
   0.02251956 -0.01300167  0.01847914       0.006
   0.04504924  0.00001754  0.01847914       0.006
   0.06757892  0.01303674  0.01847914       0.006
   0.09010861  0.02605595  0.01847914       0.006
  -0.09012886 -0.07809772  0.01847914       0.006
  -0.06759917 -0.06507851  0.01847914       0.006
  -0.04506949 -0.05205930  0.01847914       0.006
  -0.02253981 -0.03904009  0.01847914       0.006
   0.00000000  0.00000000  0.03695827       0.003
   0.02252968  0.01301921  0.03695827       0.006
   0.04505937  0.02603842  0.03695827       0.006
   0.06758905  0.03905763  0.03695827       0.006
   0.09011873  0.05207684  0.03695827       0.006
   0.00001012  0.02602088  0.03695827       0.006
   0.02253981  0.03904009  0.03695827       0.006
   0.04506949  0.05205930  0.03695827       0.006
   0.06759917  0.06507851  0.03695827       0.006
   0.09012886  0.07809772  0.03695827       0.006
  -0.09010861 -0.02605595  0.03695827       0.006
  -0.06757892 -0.01303674  0.03695827       0.006
  -0.04504924 -0.00001754  0.03695827       0.006
  -0.02251956  0.01300167  0.03695827       0.006
   0.00002025  0.05204176  0.03695827       0.006
   0.02254993  0.06506097  0.03695827       0.006
   0.04507961  0.07808018  0.03695827       0.006
   0.06760930  0.09109939  0.03695827       0.006
   0.09013898  0.10411860  0.03695827       0.006
  -0.09009848 -0.00003507  0.03695827       0.006
  -0.06756880  0.01298414  0.03695827       0.006
  -0.04503912  0.02600335  0.03695827       0.006
  -0.02250943  0.03902256  0.03695827       0.006
   0.00003037  0.07806265  0.03695827       0.006
   0.02256006  0.09108186  0.03695827       0.006
   0.04508974  0.10410106  0.03695827       0.006
   0.06761942  0.11712027  0.03695827       0.006
   0.09014910  0.13013948  0.03695827       0.006
  -0.09008836  0.02598581  0.03695827       0.006
  -0.06755868  0.03900502  0.03695827       0.006
  -0.04502899  0.05202423  0.03695827       0.006
  -0.02249931  0.06504344  0.03695827       0.006
   0.00004050  0.10408353  0.03695827       0.006
   0.02257018  0.11710274  0.03695827       0.006
   0.04509986  0.13012195  0.03695827       0.006
   0.06762955  0.14314116  0.03695827       0.006
   0.09015923  0.15616037  0.03695827       0.006
  -0.09007824  0.05200669  0.03695827       0.006
  -0.06754855  0.06502590  0.03695827       0.006
  -0.04501887  0.07804511  0.03695827       0.006
  -0.02248919  0.09106432  0.03695827       0.006
 
 k-points in reciprocal lattice and weights: B4C B11C-CBC                            
   0.00000000  0.00000000  0.00000000       0.003
   0.11111111  0.00000000  0.00000000       0.006
   0.22222222  0.00000000  0.00000000       0.006
   0.33333333  0.00000000  0.00000000       0.006
   0.44444444  0.00000000  0.00000000       0.006
  -0.00000000  0.11111111  0.00000000       0.006
   0.11111111  0.11111111  0.00000000       0.006
   0.22222222  0.11111111  0.00000000       0.006
   0.33333333  0.11111111  0.00000000       0.006
   0.44444444  0.11111111  0.00000000       0.006
  -0.44444444  0.11111111  0.00000000       0.006
  -0.33333333  0.11111111  0.00000000       0.006
  -0.22222222  0.11111111  0.00000000       0.006
  -0.11111111  0.11111111  0.00000000       0.006
  -0.00000000  0.22222222  0.00000000       0.006
   0.11111111  0.22222222  0.00000000       0.006
   0.22222222  0.22222222  0.00000000       0.006
   0.33333333  0.22222222  0.00000000       0.006
   0.44444444  0.22222222  0.00000000       0.006
  -0.44444444  0.22222222  0.00000000       0.006
  -0.33333333  0.22222222  0.00000000       0.006
  -0.22222222  0.22222222  0.00000000       0.006
  -0.11111111  0.22222222  0.00000000       0.006
   0.00000000  0.33333333  0.00000000       0.006
   0.11111111  0.33333333  0.00000000       0.006
   0.22222222  0.33333333  0.00000000       0.006
   0.33333333  0.33333333  0.00000000       0.006
   0.44444444  0.33333333  0.00000000       0.006
  -0.44444444  0.33333333  0.00000000       0.006
  -0.33333333  0.33333333  0.00000000       0.006
  -0.22222222  0.33333333  0.00000000       0.006
  -0.11111111  0.33333333  0.00000000       0.006
  -0.00000000  0.44444444  0.00000000       0.006
   0.11111111  0.44444444  0.00000000       0.006
   0.22222222  0.44444444  0.00000000       0.006
   0.33333333  0.44444444  0.00000000       0.006
   0.44444444  0.44444444  0.00000000       0.006
  -0.44444444  0.44444444  0.00000000       0.006
  -0.33333333  0.44444444  0.00000000       0.006
  -0.22222222  0.44444444  0.00000000       0.006
  -0.11111111  0.44444444  0.00000000       0.006
   0.00000000  0.00000000  0.25000000       0.006
   0.11111111  0.00000000  0.25000000       0.006
   0.22222222  0.00000000  0.25000000       0.006
   0.33333333  0.00000000  0.25000000       0.006
   0.44444444  0.00000000  0.25000000       0.006
  -0.44444444 -0.00000000  0.25000000       0.006
  -0.33333333  0.00000000  0.25000000       0.006
  -0.22222222 -0.00000000  0.25000000       0.006
  -0.11111111 -0.00000000  0.25000000       0.006
  -0.00000000  0.11111111  0.25000000       0.006
   0.11111111  0.11111111  0.25000000       0.006
   0.22222222  0.11111111  0.25000000       0.006
   0.33333333  0.11111111  0.25000000       0.006
   0.44444444  0.11111111  0.25000000       0.006
  -0.44444444  0.11111111  0.25000000       0.006
  -0.33333333  0.11111111  0.25000000       0.006
  -0.22222222  0.11111111  0.25000000       0.006
  -0.11111111  0.11111111  0.25000000       0.006
  -0.00000000  0.22222222  0.25000000       0.006
   0.11111111  0.22222222  0.25000000       0.006
   0.22222222  0.22222222  0.25000000       0.006
   0.33333333  0.22222222  0.25000000       0.006
   0.44444444  0.22222222  0.25000000       0.006
  -0.44444444  0.22222222  0.25000000       0.006
  -0.33333333  0.22222222  0.25000000       0.006
  -0.22222222  0.22222222  0.25000000       0.006
  -0.11111111  0.22222222  0.25000000       0.006
   0.00000000  0.33333333  0.25000000       0.006
   0.11111111  0.33333333  0.25000000       0.006
   0.22222222  0.33333333  0.25000000       0.006
   0.33333333  0.33333333  0.25000000       0.006
   0.44444444  0.33333333  0.25000000       0.006
  -0.44444444  0.33333333  0.25000000       0.006
  -0.33333333  0.33333333  0.25000000       0.006
  -0.22222222  0.33333333  0.25000000       0.006
  -0.11111111  0.33333333  0.25000000       0.006
  -0.00000000  0.44444444  0.25000000       0.006
   0.11111111  0.44444444  0.25000000       0.006
   0.22222222  0.44444444  0.25000000       0.006
   0.33333333  0.44444444  0.25000000       0.006
   0.44444444  0.44444444  0.25000000       0.006
  -0.44444444  0.44444444  0.25000000       0.006
  -0.33333333  0.44444444  0.25000000       0.006
  -0.22222222  0.44444444  0.25000000       0.006
  -0.11111111  0.44444444  0.25000000       0.006
   0.00000000 -0.44444444  0.25000000       0.006
   0.11111111 -0.44444444  0.25000000       0.006
   0.22222222 -0.44444444  0.25000000       0.006
   0.33333333 -0.44444444  0.25000000       0.006
   0.44444444 -0.44444444  0.25000000       0.006
  -0.44444444 -0.44444444  0.25000000       0.006
  -0.33333333 -0.44444444  0.25000000       0.006
  -0.22222222 -0.44444444  0.25000000       0.006
  -0.11111111 -0.44444444  0.25000000       0.006
  -0.00000000 -0.33333333  0.25000000       0.006
   0.11111111 -0.33333333  0.25000000       0.006
   0.22222222 -0.33333333  0.25000000       0.006
   0.33333333 -0.33333333  0.25000000       0.006
   0.44444444 -0.33333333  0.25000000       0.006
  -0.44444444 -0.33333333  0.25000000       0.006
  -0.33333333 -0.33333333  0.25000000       0.006
  -0.22222222 -0.33333333  0.25000000       0.006
  -0.11111111 -0.33333333  0.25000000       0.006
   0.00000000 -0.22222222  0.25000000       0.006
   0.11111111 -0.22222222  0.25000000       0.006
   0.22222222 -0.22222222  0.25000000       0.006
   0.33333333 -0.22222222  0.25000000       0.006
   0.44444444 -0.22222222  0.25000000       0.006
  -0.44444444 -0.22222222  0.25000000       0.006
  -0.33333333 -0.22222222  0.25000000       0.006
  -0.22222222 -0.22222222  0.25000000       0.006
  -0.11111111 -0.22222222  0.25000000       0.006
   0.00000000 -0.11111111  0.25000000       0.006
   0.11111111 -0.11111111  0.25000000       0.006
   0.22222222 -0.11111111  0.25000000       0.006
   0.33333333 -0.11111111  0.25000000       0.006
   0.44444444 -0.11111111  0.25000000       0.006
  -0.44444444 -0.11111111  0.25000000       0.006
  -0.33333333 -0.11111111  0.25000000       0.006
  -0.22222222 -0.11111111  0.25000000       0.006
  -0.11111111 -0.11111111  0.25000000       0.006
   0.00000000  0.00000000  0.50000000       0.003
   0.11111111  0.00000000  0.50000000       0.006
   0.22222222  0.00000000  0.50000000       0.006
   0.33333333  0.00000000  0.50000000       0.006
   0.44444444  0.00000000  0.50000000       0.006
  -0.00000000  0.11111111  0.50000000       0.006
   0.11111111  0.11111111  0.50000000       0.006
   0.22222222  0.11111111  0.50000000       0.006
   0.33333333  0.11111111  0.50000000       0.006
   0.44444444  0.11111111  0.50000000       0.006
  -0.44444444  0.11111111  0.50000000       0.006
  -0.33333333  0.11111111  0.50000000       0.006
  -0.22222222  0.11111111  0.50000000       0.006
  -0.11111111  0.11111111  0.50000000       0.006
  -0.00000000  0.22222222  0.50000000       0.006
   0.11111111  0.22222222  0.50000000       0.006
   0.22222222  0.22222222  0.50000000       0.006
   0.33333333  0.22222222  0.50000000       0.006
   0.44444444  0.22222222  0.50000000       0.006
  -0.44444444  0.22222222  0.50000000       0.006
  -0.33333333  0.22222222  0.50000000       0.006
  -0.22222222  0.22222222  0.50000000       0.006
  -0.11111111  0.22222222  0.50000000       0.006
   0.00000000  0.33333333  0.50000000       0.006
   0.11111111  0.33333333  0.50000000       0.006
   0.22222222  0.33333333  0.50000000       0.006
   0.33333333  0.33333333  0.50000000       0.006
   0.44444444  0.33333333  0.50000000       0.006
  -0.44444444  0.33333333  0.50000000       0.006
  -0.33333333  0.33333333  0.50000000       0.006
  -0.22222222  0.33333333  0.50000000       0.006
  -0.11111111  0.33333333  0.50000000       0.006
  -0.00000000  0.44444444  0.50000000       0.006
   0.11111111  0.44444444  0.50000000       0.006
   0.22222222  0.44444444  0.50000000       0.006
   0.33333333  0.44444444  0.50000000       0.006
   0.44444444  0.44444444  0.50000000       0.006
  -0.44444444  0.44444444  0.50000000       0.006
  -0.33333333  0.44444444  0.50000000       0.006
  -0.22222222  0.44444444  0.50000000       0.006
  -0.11111111  0.44444444  0.50000000       0.006
 
 position of ions in fractional coordinates (direct lattice) 
   0.49967330  0.00032672  0.12500000
   0.99967330  0.00032672  0.12500000
   0.49967330  0.50032672  0.12500000
   0.99967330  0.50032672  0.12500000
   0.49967330  0.00032672  0.62500000
   0.99967330  0.00032672  0.62500000
   0.49967330  0.50032672  0.62500000
   0.99967330  0.50032672  0.62500000
   0.00032672  0.49967330  0.37500000
   0.50032672  0.49967330  0.37500000
   0.00032672  0.99967330  0.37500000
   0.50032672  0.99967330  0.37500000
   0.00032672  0.49967330  0.87500000
   0.50032672  0.49967330  0.87500000
   0.00032672  0.99967330  0.87500000
   0.50032672  0.99967330  0.87500000
   0.16698691  0.33370753  0.12569444
   0.66629246  0.33370753  0.12500000
   0.16629246  0.83370753  0.12500000
   0.66629246  0.83370753  0.12500000
   0.16629246  0.33370753  0.62500000
   0.66629246  0.33370753  0.62500000
   0.16629246  0.83370753  0.62500000
   0.66629246  0.83370753  0.62500000
   0.33370753  0.16629246  0.37500000
   0.83370753  0.16629246  0.37500000
   0.33370753  0.66629246  0.37500000
   0.83370753  0.66629246  0.37500000
   0.33370753  0.16629246  0.87500000
   0.83370753  0.16629246  0.87500000
   0.33370753  0.66629246  0.87500000
   0.83370753  0.66629246  0.87500000
 
 position of ions in cartesian coordinates  (Angst):
   2.46401933  0.00043641  1.69109644
   4.93045658 -0.00052323  1.69109644
   1.22996963  2.13595390  1.69109644
   3.69640688  2.13499426  1.69109644
   2.46401933  0.00043641  8.45548218
   4.93045658 -0.00052323  8.45548218
   1.22996963  2.13595390  8.45548218
   3.69640688  2.13499426  8.45548218
  -1.23163172  2.13412154  5.07328931
   1.23480553  2.13316189  5.07328931
  -2.46568142  4.26963903  5.07328931
   0.00075583  4.26867939  5.07328931
  -1.23163172  2.13412154 11.83767505
   1.23480553  2.13316189 11.83767505
  -2.46568142  4.26963903 11.83767505
   0.00075583  4.26867939 11.83767505
   0.00010210  1.42495604  1.70049140
   2.46311374  1.42399773  1.69109644
  -1.23737320  3.56047486  1.69109644
   1.22906405  3.55951522  1.69109644
  -0.00332350  1.42495737  8.45548218
   2.46311374  1.42399773  8.45548218
  -1.23737320  3.56047486  8.45548218
   1.22906405  3.55951522  8.45548218
   1.23571103  0.70960044  5.07328931
   3.70214828  0.70864080  5.07328931
   0.00166133  2.84511794  5.07328931
   2.46809858  2.84415829  5.07328931
   1.23571103  0.70960044 11.83767505
   3.70214828  0.70864080 11.83767505
   0.00166133  2.84511794 11.83767505
   2.46809858  2.84415829 11.83767505
 


--------------------------------------------------------------------------------------------------------


 k-point  1 :   0.0000 0.0000 0.0000  plane waves:    9427
 k-point  2 :   0.1111 0.0000 0.0000  plane waves:    9481
 k-point  3 :   0.2222 0.0000 0.0000  plane waves:    9505
 k-point  4 :   0.3333 0.0000 0.0000  plane waves:    9509
 k-point  5 :   0.4444 0.0000 0.0000  plane waves:    9527
 k-point  6 :  -0.0000 0.1111 0.0000  plane waves:    9481
 k-point  7 :   0.1111 0.1111 0.0000  plane waves:    9490
 k-point  8 :   0.2222 0.1111 0.0000  plane waves:    9508
 k-point  9 :   0.3333 0.1111 0.0000  plane waves:    9518
 k-point 10 :   0.4444 0.1111 0.0000  plane waves:    9534
 k-point 11 :  -0.4444 0.1111 0.0000  plane waves:    9520
 k-point 12 :  -0.3333 0.1111 0.0000  plane waves:    9508
 k-point 13 :  -0.2222 0.1111 0.0000  plane waves:    9488
 k-point 14 :  -0.1111 0.1111 0.0000  plane waves:    9481
 k-point 15 :  -0.0000 0.2222 0.0000  plane waves:    9505
 k-point 16 :   0.1111 0.2222 0.0000  plane waves:    9508
 k-point 17 :   0.2222 0.2222 0.0000  plane waves:    9508
 k-point 18 :   0.3333 0.2222 0.0000  plane waves:    9502
 k-point 19 :   0.4444 0.2222 0.0000  plane waves:    9500
 k-point 20 :  -0.4444 0.2222 0.0000  plane waves:    9508
 k-point 21 :  -0.3333 0.2222 0.0000  plane waves:    9510
 k-point 22 :  -0.2222 0.2222 0.0000  plane waves:    9503
 k-point 23 :  -0.1111 0.2222 0.0000  plane waves:    9488
 k-point 24 :   0.0000 0.3333 0.0000  plane waves:    9509
 k-point 25 :   0.1111 0.3333 0.0000  plane waves:    9518
 k-point 26 :   0.2222 0.3333 0.0000  plane waves:    9502
 k-point 27 :   0.3333 0.3333 0.0000  plane waves:    9508
 k-point 28 :   0.4444 0.3333 0.0000  plane waves:    9504
 k-point 29 :  -0.4444 0.3333 0.0000  plane waves:    9518
 k-point 30 :  -0.3333 0.3333 0.0000  plane waves:    9507
 k-point 31 :  -0.2222 0.3333 0.0000  plane waves:    9510
 k-point 32 :  -0.1111 0.3333 0.0000  plane waves:    9508
 k-point 33 :  -0.0000 0.4444 0.0000  plane waves:    9527
 k-point 34 :   0.1111 0.4444 0.0000  plane waves:    9534
 k-point 35 :   0.2222 0.4444 0.0000  plane waves:    9500
 k-point 36 :   0.3333 0.4444 0.0000  plane waves:    9504
 k-point 37 :   0.4444 0.4444 0.0000  plane waves:    9538
 k-point 38 :  -0.4444 0.4444 0.0000  plane waves:    9531
 k-point 39 :  -0.3333 0.4444 0.0000  plane waves:    9518
 k-point 40 :  -0.2222 0.4444 0.0000  plane waves:    9508
 k-point 41 :  -0.1111 0.4444 0.0000  plane waves:    9520
 k-point 42 :   0.0000 0.0000 0.2500  plane waves:    9466
 k-point 43 :   0.1111 0.0000 0.2500  plane waves:    9488
 k-point 44 :   0.2222 0.0000 0.2500  plane waves:    9508
 k-point 45 :   0.3333 0.0000 0.2500  plane waves:    9521
 k-point 46 :   0.4444 0.0000 0.2500  plane waves:    9528
 k-point 47 :  -0.4444-0.0000 0.2500  plane waves:    9528
 k-point 48 :  -0.3333 0.0000 0.2500  plane waves:    9521
 k-point 49 :  -0.2222-0.0000 0.2500  plane waves:    9508
 k-point 50 :  -0.1111-0.0000 0.2500  plane waves:    9488
 k-point 51 :  -0.0000 0.1111 0.2500  plane waves:    9488
 k-point 52 :   0.1111 0.1111 0.2500  plane waves:    9488
 k-point 53 :   0.2222 0.1111 0.2500  plane waves:    9511
 k-point 54 :   0.3333 0.1111 0.2500  plane waves:    9511
 k-point 55 :   0.4444 0.1111 0.2500  plane waves:    9518
 k-point 56 :  -0.4444 0.1111 0.2500  plane waves:    9510
 k-point 57 :  -0.3333 0.1111 0.2500  plane waves:    9513
 k-point 58 :  -0.2222 0.1111 0.2500  plane waves:    9493
 k-point 59 :  -0.1111 0.1111 0.2500  plane waves:    9481
 k-point 60 :  -0.0000 0.2222 0.2500  plane waves:    9508
 k-point 61 :   0.1111 0.2222 0.2500  plane waves:    9511
 k-point 62 :   0.2222 0.2222 0.2500  plane waves:    9523
 k-point 63 :   0.3333 0.2222 0.2500  plane waves:    9521
 k-point 64 :   0.4444 0.2222 0.2500  plane waves:    9515
 k-point 65 :  -0.4444 0.2222 0.2500  plane waves:    9520
 k-point 66 :  -0.3333 0.2222 0.2500  plane waves:    9513
 k-point 67 :  -0.2222 0.2222 0.2500  plane waves:    9501
 k-point 68 :  -0.1111 0.2222 0.2500  plane waves:    9493
 k-point 69 :   0.0000 0.3333 0.2500  plane waves:    9521
 k-point 70 :   0.1111 0.3333 0.2500  plane waves:    9511
 k-point 71 :   0.2222 0.3333 0.2500  plane waves:    9521
 k-point 72 :   0.3333 0.3333 0.2500  plane waves:    9517
 k-point 73 :   0.4444 0.3333 0.2500  plane waves:    9520
 k-point 74 :  -0.4444 0.3333 0.2500  plane waves:    9516
 k-point 75 :  -0.3333 0.3333 0.2500  plane waves:    9524
 k-point 76 :  -0.2222 0.3333 0.2500  plane waves:    9513
 k-point 77 :  -0.1111 0.3333 0.2500  plane waves:    9513
 k-point 78 :  -0.0000 0.4444 0.2500  plane waves:    9528
 k-point 79 :   0.1111 0.4444 0.2500  plane waves:    9518
 k-point 80 :   0.2222 0.4444 0.2500  plane waves:    9515
 k-point 81 :   0.3333 0.4444 0.2500  plane waves:    9520
 k-point 82 :   0.4444 0.4444 0.2500  plane waves:    9513
 k-point 83 :  -0.4444 0.4444 0.2500  plane waves:    9530
 k-point 84 :  -0.3333 0.4444 0.2500  plane waves:    9516
 k-point 85 :  -0.2222 0.4444 0.2500  plane waves:    9520
 k-point 86 :  -0.1111 0.4444 0.2500  plane waves:    9510
 k-point 87 :   0.0000-0.4444 0.2500  plane waves:    9528
 k-point 88 :   0.1111-0.4444 0.2500  plane waves:    9510
 k-point 89 :   0.2222-0.4444 0.2500  plane waves:    9520
 k-point 90 :   0.3333-0.4444 0.2500  plane waves:    9516
 k-point 91 :   0.4444-0.4444 0.2500  plane waves:    9530
 k-point 92 :  -0.4444-0.4444 0.2500  plane waves:    9513
 k-point 93 :  -0.3333-0.4444 0.2500  plane waves:    9520
 k-point 94 :  -0.2222-0.4444 0.2500  plane waves:    9515
 k-point 95 :  -0.1111-0.4444 0.2500  plane waves:    9518
 k-point 96 :  -0.0000-0.3333 0.2500  plane waves:    9521
 k-point 97 :   0.1111-0.3333 0.2500  plane waves:    9513
 k-point 98 :   0.2222-0.3333 0.2500  plane waves:    9513
 k-point 99 :   0.3333-0.3333 0.2500  plane waves:    9524
 k-point ** :   0.4444-0.3333 0.2500  plane waves:    9516
 k-point ** :  -0.4444-0.3333 0.2500  plane waves:    9520
 k-point ** :  -0.3333-0.3333 0.2500  plane waves:    9517
 k-point ** :  -0.2222-0.3333 0.2500  plane waves:    9521
 k-point ** :  -0.1111-0.3333 0.2500  plane waves:    9511
 k-point ** :   0.0000-0.2222 0.2500  plane waves:    9508
 k-point ** :   0.1111-0.2222 0.2500  plane waves:    9493
 k-point ** :   0.2222-0.2222 0.2500  plane waves:    9501
 k-point ** :   0.3333-0.2222 0.2500  plane waves:    9513
 k-point ** :   0.4444-0.2222 0.2500  plane waves:    9520
 k-point ** :  -0.4444-0.2222 0.2500  plane waves:    9515
 k-point ** :  -0.3333-0.2222 0.2500  plane waves:    9521
 k-point ** :  -0.2222-0.2222 0.2500  plane waves:    9523
 k-point ** :  -0.1111-0.2222 0.2500  plane waves:    9511
 k-point ** :   0.0000-0.1111 0.2500  plane waves:    9488
 k-point ** :   0.1111-0.1111 0.2500  plane waves:    9481
 k-point ** :   0.2222-0.1111 0.2500  plane waves:    9493
 k-point ** :   0.3333-0.1111 0.2500  plane waves:    9513
 k-point ** :   0.4444-0.1111 0.2500  plane waves:    9510
 k-point ** :  -0.4444-0.1111 0.2500  plane waves:    9518
 k-point ** :  -0.3333-0.1111 0.2500  plane waves:    9511
 k-point ** :  -0.2222-0.1111 0.2500  plane waves:    9511
 k-point ** :  -0.1111-0.1111 0.2500  plane waves:    9488
 k-point ** :   0.0000 0.0000 0.5000  plane waves:    9402
 k-point ** :   0.1111 0.0000 0.5000  plane waves:    9494
 k-point ** :   0.2222 0.0000 0.5000  plane waves:    9510
 k-point ** :   0.3333 0.0000 0.5000  plane waves:    9532
 k-point ** :   0.4444 0.0000 0.5000  plane waves:    9512
 k-point ** :  -0.0000 0.1111 0.5000  plane waves:    9494
 k-point ** :   0.1111 0.1111 0.5000  plane waves:    9482
 k-point ** :   0.2222 0.1111 0.5000  plane waves:    9502
 k-point ** :   0.3333 0.1111 0.5000  plane waves:    9506
 k-point ** :   0.4444 0.1111 0.5000  plane waves:    9534
 k-point ** :  -0.4444 0.1111 0.5000  plane waves:    9512
 k-point ** :  -0.3333 0.1111 0.5000  plane waves:    9502
 k-point ** :  -0.2222 0.1111 0.5000  plane waves:    9488
 k-point ** :  -0.1111 0.1111 0.5000  plane waves:    9490
 k-point ** :  -0.0000 0.2222 0.5000  plane waves:    9510
 k-point ** :   0.1111 0.2222 0.5000  plane waves:    9502
 k-point ** :   0.2222 0.2222 0.5000  plane waves:    9498
 k-point ** :   0.3333 0.2222 0.5000  plane waves:    9534
 k-point ** :   0.4444 0.2222 0.5000  plane waves:    9530
 k-point ** :  -0.4444 0.2222 0.5000  plane waves:    9508
 k-point ** :  -0.3333 0.2222 0.5000  plane waves:    9504
 k-point ** :  -0.2222 0.2222 0.5000  plane waves:    9512
 k-point ** :  -0.1111 0.2222 0.5000  plane waves:    9488
 k-point ** :   0.0000 0.3333 0.5000  plane waves:    9532
 k-point ** :   0.1111 0.3333 0.5000  plane waves:    9506
 k-point ** :   0.2222 0.3333 0.5000  plane waves:    9534
 k-point ** :   0.3333 0.3333 0.5000  plane waves:    9540
 k-point ** :   0.4444 0.3333 0.5000  plane waves:    9528
 k-point ** :  -0.4444 0.3333 0.5000  plane waves:    9512
 k-point ** :  -0.3333 0.3333 0.5000  plane waves:    9538
 k-point ** :  -0.2222 0.3333 0.5000  plane waves:    9504
 k-point ** :  -0.1111 0.3333 0.5000  plane waves:    9502
 k-point ** :  -0.0000 0.4444 0.5000  plane waves:    9512
 k-point ** :   0.1111 0.4444 0.5000  plane waves:    9534
 k-point ** :   0.2222 0.4444 0.5000  plane waves:    9530
 k-point ** :   0.3333 0.4444 0.5000  plane waves:    9528
 k-point ** :   0.4444 0.4444 0.5000  plane waves:    9544
 k-point ** :  -0.4444 0.4444 0.5000  plane waves:    9518
 k-point ** :  -0.3333 0.4444 0.5000  plane waves:    9512
 k-point ** :  -0.2222 0.4444 0.5000  plane waves:    9508
 k-point ** :  -0.1111 0.4444 0.5000  plane waves:    9512

 maximum and minimum number of plane-waves per node :      9544     9402

 maximum number of plane-waves:      9544
 maximum index in each direction: 
   IXMAX=   10   IYMAX=   10   IZMAX=   27
   IXMIN=  -10   IYMIN=  -10   IZMIN=  -27

 WARNING: aliasing errors must be expected set NGX to  42 to avoid them
 WARNING: aliasing errors must be expected set NGY to  42 to avoid them
 WARNING: aliasing errors must be expected set NGZ to 110 to avoid them
 aliasing errors are usually negligible using standard VASP settings
 and one can safely disregard these warnings

 serial   3D FFT for wavefunctions
 parallel 3D FFT for charge:
    minimum data exchange during FFTs selected (reduces bandwidth)


 total amount of memory used by VASP on root node   519936. kBytes
========================================================================

   base      :      30000. kBytes
   nonl-proj :     104471. kBytes
   fftplans  :       8783. kBytes
   grid      :      18621. kBytes
   one-center:         98. kBytes
   wavefun   :     357963. kBytes
 
     INWAV:  cpu time    0.00: real time    0.00
 Broyden mixing: mesh for mixing (old mesh)
   NGX = 19   NGY = 19   NGZ = 55
  (NGX  = 80   NGY  = 80   NGZ  =216)
  gives a total of  19855 points

 initial charge density was supplied:
 charge density of overlapping atoms calculated
 number of electron     128.0000000 magnetization 
 keeping initial charge density in first step


--------------------------------------------------------------------------------------------------------


 Maximum index for augmentation-charges         1410 (set IRDMAX)


--------------------------------------------------------------------------------------------------------


 First call to EWALD:  gamma=   0.269
 Maximum number of real-space cells 4x 4x 2
 Maximum number of reciprocal cells 2x 2x 5

 FEWALD executed in parallel
    FEWALD:  cpu time    0.00: real time    0.00


----------------------------------------- Iteration    1(   1)  ---------------------------------------


    POTLOK:  cpu time    0.20: real time    0.20
    SETDIJ:  cpu time    0.01: real time    0.01
     EDDAV:  cpu time  146.49: real time  146.58
 BZINTS: Fermi energy: 15.815145;128.000000 electrons
         Band energy:  48.121370;  BLOECHL correction: -0.114847
       DOS:  cpu time    0.19: real time    0.19
    --------------------------------------------
      LOOP:  cpu time  146.89: real time  147.03

 eigenvalue-minimisations  : 27384
 total energy-change (2. order) : 0.5958376E+03  (-0.7166036E+04)
 number of electron     128.0000000 magnetization 
 augmentation part      128.0000000 magnetization 

 Free energy of the ion-electron system (eV)
  ---------------------------------------------------
  alpha Z        PSCENC =       292.79115404
  Ewald energy   TEWEN  =     -3645.74708209
  -Hartree energ DENC   =     -1214.31334522
  -exchange      EXHF   =         0.00000000
  -V(xc)+E(xc)   XCENC  =       442.99166309
  PAW double counting   =      1210.60617908    -1247.42152856
  entropy T*S    EENTRO =         0.00000000
  eigenvalues    EBANDS =        48.12137015
  atomic energy  EATOM  =      4708.80920826
  ---------------------------------------------------
  free energy    TOTEN  =       595.83761875 eV

  energy without entropy =      595.83761875  energy(sigma->0) =      595.83761875


--------------------------------------------------------------------------------------------------------




----------------------------------------- Iteration    1(   2)  ---------------------------------------


     EDDAV:  cpu time  175.70: real time  175.79
 BZINTS: Fermi energy:  3.670221;128.000000 electrons
         Band energy:-810.599269;  BLOECHL correction:  0.000000
       DOS:  cpu time    0.07: real time    0.07
    --------------------------------------------
      LOOP:  cpu time  175.77: real time  175.86

 eigenvalue-minimisations  : 34236
 total energy-change (2. order) :-0.8587206E+03  (-0.8279082E+03)
 number of electron     128.0000000 magnetization 
 augmentation part      128.0000000 magnetization 

 Free energy of the ion-electron system (eV)
  ---------------------------------------------------
  alpha Z        PSCENC =       292.79115404
  Ewald energy   TEWEN  =     -3645.74708209
  -Hartree energ DENC   =     -1214.31334522
  -exchange      EXHF   =         0.00000000
  -V(xc)+E(xc)   XCENC  =       442.99166309
  PAW double counting   =      1210.60617908    -1247.42152856
  entropy T*S    EENTRO =         0.00000000
  eigenvalues    EBANDS =      -810.59926935
  atomic energy  EATOM  =      4708.80920826
  ---------------------------------------------------
  free energy    TOTEN  =      -262.88302075 eV

  energy without entropy =     -262.88302075  energy(sigma->0) =     -262.88302075


--------------------------------------------------------------------------------------------------------




----------------------------------------- Iteration    1(   3)  ---------------------------------------


     EDDAV:  cpu time  172.98: real time  173.07
 BZINTS: Fermi energy:  3.100497;128.000000 electrons
         Band energy:-860.479887;  BLOECHL correction:  0.000000
       DOS:  cpu time    0.07: real time    0.07
    --------------------------------------------
      LOOP:  cpu time  173.05: real time  173.14

 eigenvalue-minimisations  : 33324
 total energy-change (2. order) :-0.4988062E+02  (-0.4941368E+02)
 number of electron     128.0000000 magnetization 
 augmentation part      128.0000000 magnetization 

 Free energy of the ion-electron system (eV)
  ---------------------------------------------------
  alpha Z        PSCENC =       292.79115404
  Ewald energy   TEWEN  =     -3645.74708209
  -Hartree energ DENC   =     -1214.31334522
  -exchange      EXHF   =         0.00000000
  -V(xc)+E(xc)   XCENC  =       442.99166309
  PAW double counting   =      1210.60617908    -1247.42152856
  entropy T*S    EENTRO =         0.00000000
  eigenvalues    EBANDS =      -860.47988683
  atomic energy  EATOM  =      4708.80920826
  ---------------------------------------------------
  free energy    TOTEN  =      -312.76363823 eV

  energy without entropy =     -312.76363823  energy(sigma->0) =     -312.76363823


--------------------------------------------------------------------------------------------------------




----------------------------------------- Iteration    1(   4)  ---------------------------------------


     EDDAV:  cpu time  181.43: real time  181.52
 BZINTS: Fermi energy:  3.096308;128.000000 electrons
         Band energy:-861.425378;  BLOECHL correction:  0.000000
       DOS:  cpu time    0.06: real time    0.06
    --------------------------------------------
      LOOP:  cpu time  181.50: real time  181.59

 eigenvalue-minimisations  : 35124
 total energy-change (2. order) :-0.9454911E+00  (-0.9437599E+00)
 number of electron     128.0000000 magnetization 
 augmentation part      128.0000000 magnetization 

 Free energy of the ion-electron system (eV)
  ---------------------------------------------------
  alpha Z        PSCENC =       292.79115404
  Ewald energy   TEWEN  =     -3645.74708209
  -Hartree energ DENC   =     -1214.31334522
  -exchange      EXHF   =         0.00000000
  -V(xc)+E(xc)   XCENC  =       442.99166309
  PAW double counting   =      1210.60617908    -1247.42152856
  entropy T*S    EENTRO =         0.00000000
  eigenvalues    EBANDS =      -861.42537789
  atomic energy  EATOM  =      4708.80920826
  ---------------------------------------------------
  free energy    TOTEN  =      -313.70912929 eV

  energy without entropy =     -313.70912929  energy(sigma->0) =     -313.70912929


--------------------------------------------------------------------------------------------------------




----------------------------------------- Iteration    1(   5)  ---------------------------------------


     EDDAV:  cpu time  180.47: real time  180.56
 BZINTS: Fermi energy:  3.096831;128.000000 electrons
         Band energy:-861.452680;  BLOECHL correction:  0.000000
       DOS:  cpu time    0.05: real time    0.05
    CHARGE:  cpu time    7.72: real time    7.73
    MIXING:  cpu time    0.01: real time    0.01
    --------------------------------------------
      LOOP:  cpu time  188.26: real time  188.35

 eigenvalue-minimisations  : 35124
 total energy-change (2. order) :-0.2730164E-01  (-0.2729016E-01)
 number of electron     128.0000014 magnetization 
 augmentation part        3.4006129 magnetization 

 Broyden mixing:
  rms(total) = 0.22084E+01    rms(broyden)= 0.22081E+01
  rms(prec ) = 0.26040E+01
  weight for this iteration     100.00

 Free energy of the ion-electron system (eV)
  ---------------------------------------------------
  alpha Z        PSCENC =       292.79115404
  Ewald energy   TEWEN  =     -3645.74708209
  -Hartree energ DENC   =     -1214.31334522
  -exchange      EXHF   =         0.00000000
  -V(xc)+E(xc)   XCENC  =       442.99166309
  PAW double counting   =      1210.60617908    -1247.42152856
  entropy T*S    EENTRO =         0.00000000
  eigenvalues    EBANDS =      -861.45267953
  atomic energy  EATOM  =      4708.80920826
  ---------------------------------------------------
  free energy    TOTEN  =      -313.73643093 eV

  energy without entropy =     -313.73643093  energy(sigma->0) =     -313.73643093


--------------------------------------------------------------------------------------------------------




----------------------------------------- Iteration    1(   6)  ---------------------------------------


    POTLOK:  cpu time    0.21: real time    0.21
    SETDIJ:  cpu time    0.01: real time    0.02
     EDDAV:  cpu time  168.91: real time  169.00
 BZINTS: Fermi energy:  3.863259;128.000000 electrons
         Band energy:-720.484244;  BLOECHL correction:  0.000000
       DOS:  cpu time    0.07: real time    0.07
    CHARGE:  cpu time    8.05: real time    8.05
    MIXING:  cpu time    0.01: real time    0.01
    --------------------------------------------
      LOOP:  cpu time  177.26: real time  177.35

 eigenvalue-minimisations  : 31296
 total energy-change (2. order) : 0.1448901E+02  (-0.1494157E+01)
 number of electron     128.0000013 magnetization 
 augmentation part        3.2445492 magnetization 

 Broyden mixing:
  rms(total) = 0.11582E+01    rms(broyden)= 0.11582E+01
  rms(prec ) = 0.13566E+01
  weight for this iteration     100.00

 eigenvalues of (default mixing * dielectric matrix)
  average eigenvalue GAMMA=   2.0335
  2.0335

 Free energy of the ion-electron system (eV)
  ---------------------------------------------------
  alpha Z        PSCENC =       292.79115404
  Ewald energy   TEWEN  =     -3645.74708209
  -Hartree energ DENC   =     -1346.24484616
  -exchange      EXHF   =         0.00000000
  -V(xc)+E(xc)   XCENC  =       451.37517294
  PAW double counting   =      1642.02793833    -1681.77472338
  entropy T*S    EENTRO =         0.00000000
  eigenvalues    EBANDS =      -720.48424380
  atomic energy  EATOM  =      4708.80920826
  ---------------------------------------------------
  free energy    TOTEN  =      -299.24742185 eV

  energy without entropy =     -299.24742185  energy(sigma->0) =     -299.24742185


--------------------------------------------------------------------------------------------------------




----------------------------------------- Iteration    1(   7)  ---------------------------------------


    POTLOK:  cpu time    0.20: real time    0.20
    SETDIJ:  cpu time    0.01: real time    0.01
     EDDAV:  cpu time  168.07: real time  168.15
 BZINTS: Fermi energy:  4.610223;128.000000 electrons
         Band energy:-576.518498;  BLOECHL correction:  0.000000
       DOS:  cpu time    0.06: real time    0.06
    CHARGE:  cpu time    7.50: real time    7.50
    MIXING:  cpu time    0.01: real time    0.01
    --------------------------------------------
      LOOP:  cpu time  175.85: real time  175.94

 eigenvalue-minimisations  : 30840
 total energy-change (2. order) : 0.4597962E+01  (-0.1572594E+01)
 number of electron     128.0000011 magnetization 
 augmentation part        3.0787459 magnetization 

 Broyden mixing:
  rms(total) = 0.19406E+00    rms(broyden)= 0.19392E+00
  rms(prec ) = 0.20777E+00
  weight for this iteration     100.00

 eigenvalues of (default mixing * dielectric matrix)
  average eigenvalue GAMMA=   2.1663
  2.1663  2.1663

 Free energy of the ion-electron system (eV)
  ---------------------------------------------------
  alpha Z        PSCENC =       292.79115404
  Ewald energy   TEWEN  =     -3645.74708209
  -Hartree energ DENC   =     -1492.76695950
  -exchange      EXHF   =         0.00000000
  -V(xc)+E(xc)   XCENC  =       460.91912789
  PAW double counting   =      2180.59082480    -2222.72723562
  entropy T*S    EENTRO =         0.00000000
  eigenvalues    EBANDS =      -576.51849804
  atomic energy  EATOM  =      4708.80920826
  ---------------------------------------------------
  free energy    TOTEN  =      -294.64946026 eV

  energy without entropy =     -294.64946026  energy(sigma->0) =     -294.64946026


--------------------------------------------------------------------------------------------------------




----------------------------------------- Iteration    1(   8)  ---------------------------------------


    POTLOK:  cpu time    0.20: real time    0.20
    SETDIJ:  cpu time    0.01: real time    0.01
     EDDAV:  cpu time  163.07: real time  163.15
 BZINTS: Fermi energy:  4.574860;128.000000 electrons
         Band energy:-579.468454;  BLOECHL correction:  0.000000
       DOS:  cpu time    0.04: real time    0.04
    CHARGE:  cpu time    7.68: real time    7.68
    MIXING:  cpu time    0.01: real time    0.01
    --------------------------------------------
      LOOP:  cpu time  171.00: real time  171.09

 eigenvalue-minimisations  : 30996
 total energy-change (2. order) :-0.6488904E-01  (-0.4146495E-01)
 number of electron     128.0000011 magnetization 
 augmentation part        3.0726438 magnetization 

 Broyden mixing:
  rms(total) = 0.34772E-01    rms(broyden)= 0.34745E-01
  rms(prec ) = 0.49519E-01
  weight for this iteration     100.00

 eigenvalues of (default mixing * dielectric matrix)
  average eigenvalue GAMMA=   1.7108
  2.4121  2.0138  0.7066

 Free energy of the ion-electron system (eV)
  ---------------------------------------------------
  alpha Z        PSCENC =       292.79115404
  Ewald energy   TEWEN  =     -3645.74708209
  -Hartree energ DENC   =     -1490.53157501
  -exchange      EXHF   =         0.00000000
  -V(xc)+E(xc)   XCENC  =       460.79674446
  PAW double counting   =      2211.03878713    -2252.40313196
  entropy T*S    EENTRO =         0.00000000
  eigenvalues    EBANDS =      -579.46845415
  atomic energy  EATOM  =      4708.80920826
  ---------------------------------------------------
  free energy    TOTEN  =      -294.71434930 eV

  energy without entropy =     -294.71434930  energy(sigma->0) =     -294.71434930


--------------------------------------------------------------------------------------------------------




----------------------------------------- Iteration    1(   9)  ---------------------------------------


    POTLOK:  cpu time    0.20: real time    0.20
    SETDIJ:  cpu time    0.01: real time    0.01
     EDDAV:  cpu time  168.78: real time  168.87
 BZINTS: Fermi energy:  4.595541;128.000000 electrons
         Band energy:-577.682267;  BLOECHL correction:  0.000000
       DOS:  cpu time    0.07: real time    0.07
    CHARGE:  cpu time    7.60: real time    7.60
    MIXING:  cpu time    0.01: real time    0.01
    --------------------------------------------
      LOOP:  cpu time  176.68: real time  176.77

 eigenvalue-minimisations  : 32436
 total energy-change (2. order) :-0.8471188E-03  (-0.2596939E-02)
 number of electron     128.0000011 magnetization 
 augmentation part        3.0696055 magnetization 

 Broyden mixing:
  rms(total) = 0.15779E-01    rms(broyden)= 0.15774E-01
  rms(prec ) = 0.22066E-01
  weight for this iteration     100.00

 eigenvalues of (default mixing * dielectric matrix)
  average eigenvalue GAMMA=   1.4857
  2.4538  1.9972  0.7460  0.7460

 Free energy of the ion-electron system (eV)
  ---------------------------------------------------
  alpha Z        PSCENC =       292.79115404
  Ewald energy   TEWEN  =     -3645.74708209
  -Hartree energ DENC   =     -1492.48523678
  -exchange      EXHF   =         0.00000000
  -V(xc)+E(xc)   XCENC  =       460.93379849
  PAW double counting   =      2219.70689195    -2261.04166289
  entropy T*S    EENTRO =         0.00000000
  eigenvalues    EBANDS =      -577.68226741
  atomic energy  EATOM  =      4708.80920826
  ---------------------------------------------------
  free energy    TOTEN  =      -294.71519642 eV

  energy without entropy =     -294.71519642  energy(sigma->0) =     -294.71519642


--------------------------------------------------------------------------------------------------------




----------------------------------------- Iteration    1(  10)  ---------------------------------------


    POTLOK:  cpu time    0.20: real time    0.20
    SETDIJ:  cpu time    0.01: real time    0.01
     EDDAV:  cpu time  172.32: real time  172.41
 BZINTS: Fermi energy:  4.596717;128.000000 electrons
         Band energy:-577.035562;  BLOECHL correction: -0.000001
       DOS:  cpu time    0.10: real time    0.10
    CHARGE:  cpu time    7.51: real time    7.52
    MIXING:  cpu time    0.01: real time    0.01
    --------------------------------------------
      LOOP:  cpu time  180.16: real time  180.25

 eigenvalue-minimisations  : 33192
 total energy-change (2. order) :-0.3635313E-03  (-0.4920832E-03)
 number of electron     128.0000011 magnetization 
 augmentation part        3.0684770 magnetization 

 Broyden mixing:
  rms(total) = 0.10914E-01    rms(broyden)= 0.10912E-01
  rms(prec ) = 0.15839E-01
  weight for this iteration     100.00

 eigenvalues of (default mixing * dielectric matrix)
  average eigenvalue GAMMA=   1.3798
  2.4913  1.9869  1.0983  0.7524  0.5700

 Free energy of the ion-electron system (eV)
[...]
     79      12.2021      0.00000
     80      12.2050      0.00000
     81      12.6997      0.00000
     82      12.7011      0.00000
     83      12.9836      0.00000
     84      12.9989      0.00000

 k-point   162 :      -0.2222    0.4444    0.5000
  band No.  band energies     occupation 
      1     -14.1006      2.00000
      2     -14.1003      2.00000
      3     -13.9121      2.00000
      4     -13.9117      2.00000
      5     -12.1678      2.00000
      6     -12.1666      2.00000
      7     -12.1618      2.00000
      8     -12.1603      2.00000
      9     -12.0025      2.00000
     10     -12.0014      2.00000
     11     -11.9966      2.00000
     12     -11.9950      2.00000
     13      -8.9174      2.00000
     14      -8.9157      2.00000
     15      -8.8476      2.00000
     16      -8.8459      2.00000
     17      -7.9473      2.00000
     18      -7.9439      2.00000
     19      -7.9067      2.00000
     20      -7.9038      2.00000
     21      -4.9423      2.00000
     22      -4.9421      2.00000
     23      -4.9349      2.00000
     24      -4.9339      2.00000
     25      -4.8602      2.00000
     26      -4.8599      2.00000
     27      -4.8531      2.00000
     28      -4.8516      2.00000
     29      -4.6375      2.00000
     30      -4.6354      2.00000
     31      -4.5682      2.00000
     32      -4.5659      2.00000
     33      -2.5693      2.00000
     34      -2.5683      2.00000
     35      -2.0183      2.00000
     36      -2.0182      2.00000
     37      -2.0069      2.00000
     38      -2.0053      2.00000
     39      -1.9731      2.00000
     40      -1.9725      2.00000
     41      -1.9611      2.00000
     42      -1.9599      2.00000
     43      -1.2991      2.00000
     44      -1.2977      2.00000
     45      -1.0737      2.00000
     46      -1.0700      2.00000
     47      -1.0476      2.00000
     48      -1.0426      2.00000
     49      -0.3037      2.00000
     50      -0.3023      2.00000
     51      -0.2978      2.00000
     52      -0.2963      2.00000
     53      -0.1125      2.00000
     54      -0.1075      2.00000
     55      -0.0921      2.00000
     56      -0.0889      2.00000
     57       0.8178      2.00000
     58       0.8193      2.00000
     59       0.8239      2.00000
     60       0.8256      2.00000
     61       3.0475      2.00000
     62       3.0502      2.00000
     63       3.5103      2.00000
     64       3.5127      2.00000
     65       5.8059      0.00000
     66       5.8098      0.00000
     67       5.8349      0.00000
     68       5.8379      0.00000
     69       9.0756      0.00000
     70       9.0771      0.00000
     71       9.0819      0.00000
     72       9.0837      0.00000
     73       9.5938      0.00000
     74       9.5953      0.00000
     75       9.5971      0.00000
     76       9.5990      0.00000
     77      10.6097      0.00000
     78      10.6119      0.00000
     79      12.8809      0.00000
     80      12.8837      0.00000
     81      12.8862      0.00000
     82      12.8874      0.00000
     83      13.2471      0.00000
     84      13.2507      0.00000

 k-point   163 :      -0.1111    0.4444    0.5000
  band No.  band energies     occupation 
      1     -14.0274      2.00000
      2     -14.0271      2.00000
      3     -13.8397      2.00000
      4     -13.8394      2.00000
      5     -12.7293      2.00000
      6     -12.7290      2.00000
      7     -12.5571      2.00000
      8     -12.5568      2.00000
      9     -11.4691      2.00000
     10     -11.4689      2.00000
     11     -11.3125      2.00000
     12     -11.3121      2.00000
     13      -9.6745      2.00000
     14      -9.6741      2.00000
     15      -9.5451      2.00000
     16      -9.5446      2.00000
     17      -7.1818      2.00000
     18      -7.1802      2.00000
     19      -7.0917      2.00000
     20      -7.0902      2.00000
     21      -5.5272      2.00000
     22      -5.5255      2.00000
     23      -5.4469      2.00000
     24      -5.4452      2.00000
     25      -4.5313      2.00000
     26      -4.5295      2.00000
     27      -4.4660      2.00000
     28      -4.4640      2.00000
     29      -4.2713      2.00000
     30      -4.2712      2.00000
     31      -4.1924      2.00000
     32      -4.1922      2.00000
     33      -3.0794      2.00000
     34      -3.0778      2.00000
     35      -3.0260      2.00000
     36      -3.0244      2.00000
     37      -2.4821      2.00000
     38      -2.4811      2.00000
     39      -1.4110      2.00000
     40      -1.4096      2.00000
     41      -1.3646      2.00000
     42      -1.3631      2.00000
     43      -1.2155      2.00000
     44      -1.2144      2.00000
     45      -1.1635      2.00000
     46      -1.1627      2.00000
     47      -1.1268      2.00000
     48      -1.1261      2.00000
     49      -0.9546      2.00000
     50      -0.9536      2.00000
     51      -0.0356      2.00000
     52      -0.0341      2.00000
     53      -0.0070      2.00000
     54      -0.0058      2.00000
     55       0.2164      2.00000
     56       0.2175      2.00000
     57       0.4959      2.00000
     58       0.4967      2.00000
     59       1.5498      2.00000
     60       1.5507      2.00000
     61       2.4270      2.00000
     62       2.4283      2.00000
     63       3.1980      2.00000
     64       3.1997      2.00000
     65       6.1333      0.00000
     66       6.1357      0.00000
     67       6.5398      0.00000
     68       6.5414      0.00000
     69       8.1455      0.00000
     70       8.1472      0.00000
     71       8.6151      0.00000
     72       8.6162      0.00000
     73       9.9797      0.00000
     74       9.9824      0.00000
     75      10.5137      0.00000
     76      10.5158      0.00000
     77      10.6919      0.00000
     78      10.6943      0.00000
     79      12.2024      0.00000
     80      12.2053      0.00000
     81      12.6693      0.00000
     82      12.6700      0.00000
     83      12.9744      0.00000
     84      12.9779      0.00000


--------------------------------------------------------------------------------------------------------


 soft charge-density along one line, spin component           1
         0         1         2         3         4         5         6         7         8         9
 total charge-density along one line
 
 pseudopotential strength for first ion, spin component:           1
  9.777   0.005  -0.000  -0.000   0.000   0.000   0.000  -0.000
  0.005  -0.002   0.000  -0.000  -0.000   0.000   0.000  -0.000
 -0.000   0.000  -3.948  -0.000   0.000  -0.015   0.000  -0.000
 -0.000  -0.000  -0.000  -3.942   0.000   0.000  -0.012  -0.000
  0.000  -0.000   0.000   0.000  -3.948  -0.000  -0.000  -0.015
  0.000   0.000  -0.015   0.000  -0.000  -0.763  -0.000   0.000
  0.000   0.000   0.000  -0.012  -0.000  -0.000  -0.763   0.000
 -0.000  -0.000  -0.000  -0.000  -0.015   0.000   0.000  -0.763
 total augmentation occupancy for first ion, spin component:           1
  1.470  -1.108   0.000  -0.000  -0.000   0.000   0.000  -0.000
 -1.108   1.040  -0.000  -0.000   0.000  -0.000  -0.000   0.000
  0.000  -0.000   1.225  -0.000   0.000   0.225  -0.000  -0.000
 -0.000  -0.000  -0.000   0.928   0.000  -0.000   0.103   0.000
 -0.000   0.000   0.000   0.000   1.224  -0.000   0.000   0.225
  0.000  -0.000   0.225  -0.000  -0.000   0.047  -0.000  -0.000
  0.000  -0.000  -0.000   0.103   0.000  -0.000   0.013   0.000
 -0.000   0.000  -0.000   0.000   0.225  -0.000   0.000   0.047


------------------------ aborting loop because EDIFF is reached ----------------------------------------


    CHARGE:  cpu time    7.46: real time    7.47
    FORLOC:  cpu time    0.05: real time    0.05
    FORNL :  cpu time   50.33: real time   50.35
    STRESS:  cpu time   94.20: real time   94.25
    FORHAR:  cpu time    0.08: real time    0.08
    MIXING:  cpu time    0.01: real time    0.01
    OFIELD:  cpu time    0.00: real time    0.00

 ---------------------------------------------------------------------------------------------

         DFTD3 V3.0 Rev 1        
 IVDW         = 12
 DF pbe       
 parameters
 VDW_S6       =    1.0000
 VDW_S8       =    0.7875
 VDW_A1       =    0.4289
 VDW_A2       =    4.4407
 k1-k3        =   16.0000    1.3333   -4.0000
 VDW_RADIUS   =   50.2022 A
 VDW_CNRADIUS =   21.1671 A
 Edisp (eV)   -4.95427

 E6    (eV) :    -3.5519
 E8    (eV) :    -1.4024
 % E8        : 28.31
    FORVDW:  cpu time    0.27: real time    0.27

  FORCE on cell =-STRESS in cart. coord.  units (eV):
  Direction    XX          YY          ZZ          XY          YZ          ZX
  --------------------------------------------------------------------------------------
  Alpha Z   292.79115   292.79115   292.79115
  Ewald     657.80598   657.32996 -4960.90213     0.33798     0.00062    -0.00916
  Hartree  1314.09520  1314.10097 -1133.68563     0.10985     0.00018    -0.00203
  E(xc)    -467.58391  -467.59075  -484.79645    -0.00306     0.00002    -0.00004
  Local   -3593.59712 -3593.22367  4203.04924    -0.39068    -0.00047     0.00872
  n-local  -112.44021  -112.55084  -102.69039    -0.09046     0.00024    -0.00044
  augment   -12.37556   -12.37471   -11.34044    -0.00045    -0.00000     0.00003
  Kinetic  1921.57549  1922.38858  2202.68847     0.57897    -0.00362     0.00800
  Fock        0.00000     0.00000     0.00000     0.00000     0.00000     0.00000
  vdW        -0.76913    -0.75936    -5.93808     0.00811    -0.00000    -0.00001
  -------------------------------------------------------------------------------------
  Total      -0.49810     0.11133    -0.82425     0.55027    -0.00304     0.00506
  in kB      -2.80048     0.62595    -4.63424     3.09381    -0.01709     0.02843
  external pressure =       -2.27 kB  Pullay stress =        0.00 kB


 VOLUME and BASIS-vectors are now :
 -----------------------------------------------------------------------------
  energy-cutoff  :      600.00
  volume of cell :      284.97
      direct lattice vectors                 reciprocal lattice vectors
     4.932874498 -0.001919286  0.000000000     0.202767147  0.117172881  0.000000000
    -2.468099399  4.271034986  0.000000000     0.000091118  0.234187941  0.000000000
     0.000000000  0.000000000 13.528771485     0.000000000  0.000000000  0.073916542

  length of vectors
     4.932874871  4.932874871 13.528771485     0.234187958  0.234187958  0.073916542


 FORCES acting on ions
    electron-ion (+dipol)            ewald-force                    non-local-force                 convergence-correction
 -----------------------------------------------------------------------------------------------
   -.192E+00 0.665E-01 0.325E+00   0.184E+00 -.622E-01 -.322E+00   -.407E-02 0.275E-02 0.923E-02   -.336E-04 -.154E-03 -.490E-03
   0.118E+00 0.596E-01 0.848E+00   -.124E+00 -.545E-01 -.879E+00   0.209E-01 0.244E-02 0.777E-01   -.922E-05 -.148E-03 -.481E-03
   -.436E+00 -.254E+00 0.852E+00   0.484E+00 0.290E+00 -.884E+00   0.132E-01 -.175E-02 0.779E-01   -.179E-04 -.161E-03 -.481E-03
   -.447E+00 0.391E+00 0.844E+00   0.495E+00 -.418E+00 -.874E+00   0.121E-01 0.776E-02 0.774E-01   -.113E-04 -.150E-03 -.480E-03
   -.117E+00 0.664E-01 -.971E-01   0.107E+00 -.620E-01 0.952E-01   -.520E-02 0.277E-02 -.120E-02   0.106E-02 -.121E-03 0.178E-02
   -.117E+00 0.664E-01 -.975E-01   0.107E+00 -.620E-01 0.955E-01   -.520E-02 0.277E-02 -.116E-02   0.105E-02 -.126E-03 0.178E-02
   -.117E+00 0.663E-01 -.975E-01   0.107E+00 -.620E-01 0.955E-01   -.520E-02 0.277E-02 -.116E-02   0.105E-02 -.134E-03 0.178E-02
   -.117E+00 0.664E-01 -.975E-01   0.107E+00 -.621E-01 0.955E-01   -.520E-02 0.277E-02 -.115E-02   0.105E-02 -.146E-03 0.178E-02
   0.133E+00 -.750E-01 -.868E-01   -.127E+00 0.712E-01 0.941E-01   0.441E-02 -.266E-02 0.181E-02   0.281E-03 -.122E-03 -.733E-02
   0.932E-01 -.794E-01 -.101E+00   -.873E-01 0.756E-01 0.108E+00   0.443E-02 -.268E-02 0.155E-02   0.275E-03 -.128E-03 -.734E-02
   0.117E+00 -.430E-01 -.937E-01   -.111E+00 0.392E-01 0.101E+00   0.444E-02 -.268E-02 0.168E-02   0.283E-03 -.116E-03 -.734E-02
   0.110E+00 -.659E-01 -.695E-01   -.104E+00 0.621E-01 0.771E-01   0.437E-02 -.268E-02 0.871E-03   0.273E-03 -.123E-03 -.733E-02
   0.931E-01 -.513E-01 -.114E+00   -.876E-01 0.485E-01 0.108E+00   0.434E-02 -.236E-02 0.140E-02   0.304E-03 -.217E-03 0.622E-02
   0.132E+00 -.557E-01 -.100E+00   -.127E+00 0.531E-01 0.940E-01   0.433E-02 -.239E-02 0.165E-02   0.316E-03 -.210E-03 0.623E-02
   0.116E+00 -.872E-01 -.107E+00   -.111E+00 0.845E-01 0.101E+00   0.436E-02 -.237E-02 0.152E-02   0.302E-03 -.206E-03 0.623E-02
   0.110E+00 -.647E-01 -.833E-01   -.104E+00 0.620E-01 0.774E-01   0.426E-02 -.237E-02 0.724E-03   0.313E-03 -.200E-03 0.623E-02
   0.861E+00 -.635E-01 -.174E+01   -.971E+00 0.588E-01 0.178E+01   -.895E-01 -.280E-02 -.182E+00   0.664E-04 0.146E-03 -.248E-03
   -.847E-01 -.655E-01 0.386E+00   0.110E+00 0.617E-01 -.369E+00   0.227E-01 -.270E-02 -.239E-01   -.401E-04 0.144E-03 -.516E-03
   0.886E-01 0.345E-01 0.386E+00   -.881E-01 -.525E-01 -.369E+00   0.120E-01 -.881E-02 -.239E-01   0.309E-04 0.186E-03 -.517E-03
   0.891E-01 -.166E+00 0.387E+00   -.884E-01 0.176E+00 -.369E+00   0.119E-01 0.363E-02 -.239E-01   0.230E-04 0.114E-03 -.519E-03
   0.116E+00 -.658E-01 -.979E-01   -.107E+00 0.618E-01 0.960E-01   0.499E-02 -.265E-02 0.396E-03   -.107E-02 0.141E-03 0.177E-02
   0.116E+00 -.658E-01 -.972E-01   -.107E+00 0.618E-01 0.953E-01   0.498E-02 -.265E-02 0.256E-03   -.106E-02 0.140E-03 0.177E-02
   0.116E+00 -.658E-01 -.972E-01   -.107E+00 0.617E-01 0.953E-01   0.498E-02 -.265E-02 0.256E-03   -.107E-02 0.150E-03 0.177E-02
   0.116E+00 -.659E-01 -.972E-01   -.107E+00 0.618E-01 0.953E-01   0.498E-02 -.265E-02 0.255E-03   -.107E-02 0.153E-03 0.177E-02
   -.133E+00 0.791E-01 -.101E+00   0.127E+00 -.755E-01 0.108E+00   -.407E-02 0.249E-02 -.278E-03   -.260E-03 0.123E-03 -.733E-02
   -.926E-01 0.747E-01 -.867E-01   0.874E-01 -.709E-01 0.940E-01   -.439E-02 0.242E-02 0.105E-03   -.262E-03 0.124E-03 -.732E-02
   -.109E+00 0.420E-01 -.938E-01   0.103E+00 -.389E-01 0.101E+00   -.417E-02 0.274E-02 -.103E-03   -.262E-03 0.116E-03 -.733E-02
   -.116E+00 0.653E-01 -.698E-01   0.110E+00 -.618E-01 0.771E-01   -.434E-02 0.255E-02 -.164E-03   -.259E-03 0.112E-03 -.732E-02
   -.924E-01 0.550E-01 -.999E-01   0.878E-01 -.527E-01 0.938E-01   -.420E-02 0.237E-02 -.126E-04   -.299E-03 0.215E-03 0.624E-02
   -.132E+00 0.505E-01 -.114E+00   0.127E+00 -.482E-01 0.108E+00   -.388E-02 0.229E-02 -.450E-03   -.308E-03 0.207E-03 0.623E-02
   -.108E+00 0.871E-01 -.107E+00   0.103E+00 -.843E-01 0.101E+00   -.398E-02 0.206E-02 -.248E-03   -.299E-03 0.203E-03 0.624E-02
   -.115E+00 0.643E-01 -.835E-01   0.110E+00 -.618E-01 0.774E-01   -.415E-02 0.224E-02 -.318E-03   -.314E-03 0.196E-03 0.624E-02
 -----------------------------------------------------------------------------------------------
   -.399E-04 -.994E-05 0.296E-02   -.301E-13 -.347E-13 -.354E-13   0.623E-04 -.140E-04 -.504E-02   0.303E-04 0.748E-05 0.168E-02
 
 
 POSITION                                       TOTAL-FORCE (eV/Angst)
 -----------------------------------------------------------------------------------
      2.46402      0.00044      1.69110        -0.012047      0.006940      0.011123
      4.93046     -0.00052      1.69110         0.015022      0.007475      0.046137
      1.22997      2.13595      1.69110         0.060648      0.033258      0.045703
      3.69641      2.13499      1.69110         0.060149     -0.019061      0.046511
      2.46402      0.00044      8.45548        -0.013683      0.007008     -0.001368
      4.93046     -0.00052      8.45548        -0.013681      0.007009     -0.001352
      1.22997      2.13595      8.45548        -0.013681      0.007009     -0.001354
      3.69641      2.13499      8.45548        -0.013681      0.007012     -0.001350
     -1.23163      2.13412      5.07329         0.010511     -0.006667      0.001743
      1.23481      2.13316      5.07329         0.010620     -0.006581      0.001883
     -2.46568      4.26964      5.07329         0.010494     -0.006691      0.001809
      0.00076      4.26868      5.07329         0.010634     -0.006643      0.001136
     -1.23163      2.13412     11.83768         0.010218     -0.005459      0.001831
      1.23481      2.13316     11.83768         0.010124     -0.005331      0.001667
     -2.46568      4.26964     11.83768         0.010064     -0.005342      0.001740
      0.00076      4.26868     11.83768         0.010239     -0.005381      0.001081
      0.00010      1.42496      1.70049        -0.200862     -0.007430     -0.135460
      2.46311      1.42400      1.69110         0.048788     -0.006452     -0.007288
     -1.23737      3.56047      1.69110         0.012860     -0.027219     -0.007347
      1.22906      3.55952      1.69110         0.012958      0.014308     -0.007333
     -0.00332      1.42496      8.45548         0.012934     -0.006596      0.000256
      2.46311      1.42400      8.45548         0.012925     -0.006596      0.000139
     -1.23737      3.56047      8.45548         0.012929     -0.006597      0.000140
      1.22906      3.55952      8.45548         0.012929     -0.006599      0.000139
      1.23571      0.70960      5.07329        -0.010209      0.006325      0.000026
      3.70215      0.70864      5.07329        -0.009874      0.006324      0.000123
      0.00166      2.84512      5.07329        -0.010038      0.006041      0.000062
      2.46810      2.84416      5.07329        -0.010048      0.006224     -0.000207
      1.23571      0.70960     11.83768        -0.009134      0.004828      0.000101
      3.70215      0.70864     11.83768        -0.009473      0.004828     -0.000046
      0.00166      2.84512     11.83768        -0.009300      0.005120      0.000012
      2.46810      2.84416     11.83768        -0.009334      0.004936     -0.000258
 -----------------------------------------------------------------------------------
    total drift:                                0.000053     -0.000016     -0.000392


--------------------------------------------------------------------------------------------------------



  FREE ENERGIE OF THE ION-ELECTRON SYSTEM (eV)
  ---------------------------------------------------
  free  energy   TOTEN  =      -299.67074463 eV

  energy  without entropy=     -299.67074463  energy(sigma->0) =     -299.67074463
 


--------------------------------------------------------------------------------------------------------


    POTLOK:  cpu time    0.21: real time    0.21


--------------------------------------------------------------------------------------------------------


     LOOP+:  cpu time 3646.93: real time 3648.90
    4ORBIT:  cpu time    0.00: real time    0.00
 BZINTS: Fermi energy:  4.603376;128.000000 electrons
         Band energy:-575.810042;  BLOECHL correction: -0.000001

 total amount of memory used by VASP on root node   519936. kBytes
========================================================================

   base      :      30000. kBytes
   nonl-proj :     104471. kBytes
   fftplans  :       8783. kBytes
   grid      :      18621. kBytes
   one-center:         98. kBytes
   wavefun   :     357963. kBytes
 
  
  
 General timing and accounting informations for this job:
 ========================================================
  
                  Total CPU time used (sec):     3687.599
                            User time (sec):     3139.339
                          System time (sec):      548.261
                         Elapsed time (sec):     3689.984
  
                   Maximum memory used (kb):      627352.
                   Average memory used (kb):           0.
  
                          Minor page faults:     69158899
                          Major page faults:            0
                 Voluntary context switches:          990
