<?xml version="1.0" encoding="ISO-8859-1"?>
<modeling>
 <generator>
  <i name="program" type="string">vasp </i>
  <i name="version" type="string">5.3.5  </i>
  <i name="subversion" type="string">31Mar14 (build Nov 02 2014 15:17:37) complex                          parallel </i>
  <i name="platform" type="string">ion-Intel-MKL </i>
  <i name="date" type="string">2016 10 18 </i>
  <i name="time" type="string">23:49:59 </i>
 </generator>
 <incar>
  <i type="string" name="SYSTEM">graphite</i>
  <i type="string" name="PREC">accurate</i>
  <i type="int" name="NELM">   200</i>
  <i type="int" name="IBRION">    -1</i>
  <i name="EDIFF">      0.00000001</i>
  <i name="EDIFFG">      0.00100000</i>
  <i type="int" name="NSW">     0</i>
  <i type="int" name="ISIF">     2</i>
  <i name="ENCUT">    800.00000000</i>
  <i type="int" name="ISMEAR">    -5</i>
  <i type="logical" name="LWAVE"> F  </i>
  <i type="logical" name="LCHARG"> F  </i>
  <i type="int" name="NELM">   200</i>
  <i type="string" name="GGA">PE</i>
 </incar>
 <kpoints>
  <generation param="Gamma">
   <v type="int" name="divisions">       6        6        4 </v>
   <v name="usershift">      0.00000000       0.00000000       0.00000000 </v>
   <v name="genvec1">      0.16666667      -0.00000000       0.00000000 </v>
   <v name="genvec2">     -0.00000000       0.16666667       0.00000000 </v>
   <v name="genvec3">      0.00000000       0.00000000       0.25000000 </v>
   <v name="shift">      0.00000000       0.00000000       0.00000000 </v>
  </generation>
  <varray name="kpointlist" >
   <v>       0.00000000       0.00000000       0.00000000 </v>
   <v>       0.16666667       0.00000000       0.00000000 </v>
   <v>       0.33333333       0.00000000       0.00000000 </v>
   <v>       0.50000000       0.00000000       0.00000000 </v>
   <v>      -0.00000000       0.16666667       0.00000000 </v>
   <v>       0.16666667       0.16666667       0.00000000 </v>
   <v>       0.33333333       0.16666667       0.00000000 </v>
   <v>       0.50000000       0.16666667       0.00000000 </v>
   <v>      -0.33333333       0.16666667       0.00000000 </v>
   <v>      -0.16666667       0.16666667       0.00000000 </v>
   <v>      -0.00000000       0.33333333       0.00000000 </v>
   <v>       0.16666667       0.33333333       0.00000000 </v>
   <v>       0.33333333       0.33333333       0.00000000 </v>
   <v>       0.50000000       0.33333333       0.00000000 </v>
   <v>      -0.33333333       0.33333333       0.00000000 </v>
   <v>      -0.16666667       0.33333333       0.00000000 </v>
   <v>       0.00000000       0.50000000       0.00000000 </v>
   <v>       0.16666667       0.50000000       0.00000000 </v>
   <v>       0.33333333       0.50000000       0.00000000 </v>
   <v>       0.50000000       0.50000000       0.00000000 </v>
   <v>       0.00000000       0.00000000       0.25000000 </v>
   <v>       0.16666667       0.00000000       0.25000000 </v>
   <v>       0.33333333       0.00000000       0.25000000 </v>
   <v>       0.50000000       0.00000000       0.25000000 </v>
   <v>      -0.33333333      -0.00000000       0.25000000 </v>
   <v>      -0.16666667      -0.00000000       0.25000000 </v>
   <v>      -0.00000000       0.16666667       0.25000000 </v>
   <v>       0.16666667       0.16666667       0.25000000 </v>
   <v>       0.33333333       0.16666667       0.25000000 </v>
   <v>       0.50000000       0.16666667       0.25000000 </v>
   <v>      -0.33333333       0.16666667       0.25000000 </v>
   <v>      -0.16666667       0.16666667       0.25000000 </v>
   <v>      -0.00000000       0.33333333       0.25000000 </v>
   <v>       0.16666667       0.33333333       0.25000000 </v>
   <v>       0.33333333       0.33333333       0.25000000 </v>
   <v>       0.50000000       0.33333333       0.25000000 </v>
   <v>      -0.33333333       0.33333333       0.25000000 </v>
   <v>      -0.16666667       0.33333333       0.25000000 </v>
   <v>       0.00000000       0.50000000       0.25000000 </v>
   <v>       0.16666667       0.50000000       0.25000000 </v>
   <v>       0.33333333       0.50000000       0.25000000 </v>
   <v>       0.50000000       0.50000000       0.25000000 </v>
   <v>      -0.33333333       0.50000000       0.25000000 </v>
   <v>      -0.16666667       0.50000000       0.25000000 </v>
   <v>       0.00000000      -0.33333333       0.25000000 </v>
   <v>       0.16666667      -0.33333333       0.25000000 </v>
   <v>       0.33333333      -0.33333333       0.25000000 </v>
   <v>       0.50000000      -0.33333333       0.25000000 </v>
   <v>      -0.33333333      -0.33333333       0.25000000 </v>
   <v>      -0.16666667      -0.33333333       0.25000000 </v>
   <v>       0.00000000      -0.16666667       0.25000000 </v>
   <v>       0.16666667      -0.16666667       0.25000000 </v>
   <v>       0.33333333      -0.16666667       0.25000000 </v>
   <v>       0.50000000      -0.16666667       0.25000000 </v>
   <v>      -0.33333333      -0.16666667       0.25000000 </v>
   <v>      -0.16666667      -0.16666667       0.25000000 </v>
   <v>       0.00000000       0.00000000       0.50000000 </v>
   <v>       0.16666667       0.00000000       0.50000000 </v>
   <v>       0.33333333       0.00000000       0.50000000 </v>
   <v>       0.50000000       0.00000000       0.50000000 </v>
   <v>      -0.00000000       0.16666667       0.50000000 </v>
   <v>       0.16666667       0.16666667       0.50000000 </v>
   <v>       0.33333333       0.16666667       0.50000000 </v>
   <v>       0.50000000       0.16666667       0.50000000 </v>
   <v>      -0.33333333       0.16666667       0.50000000 </v>
   <v>      -0.16666667       0.16666667       0.50000000 </v>
   <v>      -0.00000000       0.33333333       0.50000000 </v>
   <v>       0.16666667       0.33333333       0.50000000 </v>
   <v>       0.33333333       0.33333333       0.50000000 </v>
   <v>       0.50000000       0.33333333       0.50000000 </v>
   <v>      -0.33333333       0.33333333       0.50000000 </v>
   <v>      -0.16666667       0.33333333       0.50000000 </v>
   <v>       0.00000000       0.50000000       0.50000000 </v>
   <v>       0.16666667       0.50000000       0.50000000 </v>
   <v>       0.33333333       0.50000000       0.50000000 </v>
   <v>       0.50000000       0.50000000       0.50000000 </v>
  </varray>
  <varray name="weights" >
   <v>       0.00694444 </v>
   <v>       0.01388889 </v>
   <v>       0.01388889 </v>
   <v>       0.00694444 </v>
   <v>       0.01388889 </v>
   <v>       0.01388889 </v>
   <v>       0.01388889 </v>
   <v>       0.01388889 </v>
   <v>       0.01388889 </v>
   <v>       0.01388889 </v>
   <v>       0.01388889 </v>
   <v>       0.01388889 </v>
   <v>       0.01388889 </v>
   <v>       0.01388889 </v>
   <v>       0.01388889 </v>
   <v>       0.01388889 </v>
   <v>       0.00694444 </v>
   <v>       0.01388889 </v>
   <v>       0.01388889 </v>
   <v>       0.00694444 </v>
   <v>       0.01388889 </v>
   <v>       0.01388889 </v>
   <v>       0.01388889 </v>
   <v>       0.01388889 </v>
   <v>       0.01388889 </v>
   <v>       0.01388889 </v>
   <v>       0.01388889 </v>
   <v>       0.01388889 </v>
   <v>       0.01388889 </v>
   <v>       0.01388889 </v>
   <v>       0.01388889 </v>
   <v>       0.01388889 </v>
   <v>       0.01388889 </v>
   <v>       0.01388889 </v>
   <v>       0.01388889 </v>
   <v>       0.01388889 </v>
   <v>       0.01388889 </v>
   <v>       0.01388889 </v>
   <v>       0.01388889 </v>
   <v>       0.01388889 </v>
   <v>       0.01388889 </v>
   <v>       0.01388889 </v>
   <v>       0.01388889 </v>
   <v>       0.01388889 </v>
   <v>       0.01388889 </v>
   <v>       0.01388889 </v>
   <v>       0.01388889 </v>
   <v>       0.01388889 </v>
   <v>       0.01388889 </v>
   <v>       0.01388889 </v>
   <v>       0.01388889 </v>
   <v>       0.01388889 </v>
   <v>       0.01388889 </v>
   <v>       0.01388889 </v>
   <v>       0.01388889 </v>
   <v>       0.01388889 </v>
   <v>       0.00694444 </v>
   <v>       0.01388889 </v>
   <v>       0.01388889 </v>
   <v>       0.00694444 </v>
   <v>       0.01388889 </v>
   <v>       0.01388889 </v>
   <v>       0.01388889 </v>
   <v>       0.01388889 </v>
   <v>       0.01388889 </v>
   <v>       0.01388889 </v>
   <v>       0.01388889 </v>
   <v>       0.01388889 </v>
   <v>       0.01388889 </v>
   <v>       0.01388889 </v>
   <v>       0.01388889 </v>
   <v>       0.01388889 </v>
   <v>       0.00694444 </v>
   <v>       0.01388889 </v>
   <v>       0.01388889 </v>
   <v>       0.00694444 </v>
  </varray>
  <varray name="tetrahedronlist"  type="int" >
   <v type="int" >        2        2        5        6       27 </v>
   <v type="int" >        2        1        2        5       27 </v>
   <v type="int" >        2        1        2       21       27 </v>
   <v type="int" >        2        2        6       27       28 </v>
   <v type="int" >        2        2       22       27       28 </v>
   <v type="int" >        2        2       21       22       27 </v>
   <v type="int" >        2        3        6        7       28 </v>
   <v type="int" >        2        2        3        6       28 </v>
   <v type="int" >        2        2        3       22       28 </v>
   <v type="int" >        2        3        7       28       29 </v>
   <v type="int" >        2        3       23       28       29 </v>
   <v type="int" >        2        3       22       23       28 </v>
   <v type="int" >        2        4        7        8       29 </v>
   <v type="int" >        2        3        4        7       29 </v>
   <v type="int" >        2        3        4       23       29 </v>
   <v type="int" >        2        4        8       29       30 </v>
   <v type="int" >        2        4       24       29       30 </v>
   <v type="int" >        2        4       23       24       29 </v>
   <v type="int" >        2        3        8        9       30 </v>
   <v type="int" >        2        3        4        8       30 </v>
   <v type="int" >        2        3        4       24       30 </v>
   <v type="int" >        2        3        9       30       31 </v>
   <v type="int" >        2        3       25       30       31 </v>
   <v type="int" >        2        3       24       25       30 </v>
   <v type="int" >        2        2        9       10       31 </v>
   <v type="int" >        2        2        3        9       31 </v>
   <v type="int" >        2        2        3       25       31 </v>
   <v type="int" >        2        2       10       31       32 </v>
   <v type="int" >        2        2       26       31       32 </v>
   <v type="int" >        2        2       25       26       31 </v>
   <v type="int" >        2        1        5       10       32 </v>
   <v type="int" >        2        1        2       10       32 </v>
   <v type="int" >        2        1        2       26       32 </v>
   <v type="int" >        2        1        5       27       32 </v>
   <v type="int" >        2        1       21       27       32 </v>
   <v type="int" >        2        1       21       26       32 </v>
   <v type="int" >        2        6       11       12       33 </v>
   <v type="int" >        2        5        6       11       33 </v>
   <v type="int" >        2        5        6       27       33 </v>
   <v type="int" >        2        6       12       33       34 </v>
   <v type="int" >        2        6       28       33       34 </v>
   <v type="int" >        2        6       27       28       33 </v>
   <v type="int" >        2        7       12       13       34 </v>
   <v type="int" >        2        6        7       12       34 </v>
   <v type="int" >        2        6        7       28       34 </v>
   <v type="int" >        2        7       13       34       35 </v>
   <v type="int" >        2        7       29       34       35 </v>
   <v type="int" >        2        7       28       29       34 </v>
   <v type="int" >        2        8       13       14       35 </v>
   <v type="int" >        2        7        8       13       35 </v>
   <v type="int" >        2        7        8       29       35 </v>
   <v type="int" >        2        8       14       35       36 </v>
   <v type="int" >        2        8       30       35       36 </v>
   <v type="int" >        2        8       29       30       35 </v>
   <v type="int" >        2        9       14       15       36 </v>
   <v type="int" >        2        8        9       14       36 </v>
   <v type="int" >        2        8        9       30       36 </v>
   <v type="int" >        2        9       15       36       37 </v>
   <v type="int" >        2        9       31       36       37 </v>
   <v type="int" >        2        9       30       31       36 </v>
   <v type="int" >        2       10       15       16       37 </v>
   <v type="int" >        2        9       10       15       37 </v>
   <v type="int" >        2        9       10       31       37 </v>
   <v type="int" >        2       10       16       37       38 </v>
   <v type="int" >        2       10       32       37       38 </v>
   <v type="int" >        2       10       31       32       37 </v>
   <v type="int" >        2        5       11       16       38 </v>
   <v type="int" >        2        5       10       16       38 </v>
   <v type="int" >        2        5       10       32       38 </v>
   <v type="int" >        2        5       11       33       38 </v>
   <v type="int" >        2        5       27       33       38 </v>
   <v type="int" >        2        5       27       32       38 </v>
   <v type="int" >        2       12       17       18       39 </v>
   <v type="int" >        2       11       12       17       39 </v>
   <v type="int" >        2       11       12       33       39 </v>
   <v type="int" >        2       12       18       39       40 </v>
   <v type="int" >        2       12       34       39       40 </v>
   <v type="int" >        2       12       33       34       39 </v>
   <v type="int" >        2       13       18       19       40 </v>
   <v type="int" >        2       12       13       18       40 </v>
   <v type="int" >        2       12       13       34       40 </v>
   <v type="int" >        2       13       19       40       41 </v>
   <v type="int" >        2       13       35       40       41 </v>
   <v type="int" >        2       13       34       35       40 </v>
   <v type="int" >        2       14       19       20       41 </v>
   <v type="int" >        2       13       14       19       41 </v>
   <v type="int" >        2       13       14       35       41 </v>
   <v type="int" >        2       14       20       41       42 </v>
   <v type="int" >        2       14       36       41       42 </v>
   <v type="int" >        2       14       35       36       41 </v>
   <v type="int" >        2       15       19       20       42 </v>
   <v type="int" >        2       14       15       20       42 </v>
   <v type="int" >        2       14       15       36       42 </v>
   <v type="int" >        2       15       19       42       43 </v>
   <v type="int" >        2       15       37       42       43 </v>
   <v type="int" >        2       15       36       37       42 </v>
   <v type="int" >        2       16       18       19       43 </v>
   <v type="int" >        2       15       16       19       43 </v>
   <v type="int" >        2       15       16       37       43 </v>
   <v type="int" >        2       16       18       43       44 </v>
   <v type="int" >        2       16       38       43       44 </v>
   <v type="int" >        2       16       37       38       43 </v>
   <v type="int" >        2       11       17       18       44 </v>
   <v type="int" >        2       11       16       18       44 </v>
   <v type="int" >        2       11       16       38       44 </v>
   <v type="int" >        2       11       17       39       44 </v>
   <v type="int" >        2       11       33       39       44 </v>
   <v type="int" >        2       11       33       38       44 </v>
   <v type="int" >        2       11       16       18       45 </v>
   <v type="int" >        2       11       17       18       45 </v>
   <v type="int" >        2       17       18       39       45 </v>
   <v type="int" >        2       16       18       45       46 </v>
   <v type="int" >        2       18       40       45       46 </v>
   <v type="int" >        2       18       39       40       45 </v>
   <v type="int" >        2       15       16       19       46 </v>
   <v type="int" >        2       16       18       19       46 </v>
   <v type="int" >        2       18       19       40       46 </v>
   <v type="int" >        2       15       19       46       47 </v>
   <v type="int" >        2       19       41       46       47 </v>
   <v type="int" >        2       19       40       41       46 </v>
   <v type="int" >        2       14       15       20       47 </v>
   <v type="int" >        2       15       19       20       47 </v>
   <v type="int" >        2       19       20       41       47 </v>
   <v type="int" >        2       14       20       47       48 </v>
   <v type="int" >        2       20       42       47       48 </v>
   <v type="int" >        2       20       41       42       47 </v>
   <v type="int" >        2       13       14       19       48 </v>
   <v type="int" >        2       14       19       20       48 </v>
   <v type="int" >        2       19       20       42       48 </v>
   <v type="int" >        2       13       19       48       49 </v>
   <v type="int" >        2       19       43       48       49 </v>
   <v type="int" >        2       19       42       43       48 </v>
   <v type="int" >        2       12       13       18       49 </v>
   <v type="int" >        2       13       18       19       49 </v>
   <v type="int" >        2       18       19       43       49 </v>
   <v type="int" >        2       12       18       49       50 </v>
   <v type="int" >        2       18       44       49       50 </v>
   <v type="int" >        2       18       43       44       49 </v>
   <v type="int" >        2       11       12       17       50 </v>
   <v type="int" >        2       12       17       18       50 </v>
   <v type="int" >        2       17       18       44       50 </v>
   <v type="int" >        2       11       17       45       50 </v>
   <v type="int" >        2       17       39       45       50 </v>
   <v type="int" >        2       17       39       44       50 </v>
   <v type="int" >        2        5       10       16       51 </v>
   <v type="int" >        2        5       11       16       51 </v>
   <v type="int" >        2       11       16       45       51 </v>
   <v type="int" >        2       10       16       51       52 </v>
   <v type="int" >        2       16       46       51       52 </v>
   <v type="int" >        2       16       45       46       51 </v>
   <v type="int" >        2        9       10       15       52 </v>
   <v type="int" >        2       10       15       16       52 </v>
   <v type="int" >        2       15       16       46       52 </v>
   <v type="int" >        2        9       15       52       53 </v>
   <v type="int" >        2       15       47       52       53 </v>
   <v type="int" >        2       15       46       47       52 </v>
   <v type="int" >        2        8        9       14       53 </v>
   <v type="int" >        2        9       14       15       53 </v>
   <v type="int" >        2       14       15       47       53 </v>
   <v type="int" >        2        8       14       53       54 </v>
   <v type="int" >        2       14       48       53       54 </v>
   <v type="int" >        2       14       47       48       53 </v>
   <v type="int" >        2        7        8       13       54 </v>
   <v type="int" >        2        8       13       14       54 </v>
   <v type="int" >        2       13       14       48       54 </v>
   <v type="int" >        2        7       13       54       55 </v>
   <v type="int" >        2       13       49       54       55 </v>
   <v type="int" >        2       13       48       49       54 </v>
   <v type="int" >        2        6        7       12       55 </v>
   <v type="int" >        2        7       12       13       55 </v>
   <v type="int" >        2       12       13       49       55 </v>
   <v type="int" >        2        6       12       55       56 </v>
   <v type="int" >        2       12       50       55       56 </v>
   <v type="int" >        2       12       49       50       55 </v>
   <v type="int" >        2        5        6       11       56 </v>
   <v type="int" >        2        6       11       12       56 </v>
   <v type="int" >        2       11       12       50       56 </v>
   <v type="int" >        2        5       11       51       56 </v>
   <v type="int" >        2       11       45       51       56 </v>
   <v type="int" >        2       11       45       50       56 </v>
   <v type="int" >        2        1        2       10       21 </v>
   <v type="int" >        2        1        5       10       21 </v>
   <v type="int" >        2        5       10       21       51 </v>
   <v type="int" >        2        2       10       21       22 </v>
   <v type="int" >        2       10       21       22       52 </v>
   <v type="int" >        2       10       21       51       52 </v>
   <v type="int" >        2        2        3        9       22 </v>
   <v type="int" >        2        2        9       10       22 </v>
   <v type="int" >        2        9       10       22       52 </v>
   <v type="int" >        2        3        9       22       23 </v>
   <v type="int" >        2        9       22       23       53 </v>
   <v type="int" >        2        9       22       52       53 </v>
   <v type="int" >        2        3        4        8       23 </v>
   <v type="int" >        2        3        8        9       23 </v>
   <v type="int" >        2        8        9       23       53 </v>
   <v type="int" >        2        4        8       23       24 </v>
   <v type="int" >        2        8       23       24       54 </v>
   <v type="int" >        2        8       23       53       54 </v>
   <v type="int" >        2        3        4        7       24 </v>
   <v type="int" >        2        4        7        8       24 </v>
   <v type="int" >        2        7        8       24       54 </v>
   <v type="int" >        2        3        7       24       25 </v>
   <v type="int" >        2        7       24       25       55 </v>
   <v type="int" >        2        7       24       54       55 </v>
   <v type="int" >        2        2        3        6       25 </v>
   <v type="int" >        2        3        6        7       25 </v>
   <v type="int" >        2        6        7       25       55 </v>
   <v type="int" >        2        2        6       25       26 </v>
   <v type="int" >        2        6       25       26       56 </v>
   <v type="int" >        2        6       25       55       56 </v>
   <v type="int" >        2        1        2        5       26 </v>
   <v type="int" >        2        2        5        6       26 </v>
   <v type="int" >        2        5        6       26       56 </v>
   <v type="int" >        2        1        5       21       26 </v>
   <v type="int" >        2        5       21       26       51 </v>
   <v type="int" >        2        5       26       51       56 </v>
   <v type="int" >        2       22       27       28       61 </v>
   <v type="int" >        2       21       22       27       61 </v>
   <v type="int" >        2       21       22       57       61 </v>
   <v type="int" >        2       22       28       61       62 </v>
   <v type="int" >        2       22       58       61       62 </v>
   <v type="int" >        2       22       57       58       61 </v>
   <v type="int" >        2       23       28       29       62 </v>
   <v type="int" >        2       22       23       28       62 </v>
   <v type="int" >        2       22       23       58       62 </v>
   <v type="int" >        2       23       29       62       63 </v>
   <v type="int" >        2       23       59       62       63 </v>
   <v type="int" >        2       23       58       59       62 </v>
   <v type="int" >        2       24       29       30       63 </v>
   <v type="int" >        2       23       24       29       63 </v>
   <v type="int" >        2       23       24       59       63 </v>
   <v type="int" >        2       24       30       63       64 </v>
   <v type="int" >        2       24       60       63       64 </v>
   <v type="int" >        2       24       59       60       63 </v>
   <v type="int" >        2       25       30       31       64 </v>
   <v type="int" >        2       24       25       30       64 </v>
   <v type="int" >        2       24       25       60       64 </v>
   <v type="int" >        2       25       31       64       65 </v>
   <v type="int" >        2       25       59       64       65 </v>
   <v type="int" >        2       25       59       60       64 </v>
   <v type="int" >        2       26       31       32       65 </v>
   <v type="int" >        2       25       26       31       65 </v>
   <v type="int" >        2       25       26       59       65 </v>
   <v type="int" >        2       26       32       65       66 </v>
   <v type="int" >        2       26       58       65       66 </v>
   <v type="int" >        2       26       58       59       65 </v>
   <v type="int" >        2       21       27       32       66 </v>
   <v type="int" >        2       21       26       32       66 </v>
   <v type="int" >        2       21       26       58       66 </v>
   <v type="int" >        2       21       27       61       66 </v>
   <v type="int" >        2       21       57       61       66 </v>
   <v type="int" >        2       21       57       58       66 </v>
   <v type="int" >        2       28       33       34       67 </v>
   <v type="int" >        2       27       28       33       67 </v>
   <v type="int" >        2       27       28       61       67 </v>
   <v type="int" >        2       28       34       67       68 </v>
   <v type="int" >        2       28       62       67       68 </v>
   <v type="int" >        2       28       61       62       67 </v>
   <v type="int" >        2       29       34       35       68 </v>
   <v type="int" >        2       28       29       34       68 </v>
   <v type="int" >        2       28       29       62       68 </v>
   <v type="int" >        2       29       35       68       69 </v>
   <v type="int" >        2       29       63       68       69 </v>
   <v type="int" >        2       29       62       63       68 </v>
   <v type="int" >        2       30       35       36       69 </v>
   <v type="int" >        2       29       30       35       69 </v>
   <v type="int" >        2       29       30       63       69 </v>
   <v type="int" >        2       30       36       69       70 </v>
   <v type="int" >        2       30       64       69       70 </v>
   <v type="int" >        2       30       63       64       69 </v>
   <v type="int" >        2       31       36       37       70 </v>
   <v type="int" >        2       30       31       36       70 </v>
   <v type="int" >        2       30       31       64       70 </v>
   <v type="int" >        2       31       37       70       71 </v>
   <v type="int" >        2       31       65       70       71 </v>
   <v type="int" >        2       31       64       65       70 </v>
   <v type="int" >        2       32       37       38       71 </v>
   <v type="int" >        2       31       32       37       71 </v>
   <v type="int" >        2       31       32       65       71 </v>
   <v type="int" >        2       32       38       71       72 </v>
   <v type="int" >        2       32       66       71       72 </v>
   <v type="int" >        2       32       65       66       71 </v>
   <v type="int" >        2       27       33       38       72 </v>
   <v type="int" >        2       27       32       38       72 </v>
   <v type="int" >        2       27       32       66       72 </v>
   <v type="int" >        2       27       33       67       72 </v>
   <v type="int" >        2       27       61       67       72 </v>
   <v type="int" >        2       27       61       66       72 </v>
   <v type="int" >        2       34       39       40       73 </v>
   <v type="int" >        2       33       34       39       73 </v>
   <v type="int" >        2       33       34       67       73 </v>
   <v type="int" >        2       34       40       73       74 </v>
   <v type="int" >        2       34       68       73       74 </v>
   <v type="int" >        2       34       67       68       73 </v>
   <v type="int" >        2       35       40       41       74 </v>
   <v type="int" >        2       34       35       40       74 </v>
   <v type="int" >        2       34       35       68       74 </v>
   <v type="int" >        2       35       41       74       75 </v>
   <v type="int" >        2       35       69       74       75 </v>
   <v type="int" >        2       35       68       69       74 </v>
   <v type="int" >        2       36       41       42       75 </v>
   <v type="int" >        2       35       36       41       75 </v>
   <v type="int" >        2       35       36       69       75 </v>
   <v type="int" >        2       36       42       75       76 </v>
   <v type="int" >        2       36       70       75       76 </v>
   <v type="int" >        2       36       69       70       75 </v>
   <v type="int" >        2       37       42       43       76 </v>
   <v type="int" >        2       36       37       42       76 </v>
   <v type="int" >        2       36       37       70       76 </v>
   <v type="int" >        2       37       43       75       76 </v>
   <v type="int" >        2       37       71       75       76 </v>
   <v type="int" >        2       37       70       71       76 </v>
   <v type="int" >        2       38       43       44       75 </v>
   <v type="int" >        2       37       38       43       75 </v>
   <v type="int" >        2       37       38       71       75 </v>
   <v type="int" >        2       38       44       74       75 </v>
   <v type="int" >        2       38       72       74       75 </v>
   <v type="int" >        2       38       71       72       75 </v>
   <v type="int" >        2       33       39       44       74 </v>
   <v type="int" >        2       33       38       44       74 </v>
   <v type="int" >        2       33       38       72       74 </v>
   <v type="int" >        2       33       39       73       74 </v>
   <v type="int" >        2       33       67       73       74 </v>
   <v type="int" >        2       33       67       72       74 </v>
   <v type="int" >        2       40       45       46       67 </v>
   <v type="int" >        2       39       40       45       67 </v>
   <v type="int" >        2       39       40       67       73 </v>
   <v type="int" >        2       40       46       67       72 </v>
   <v type="int" >        2       40       67       72       74 </v>
   <v type="int" >        2       40       67       73       74 </v>
   <v type="int" >        2       41       46       47       72 </v>
   <v type="int" >        2       40       41       46       72 </v>
   <v type="int" >        2       40       41       72       74 </v>
   <v type="int" >        2       41       47       71       72 </v>
   <v type="int" >        2       41       71       72       75 </v>
   <v type="int" >        2       41       72       74       75 </v>
   <v type="int" >        2       42       47       48       71 </v>
   <v type="int" >        2       41       42       47       71 </v>
   <v type="int" >        2       41       42       71       75 </v>
   <v type="int" >        2       42       48       70       71 </v>
   <v type="int" >        2       42       70       71       76 </v>
   <v type="int" >        2       42       71       75       76 </v>
   <v type="int" >        2       43       48       49       70 </v>
   <v type="int" >        2       42       43       48       70 </v>
   <v type="int" >        2       42       43       70       76 </v>
   <v type="int" >        2       43       49       69       70 </v>
   <v type="int" >        2       43       69       70       75 </v>
   <v type="int" >        2       43       70       75       76 </v>
   <v type="int" >        2       44       49       50       69 </v>
   <v type="int" >        2       43       44       49       69 </v>
   <v type="int" >        2       43       44       69       75 </v>
   <v type="int" >        2       44       50       68       69 </v>
   <v type="int" >        2       44       68       69       74 </v>
   <v type="int" >        2       44       69       74       75 </v>
   <v type="int" >        2       39       45       50       68 </v>
   <v type="int" >        2       39       44       50       68 </v>
   <v type="int" >        2       39       44       68       74 </v>
   <v type="int" >        2       39       45       67       68 </v>
   <v type="int" >        2       39       67       68       73 </v>
   <v type="int" >        2       39       68       73       74 </v>
   <v type="int" >        2       46       51       52       61 </v>
   <v type="int" >        2       45       46       51       61 </v>
   <v type="int" >        2       45       46       61       67 </v>
   <v type="int" >        2       46       52       61       66 </v>
   <v type="int" >        2       46       61       66       72 </v>
   <v type="int" >        2       46       61       67       72 </v>
   <v type="int" >        2       47       52       53       66 </v>
   <v type="int" >        2       46       47       52       66 </v>
   <v type="int" >        2       46       47       66       72 </v>
   <v type="int" >        2       47       53       65       66 </v>
   <v type="int" >        2       47       65       66       71 </v>
   <v type="int" >        2       47       66       71       72 </v>
   <v type="int" >        2       48       53       54       65 </v>
   <v type="int" >        2       47       48       53       65 </v>
   <v type="int" >        2       47       48       65       71 </v>
   <v type="int" >        2       48       54       64       65 </v>
   <v type="int" >        2       48       64       65       70 </v>
   <v type="int" >        2       48       65       70       71 </v>
   <v type="int" >        2       49       54       55       64 </v>
   <v type="int" >        2       48       49       54       64 </v>
   <v type="int" >        2       48       49       64       70 </v>
   <v type="int" >        2       49       55       63       64 </v>
   <v type="int" >        2       49       63       64       69 </v>
   <v type="int" >        2       49       64       69       70 </v>
   <v type="int" >        2       50       55       56       63 </v>
   <v type="int" >        2       49       50       55       63 </v>
   <v type="int" >        2       49       50       63       69 </v>
   <v type="int" >        2       50       56       62       63 </v>
   <v type="int" >        2       50       62       63       68 </v>
   <v type="int" >        2       50       63       68       69 </v>
   <v type="int" >        2       45       51       56       62 </v>
   <v type="int" >        2       45       50       56       62 </v>
   <v type="int" >        2       45       50       62       68 </v>
   <v type="int" >        2       45       51       61       62 </v>
   <v type="int" >        2       45       61       62       67 </v>
   <v type="int" >        2       45       62       67       68 </v>
   <v type="int" >        2       21       22       52       57 </v>
   <v type="int" >        2       21       51       52       57 </v>
   <v type="int" >        2       51       52       57       61 </v>
   <v type="int" >        2       22       52       57       58 </v>
   <v type="int" >        2       52       57       58       66 </v>
   <v type="int" >        2       52       57       61       66 </v>
   <v type="int" >        2       22       23       53       58 </v>
   <v type="int" >        2       22       52       53       58 </v>
   <v type="int" >        2       52       53       58       66 </v>
   <v type="int" >        2       23       53       58       59 </v>
   <v type="int" >        2       53       58       59       65 </v>
   <v type="int" >        2       53       58       65       66 </v>
   <v type="int" >        2       23       24       54       59 </v>
   <v type="int" >        2       23       53       54       59 </v>
   <v type="int" >        2       53       54       59       65 </v>
   <v type="int" >        2       24       54       59       60 </v>
   <v type="int" >        2       54       59       60       64 </v>
   <v type="int" >        2       54       59       64       65 </v>
   <v type="int" >        2       24       25       55       60 </v>
   <v type="int" >        2       24       54       55       60 </v>
   <v type="int" >        2       54       55       60       64 </v>
   <v type="int" >        2       25       55       59       60 </v>
   <v type="int" >        2       55       59       60       63 </v>
   <v type="int" >        2       55       60       63       64 </v>
   <v type="int" >        2       25       26       56       59 </v>
   <v type="int" >        2       25       55       56       59 </v>
   <v type="int" >        2       55       56       59       63 </v>
   <v type="int" >        2       26       56       58       59 </v>
   <v type="int" >        2       56       58       59       62 </v>
   <v type="int" >        2       56       59       62       63 </v>
   <v type="int" >        2       21       26       51       58 </v>
   <v type="int" >        2       26       51       56       58 </v>
   <v type="int" >        2       51       56       58       62 </v>
   <v type="int" >        2       21       51       57       58 </v>
   <v type="int" >        2       51       57       58       61 </v>
   <v type="int" >        2       51       58       61       62 </v>
  </varray>
  <i name="volumeweight">      0.00115741 </i>
 </kpoints>
 <parameters>
  <separator name="general" >
   <i type="string" name="SYSTEM">graphite</i>
   <i type="logical" name="LCOMPAT"> F  </i>
  </separator>
  <separator name="electronic" >
   <i type="string" name="PREC">accura</i>
   <i name="ENMAX">    800.00000000</i>
   <i name="ENAUG">    644.87300000</i>
   <i name="EDIFF">      0.00000001</i>
   <i type="int" name="IALGO">    38</i>
   <i type="int" name="IWAVPR">    10</i>
   <i type="int" name="NBANDS">    84</i>
   <i name="NELECT">    128.00000000</i>
   <i type="int" name="TURBO">     0</i>
   <i type="int" name="IRESTART">     0</i>
   <i type="int" name="NREBOOT">     0</i>
   <i type="int" name="NMIN">     0</i>
   <i name="EREF">      0.00000000</i>
   <separator name="electronic smearing" >
    <i type="int" name="ISMEAR">    -5</i>
    <i name="SIGMA">      0.20000000</i>
    <i name="KSPACING">      0.50000000</i>
    <i type="logical" name="KGAMMA"> T  </i>
   </separator>
   <separator name="electronic projectors" >
    <i type="logical" name="LREAL"> F  </i>
    <v name="ROPT">      0.00000000</v>
    <i type="int" name="LMAXPAW">  -100</i>
    <i type="int" name="LMAXMIX">     2</i>
    <i type="logical" name="NLSPLINE"> F  </i>
   </separator>
   <separator name="electronic startup" >
    <i type="int" name="ISTART">     0</i>
    <i type="int" name="ICHARG">     2</i>
    <i type="int" name="INIWAV">     1</i>
   </separator>
   <separator name="electronic spin" >
    <i type="int" name="ISPIN">     1</i>
    <i type="logical" name="LNONCOLLINEAR"> F  </i>
    <v name="MAGMOM">      1.00000000      1.00000000      1.00000000      1.00000000      1.00000000      1.00000000      1.00000000      1.00000000      1.00000000      1.00000000      1.00000000      1.00000000      1.00000000      1.00000000      1.00000000      1.00000000      1.00000000      1.00000000      1.00000000      1.00000000
      1.00000000      1.00000000      1.00000000      1.00000000      1.00000000      1.00000000      1.00000000      1.00000000      1.00000000      1.00000000      1.00000000      1.00000000</v>
    <i name="NUPDOWN">     -1.00000000</i>
    <i type="logical" name="LSORBIT"> F  </i>
    <v name="SAXIS">      0.00000000      0.00000000      1.00000000</v>
    <i type="logical" name="LSPIRAL"> F  </i>
    <v name="QSPIRAL">      0.00000000      0.00000000      0.00000000</v>
    <i type="logical" name="LZEROZ"> F  </i>
   </separator>
   <separator name="electronic exchange-correlation" >
    <i type="logical" name="LASPH"> F  </i>
    <i type="logical" name="LMETAGGA"> F  </i>
   </separator>
   <separator name="electronic convergence" >
    <i type="int" name="NELM">   200</i>
    <i type="int" name="NELMDL">     0</i>
    <i type="int" name="NELMIN">     2</i>
    <i name="ENINI">    800.00000000</i>
    <separator name="electronic convergence detail" >
     <i type="logical" name="LDIAG"> T  </i>
     <i type="logical" name="LSUBROT"> F  </i>
     <i name="WEIMIN">      0.00000000</i>
     <i name="EBREAK">      0.00000000</i>
     <i name="DEPER">      0.30000000</i>
     <i type="int" name="NRMM">     4</i>
     <i name="TIME">      0.40000000</i>
    </separator>
   </separator>
   <separator name="electronic mixer" >
    <i name="AMIX">      0.40000000</i>
    <i name="BMIX">      1.00000000</i>
    <i name="AMIN">      0.10000000</i>
    <i name="AMIX_MAG">      1.60000000</i>
    <i name="BMIX_MAG">      1.00000000</i>
    <separator name="electronic mixer details" >
     <i type="int" name="IMIX">     4</i>
     <i type="int" name="MAXMIX">   -45</i>
     <i name="WC">    100.00000000</i>
     <i type="int" name="INIMIX">     1</i>
     <i type="int" name="MIXPRE">     1</i>
     <i type="int" name="MREMOVE">     5</i>
    </separator>
   </separator>
   <separator name="electronic dipolcorrection" >
    <i type="logical" name="LDIPOL"> F  </i>
    <i type="logical" name="LMONO"> F  </i>
    <i type="int" name="IDIPOL">     0</i>
    <i name="EPSILON">      1.00000000</i>
    <v name="DIPOL">   -100.00000000   -100.00000000   -100.00000000</v>
    <i name="EFIELD">      0.00000000</i>
   </separator>
  </separator>
  <separator name="grids" >
   <i type="int" name="NGX">    48</i>
   <i type="int" name="NGY">    48</i>
   <i type="int" name="NGZ">   120</i>
   <i type="int" name="NGXF">    96</i>
   <i type="int" name="NGYF">    96</i>
   <i type="int" name="NGZF">   240</i>
   <i type="logical" name="ADDGRID"> F  </i>
  </separator>
  <separator name="ionic" >
   <i type="int" name="NSW">     0</i>
   <i type="int" name="IBRION">    -1</i>
   <i type="int" name="ISIF">     2</i>
   <i name="PSTRESS">      0.00000000</i>
   <i name="EDIFFG">      0.00100000</i>
   <i type="int" name="NFREE">     0</i>
   <i name="POTIM">      0.50000000</i>
   <i name="SMASS">     -3.00000000</i>
   <i name="SCALEE">      1.00000000</i>
  </separator>
  <separator name="ionic md" >
   <i name="TEBEG">      0.00010000</i>
   <i name="TEEND">      0.00010000</i>
   <i type="int" name="NBLOCK">     1</i>
   <i type="int" name="KBLOCK">     1</i>
   <i type="int" name="NPACO">   256</i>
   <i name="APACO">     16.00000000</i>
  </separator>
  <separator name="symmetry" >
   <i type="int" name="ISYM">     2</i>
   <i name="SYMPREC">      0.00001000</i>
  </separator>
  <separator name="dos" >
   <i type="logical" name="LORBIT"> F  </i>
   <v name="RWIGS">     -1.00000000</v>
   <i type="int" name="NEDOS">   301</i>
   <i name="EMIN">     10.00000000</i>
   <i name="EMAX">    -10.00000000</i>
   <i name="EFERMI">      0.00000000</i>
  </separator>
  <separator name="writing" >
   <i type="int" name="NWRITE">     2</i>
   <i type="logical" name="LWAVE"> F  </i>
   <i type="logical" name="LCHARG"> F  </i>
   <i type="logical" name="LPARD"> F  </i>
   <i type="logical" name="LVTOT"> F  </i>
   <i type="logical" name="LVHAR"> F  </i>
   <i type="logical" name="LELF"> F  </i>
   <i type="logical" name="LOPTICS"> F  </i>
   <v name="STM">      0.00000000      0.00000000      0.00000000      0.00000000      0.00000000      0.00000000      0.00000000</v>
  </separator>
  <separator name="performance" >
   <i type="int" name="NPAR">     6</i>
   <i type="int" name="NSIM">     4</i>
   <i type="int" name="NBLK">    -1</i>
   <i type="logical" name="LPLANE"> T  </i>
   <i type="logical" name="LSCALAPACK"> T  </i>
   <i type="logical" name="LSCAAWARE"> F  </i>
   <i type="logical" name="LSCALU"> F  </i>
   <i type="logical" name="LASYNC"> F  </i>
   <i type="logical" name="LORBITALREAL"> F  </i>
  </separator>
  <separator name="miscellaneous" >
   <i type="int" name="IDIOT">     3</i>
   <i type="logical" name="LMUSIC"> F  </i>
   <v name="POMASS">     12.01100000</v>
   <v name="DARWINR">      0.00000000</v>
   <v name="DARWINV">      1.00000000</v>
   <i type="logical" name="LCORR"> T  </i>
  </separator>
  <i type="logical" name="GGA_COMPAT"> T  </i>
  <i type="logical" name="LBERRY"> F  </i>
  <i type="int" name="ICORELEVEL">     0</i>
  <i type="logical" name="LDAU"> F  </i>
  <i type="int" name="I_CONSTRAINED_M">     0</i>
  <separator name="electronic exchange-correlation" >
   <i type="string" name="GGA">PE</i>
   <i type="int" name="VOSKOWN">     0</i>
   <i type="logical" name="LHFCALC"> F  </i>
   <i type="string" name="PRECFOCK"></i>
   <i type="logical" name="LSYMGRAD"> F  </i>
   <i type="logical" name="LHFONE"> F  </i>
   <i type="logical" name="LRHFCALC"> F  </i>
   <i type="logical" name="LTHOMAS"> F  </i>
   <i type="logical" name="LMODELHF"> F  </i>
   <i name="ENCUT4O">     -1.00000000</i>
   <i type="int" name="EXXOEP">     0</i>
   <i type="int" name="FOURORBIT">     0</i>
   <i name="AEXX">      0.00000000</i>
   <i name="HFALPHA">      0.00000000</i>
   <i name="MCALPHA">      0.00000000</i>
   <i name="ALDAX">      1.00000000</i>
   <i name="AGGAX">      1.00000000</i>
   <i name="ALDAC">      1.00000000</i>
   <i name="AGGAC">      1.00000000</i>
   <i type="int" name="NKREDX">     1</i>
   <i type="int" name="NKREDY">     1</i>
   <i type="int" name="NKREDZ">     1</i>
   <i type="logical" name="SHIFTRED"> F  </i>
   <i type="logical" name="ODDONLY"> F  </i>
   <i type="logical" name="EVENONLY"> F  </i>
   <i type="int" name="LMAXFOCK">     0</i>
   <i type="int" name="NMAXFOCKAE">     0</i>
   <i type="logical" name="LFOCKAEDFT"> F  </i>
   <i name="HFSCREEN">      0.00000000</i>
   <i name="HFSCREENC">      0.00000000</i>
   <i type="int" name="NBANDSGWLOW">     0</i>
  </separator>
  <separator name="vdW DFT" >
   <i type="logical" name="LUSE_VDW"> F  </i>
   <i name="Zab_VDW">     -0.84910000</i>
   <i name="PARAM1">      0.12340000</i>
   <i name="PARAM2">      1.00000000</i>
   <i name="PARAM3">      0.00000000</i>
  </separator>
  <separator name="model GW" >
   <i type="int" name="MODEL_GW">     0</i>
   <i name="MODEL_EPS0">      4.97643809</i>
   <i name="MODEL_ALPHA">      1.00000000</i>
  </separator>
  <separator name="linear response parameters" >
   <i type="logical" name="LEPSILON"> F  </i>
   <i type="logical" name="LRPA"> F  </i>
   <i type="logical" name="LNABLA"> F  </i>
   <i type="logical" name="LVEL"> F  </i>
   <i type="int" name="KINTER">     0</i>
   <i name="CSHIFT">      0.10000000</i>
   <i name="OMEGAMAX">     -1.00000000</i>
   <i name="DEG_THRESHOLD">      0.00200000</i>
  </separator>
  <separator name="orbital magnetization" >
   <i type="logical" name="NUCIND"> F  </i>
   <v name="MAGPOS">      0.00000000      0.00000000      0.00000000</v>
   <i type="logical" name="LNICSALL"> T  </i>
   <i type="logical" name="ORBITALMAG"> F  </i>
   <i type="logical" name="LMAGBLOCH"> F  </i>
   <i type="logical" name="LCHIMAG"> F  </i>
   <i type="logical" name="LGAUGE"> T  </i>
   <i type="int" name="MAGATOM">     0</i>
   <v name="MAGDIPOL">      0.00000000      0.00000000      0.00000000</v>
   <v name="AVECCONST">      0.00000000      0.00000000      0.00000000</v>
  </separator>
  <separator name="response functions" >
   <i type="logical" name="LADDER"> F  </i>
   <i type="logical" name="LFXC"> F  </i>
   <i type="logical" name="LHARTREE"> T  </i>
   <i type="int" name="IBSE">     0</i>
   <i type="logical" name="LTCTE"> F  </i>
   <i type="logical" name="LTETE"> F  </i>
   <i type="logical" name="LTRIPLET"> F  </i>
   <i type="logical" name="LFXCEPS"> F  </i>
   <i type="logical" name="LFXHEG"> F  </i>
   <i type="logical" name="L2ORDER"> F  </i>
   <i type="logical" name="LUSEW"> F  </i>
   <i name="ENCUTGW">     -2.00000000</i>
   <i name="ENCUTGWSOFT">     -2.00000000</i>
   <i name="ENCUTLF">     -1.00000000</i>
   <i type="int" name="LMAXMP2">    -1</i>
   <i name="SCISSOR">      0.00000000</i>
   <i type="int" name="NOMEGA">     0</i>
   <i type="int" name="NOMEGAR">     0</i>
   <i type="int" name="NBANDSGW">    -1</i>
   <i type="int" name="NBANDSO">    -1</i>
   <i type="int" name="NBANDSV">    -1</i>
   <i type="int" name="NELM">   200</i>
   <i type="int" name="DIM">     3</i>
   <i type="int" name="ANTIRES">     0</i>
   <i name="OMEGAMAX">    -30.00000000</i>
   <i name="OMEGAMIN">    -30.00000000</i>
   <i name="OMEGATL">   -200.00000000</i>
   <i type="int" name="OMEGAGRID">     0</i>
   <i name="CSHIFT">     -0.10000000</i>
   <i type="logical" name="SELFENERGY"> F  </i>
   <i type="logical" name="LSPECTRAL"> F  </i>
   <i type="logical" name="ODDONLYGW"> F  </i>
   <i type="logical" name="EVENONLYGW"> F  </i>
   <i type="int" name="NKREDLFX">     1</i>
   <i type="int" name="NKREDLFY">     1</i>
   <i type="int" name="NKREDLFZ">     1</i>
   <i type="int" name="MAXMEM">  1800</i>
   <i type="int" name="TELESCOPE">     0</i>
   <i type="int" name="TAUPAR">     1</i>
  </separator>
  <separator name="External order field" >
   <i name="OFIELD_KAPPA">      0.00000000</i>
   <v name="OFIELD_K">      0.00000000      0.00000000      0.00000000</v>
   <i name="OFIELD_Q6_NEAR">      0.00000000</i>
   <i name="OFIELD_Q6_FAR">      0.00000000</i>
   <i name="OFIELD_A">      0.00000000</i>
  </separator>
 </parameters>
 <atominfo>
  <atoms>      32 </atoms>
  <types>       1 </types>
  <array name="atoms" >
   <dimension dim="1">ion</dimension>
   <field type="string">element</field>
   <field type="int">atomtype</field>
   <set>
    <rc><c>C </c><c>   1</c></rc>
    <rc><c>C </c><c>   1</c></rc>
    <rc><c>C </c><c>   1</c></rc>
    <rc><c>C </c><c>   1</c></rc>
    <rc><c>C </c><c>   1</c></rc>
    <rc><c>C </c><c>   1</c></rc>
    <rc><c>C </c><c>   1</c></rc>
    <rc><c>C </c><c>   1</c></rc>
    <rc><c>C </c><c>   1</c></rc>
    <rc><c>C </c><c>   1</c></rc>
    <rc><c>C </c><c>   1</c></rc>
    <rc><c>C </c><c>   1</c></rc>
    <rc><c>C </c><c>   1</c></rc>
    <rc><c>C </c><c>   1</c></rc>
    <rc><c>C </c><c>   1</c></rc>
    <rc><c>C </c><c>   1</c></rc>
    <rc><c>C </c><c>   1</c></rc>
    <rc><c>C </c><c>   1</c></rc>
    <rc><c>C </c><c>   1</c></rc>
    <rc><c>C </c><c>   1</c></rc>
    <rc><c>C </c><c>   1</c></rc>
    <rc><c>C </c><c>   1</c></rc>
    <rc><c>C </c><c>   1</c></rc>
    <rc><c>C </c><c>   1</c></rc>
    <rc><c>C </c><c>   1</c></rc>
    <rc><c>C </c><c>   1</c></rc>
    <rc><c>C </c><c>   1</c></rc>
    <rc><c>C </c><c>   1</c></rc>
    <rc><c>C </c><c>   1</c></rc>
    <rc><c>C </c><c>   1</c></rc>
    <rc><c>C </c><c>   1</c></rc>
    <rc><c>C </c><c>   1</c></rc>
   </set>
  </array>
  <array name="atomtypes" >
   <dimension dim="1">type</dimension>
   <field type="int">atomspertype</field>
   <field type="string">element</field>
   <field>mass</field>
   <field>valence</field>
   <field type="string">pseudopotential</field>
   <set>
    <rc><c>  32</c><c>C </c><c>     12.01100000</c><c>      4.00000000</c><c> PAW_PBE C 08Apr2002                    </c></rc>
   </set>
  </array>
 </atominfo>
 <structure name="initialpos" >
  <crystal>
   <varray name="basis" >
    <v>       4.93287450      -0.00191929       0.00000000 </v>
    <v>      -2.46809940       4.27103499       0.00000000 </v>
    <v>       0.00000000       0.00000000      12.60032638 </v>
   </varray>
   <i name="volume">    265.41003129 </i>
   <varray name="rec_basis" >
    <v>       0.20276715       0.11717288       0.00000000 </v>
    <v>       0.00009112       0.23418794       0.00000000 </v>
    <v>       0.00000000       0.00000000       0.07936302 </v>
   </varray>
  </crystal>
  <varray name="positions" >
   <v>       0.50041232       0.00032672       0.12573902 </v>
   <v>       0.99967330       0.00032672       0.12500000 </v>
   <v>       0.49967330       0.50032672       0.12500000 </v>
   <v>       0.99967330       0.50032672       0.12500000 </v>
   <v>       0.49967330       0.00032672       0.62500000 </v>
   <v>       0.99967330       0.00032672       0.62500000 </v>
   <v>       0.49967330       0.50032672       0.62500000 </v>
   <v>       0.99967330       0.50032672       0.62500000 </v>
   <v>       0.00032672       0.49967330       0.37500000 </v>
   <v>       0.50032672       0.49967330       0.37500000 </v>
   <v>       0.00032672       0.99967330       0.37500000 </v>
   <v>       0.50032672       0.99967330       0.37500000 </v>
   <v>       0.00032672       0.49967330       0.87500000 </v>
   <v>       0.50032672       0.49967330       0.87500000 </v>
   <v>       0.00032672       0.99967330       0.87500000 </v>
   <v>       0.50032672       0.99967330       0.87500000 </v>
   <v>       0.16629246       0.33370753       0.12500000 </v>
   <v>       0.66629246       0.33370753       0.12500000 </v>
   <v>       0.16629246       0.83370753       0.12500000 </v>
   <v>       0.66629246       0.83370753       0.12500000 </v>
   <v>       0.16629246       0.33370753       0.62500000 </v>
   <v>       0.66629246       0.33370753       0.62500000 </v>
   <v>       0.16629246       0.83370753       0.62500000 </v>
   <v>       0.66629246       0.83370753       0.62500000 </v>
   <v>       0.33370753       0.16629246       0.37500000 </v>
   <v>       0.83370753       0.16629246       0.37500000 </v>
   <v>       0.33370753       0.66629246       0.37500000 </v>
   <v>       0.83370753       0.66629246       0.37500000 </v>
   <v>       0.33370753       0.16629246       0.87500000 </v>
   <v>       0.83370753       0.16629246       0.87500000 </v>
   <v>       0.33370753       0.66629246       0.87500000 </v>
   <v>       0.83370753       0.66629246       0.87500000 </v>
  </varray>
 </structure>
 <calculation>
  <scstep>
   <time name="dav">  227.51  455.27</time>
   <time name="total">  228.47  457.22</time>
   <energy>
    <i name="alphaZ">    314.36523906 </i>
    <i name="ewald">  -3986.26475029 </i>
    <i name="hartreedc">   -999.83146094 </i>
    <i name="XCdc">    444.12139775 </i>
    <i name="pawpsdc">   1210.60617908 </i>
    <i name="pawaedc">  -1247.42152856 </i>
    <i name="eentropy">      0.00000000 </i>
    <i name="bandstr">    231.44000461 </i>
    <i name="atom">   4708.94155045 </i>
    <i name="e_fr_energy">    675.95663117 </i>
    <i name="e_wo_entrp">    675.95663117 </i>
    <i name="e_0_energy">    675.95663117 </i>
   </energy>
  </scstep>
  <scstep>
   <time name="dav">  273.58  547.43</time>
   <time name="total">  273.63  547.55</time>
   <energy>
    <i name="e_fr_energy">   -257.64742644 </i>
    <i name="e_wo_entrp">   -257.64742644 </i>
    <i name="e_0_energy">   -257.64742644 </i>
   </energy>
  </scstep>
  <scstep>
   <time name="dav">  268.87  422.27</time>
   <time name="total">  268.95  422.38</time>
   <energy>
    <i name="e_fr_energy">   -311.71436310 </i>
    <i name="e_wo_entrp">   -311.71436310 </i>
    <i name="e_0_energy">   -311.71436310 </i>
   </energy>
  </scstep>
  <scstep>
   <time name="dav">  276.63  417.75</time>
   <time name="total">  276.71  417.91</time>
   <energy>
    <i name="e_fr_energy">   -312.74157462 </i>
    <i name="e_wo_entrp">   -312.74157462 </i>
    <i name="e_0_energy">   -312.74157462 </i>
   </energy>
  </scstep>
  <scstep>
   <time name="dav">  281.31  428.65</time>
   <time name="total">  288.33  438.49</time>
   <energy>
    <i name="e_fr_energy">   -312.77125711 </i>
    <i name="e_wo_entrp">   -312.77125711 </i>
    <i name="e_0_energy">   -312.77125711 </i>
   </energy>
  </scstep>
  <scstep>
   <time name="dav">  257.44  387.50</time>
   <time name="total">  264.26  399.02</time>
   <energy>
    <i name="e_fr_energy">   -298.65657089 </i>
    <i name="e_wo_entrp">   -298.65657089 </i>
    <i name="e_0_energy">   -298.65657089 </i>
   </energy>
  </scstep>
  <scstep>
   <time name="dav">  257.69  474.61</time>
   <time name="total">  264.68  487.77</time>
   <energy>
    <i name="e_fr_energy">   -294.23921088 </i>
    <i name="e_wo_entrp">   -294.23921088 </i>
    <i name="e_0_energy">   -294.23921088 </i>
   </energy>
  </scstep>
  <scstep>
   <time name="dav">  256.56  513.38</time>
   <time name="total">  263.20  526.68</time>
   <energy>
    <i name="e_fr_energy">   -294.29168612 </i>
    <i name="e_wo_entrp">   -294.29168612 </i>
    <i name="e_0_energy">   -294.29168612 </i>
   </energy>
  </scstep>
  <scstep>
   <time name="dav">  263.87  528.00</time>
   <time name="total">  270.46  541.20</time>
   <energy>
    <i name="e_fr_energy">   -294.29122255 </i>
    <i name="e_wo_entrp">   -294.29122255 </i>
    <i name="e_0_energy">   -294.29122255 </i>
   </energy>
  </scstep>
  <scstep>
   <time name="dav">  256.56  513.37</time>
   <time name="total">  263.26  526.79</time>
   <energy>
    <i name="e_fr_energy">   -294.29076053 </i>
    <i name="e_wo_entrp">   -294.29076053 </i>
    <i name="e_0_energy">   -294.29076053 </i>
   </energy>
  </scstep>
  <scstep>
   <time name="dav">  296.97  594.24</time>
   <time name="total">  303.69  607.74</time>
   <energy>
    <i name="e_fr_energy">   -294.29158205 </i>
    <i name="e_wo_entrp">   -294.29158205 </i>
    <i name="e_0_energy">   -294.29158205 </i>
   </energy>
  </scstep>
  <scstep>
   <time name="dav">  249.06  498.37</time>
   <time name="total">  255.79  511.84</time>
   <energy>
    <i name="e_fr_energy">   -294.29144246 </i>
    <i name="e_wo_entrp">   -294.29144246 </i>
    <i name="e_0_energy">   -294.29144246 </i>
   </energy>
  </scstep>
  <scstep>
   <time name="dav">  326.01  652.34</time>
   <time name="total">  332.90  666.12</time>
   <energy>
    <i name="e_fr_energy">   -294.29150082 </i>
    <i name="e_wo_entrp">   -294.29150082 </i>
    <i name="e_0_energy">   -294.29150082 </i>
   </energy>
  </scstep>
  <scstep>
   <time name="dav">  282.21  564.66</time>
   <time name="total">  288.84  577.94</time>
   <energy>
    <i name="e_fr_energy">   -294.29151791 </i>
    <i name="e_wo_entrp">   -294.29151791 </i>
    <i name="e_0_energy">   -294.29151791 </i>
   </energy>
  </scstep>
  <scstep>
   <time name="dav">  267.85  535.97</time>
   <time name="total">  274.64  549.57</time>
   <energy>
    <i name="e_fr_energy">   -294.29142165 </i>
    <i name="e_wo_entrp">   -294.29142165 </i>
    <i name="e_0_energy">   -294.29142165 </i>
   </energy>
  </scstep>
  <scstep>
   <time name="dav">  253.94  508.14</time>
   <time name="total">  260.79  521.85</time>
   <energy>
    <i name="e_fr_energy">   -294.29142607 </i>
    <i name="e_wo_entrp">   -294.29142607 </i>
    <i name="e_0_energy">   -294.29142607 </i>
   </energy>
  </scstep>
  <scstep>
   <time name="dav">  267.76  535.77</time>
   <time name="total">  274.45  549.16</time>
   <energy>
    <i name="e_fr_energy">   -294.29142252 </i>
    <i name="e_wo_entrp">   -294.29142252 </i>
    <i name="e_0_energy">   -294.29142252 </i>
   </energy>
  </scstep>
  <scstep>
   <time name="dav">  268.81  537.89</time>
   <time name="total">  275.48  551.24</time>
   <energy>
    <i name="e_fr_energy">   -294.29142323 </i>
    <i name="e_wo_entrp">   -294.29142323 </i>
    <i name="e_0_energy">   -294.29142323 </i>
   </energy>
  </scstep>
  <scstep>
   <time name="dav">  347.42  695.19</time>
   <time name="total">  354.12  708.61</time>
   <energy>
    <i name="e_fr_energy">   -294.29142736 </i>
    <i name="e_wo_entrp">   -294.29142736 </i>
    <i name="e_0_energy">   -294.29142736 </i>
   </energy>
  </scstep>
  <scstep>
   <time name="dav">  346.52  693.38</time>
   <time name="total">  353.54  707.42</time>
   <energy>
    <i name="e_fr_energy">   -294.29142208 </i>
    <i name="e_wo_entrp">   -294.29142208 </i>
    <i name="e_0_energy">   -294.29142208 </i>
   </energy>
  </scstep>
  <scstep>
   <time name="dav">  253.48  507.20</time>
   <time name="total">  260.37  520.98</time>
   <energy>
    <i name="e_fr_energy">   -294.29142196 </i>
    <i name="e_wo_entrp">   -294.29142196 </i>
    <i name="e_0_energy">   -294.29142196 </i>
   </energy>
  </scstep>
  <scstep>
   <time name="dav">  246.08  492.41</time>
   <time name="total">  252.86  505.97</time>
   <energy>
    <i name="e_fr_energy">   -294.29142191 </i>
    <i name="e_wo_entrp">   -294.29142191 </i>
    <i name="e_0_energy">   -294.29142191 </i>
   </energy>
  </scstep>
  <scstep>
   <time name="dav">  209.36  418.92</time>
   <time name="total">  216.03  432.30</time>
   <energy>
    <i name="e_fr_energy">   -294.29142188 </i>
    <i name="e_wo_entrp">   -294.29142188 </i>
    <i name="e_0_energy">   -294.29142188 </i>
   </energy>
  </scstep>
  <scstep>
   <time name="dav">  193.54  387.26</time>
   <time name="total">  200.35  400.91</time>
   <energy>
    <i name="e_fr_energy">   -294.29142191 </i>
    <i name="e_wo_entrp">   -294.29142191 </i>
    <i name="e_0_energy">   -294.29142191 </i>
   </energy>
  </scstep>
  <scstep>
   <time name="dav">  187.17  374.57</time>
   <time name="total">  193.79  387.82</time>
   <energy>
    <i name="e_fr_energy">   -294.29142192 </i>
    <i name="e_wo_entrp">   -294.29142192 </i>
    <i name="e_0_energy">   -294.29142192 </i>
   </energy>
  </scstep>
  <scstep>
   <time name="dav">  190.97  382.15</time>
   <time name="total">  197.83  395.84</time>
   <energy>
    <i name="e_fr_energy">   -294.29142194 </i>
    <i name="e_wo_entrp">   -294.29142194 </i>
    <i name="e_0_energy">   -294.29142194 </i>
   </energy>
  </scstep>
  <scstep>
   <time name="dav">  192.66  385.53</time>
   <time name="total">  199.52  399.25</time>
   <energy>
    <i name="e_fr_energy">   -294.29142189 </i>
    <i name="e_wo_entrp">   -294.29142189 </i>
    <i name="e_0_energy">   -294.29142189 </i>
   </energy>
  </scstep>
  <scstep>
   <time name="dav">  191.21  382.61</time>
   <time name="total">  192.15  384.49</time>
   <energy>
    <i name="alphaZ">    314.36523906 </i>
    <i name="ewald">  -3986.26475029 </i>
    <i name="hartreedc">  -1259.34986882 </i>
    <i name="XCdc">    461.77231103 </i>
    <i name="pawpsdc">   2224.26062596 </i>
    <i name="pawaedc">  -2265.48793685 </i>
    <i name="eentropy">      0.00000000 </i>
    <i name="bandstr">   -492.52859243 </i>
    <i name="atom">   4708.94155045 </i>
    <i name="e_fr_energy">   -294.29142189 </i>
    <i name="e_wo_entrp">   -294.29142189 </i>
    <i name="e_0_energy">   -294.29142189 </i>
   </energy>
  </scstep>
  <structure>
   <crystal>
    <varray name="basis" >
     <v>       4.93287450      -0.00191929       0.00000000 </v>
     <v>      -2.46809940       4.27103499       0.00000000 </v>
     <v>       0.00000000       0.00000000      12.60032638 </v>
    </varray>
    <i name="volume">    265.41003129 </i>
    <varray name="rec_basis" >
     <v>       0.20276715       0.11717288       0.00000000 </v>
     <v>       0.00009112       0.23418794       0.00000000 </v>
     <v>       0.00000000       0.00000000       0.07936302 </v>
    </varray>
   </crystal>
   <varray name="positions" >
    <v>       0.50041232       0.00032672       0.12573902 </v>
    <v>       0.99967330       0.00032672       0.12500000 </v>
    <v>       0.49967330       0.50032672       0.12500000 </v>
    <v>       0.99967330       0.50032672       0.12500000 </v>
    <v>       0.49967330       0.00032672       0.62500000 </v>
    <v>       0.99967330       0.00032672       0.62500000 </v>
    <v>       0.49967330       0.50032672       0.62500000 </v>
    <v>       0.99967330       0.50032672       0.62500000 </v>
    <v>       0.00032672       0.49967330       0.37500000 </v>
    <v>       0.50032672       0.49967330       0.37500000 </v>
    <v>       0.00032672       0.99967330       0.37500000 </v>
    <v>       0.50032672       0.99967330       0.37500000 </v>
    <v>       0.00032672       0.49967330       0.87500000 </v>
    <v>       0.50032672       0.49967330       0.87500000 </v>
    <v>       0.00032672       0.99967330       0.87500000 </v>
    <v>       0.50032672       0.99967330       0.87500000 </v>
    <v>       0.16629246       0.33370753       0.12500000 </v>
    <v>       0.66629246       0.33370753       0.12500000 </v>
    <v>       0.16629246       0.83370753       0.12500000 </v>
    <v>       0.66629246       0.83370753       0.12500000 </v>
    <v>       0.16629246       0.33370753       0.62500000 </v>
    <v>       0.66629246       0.33370753       0.62500000 </v>
    <v>       0.16629246       0.83370753       0.62500000 </v>
    <v>       0.66629246       0.83370753       0.62500000 </v>
    <v>       0.33370753       0.16629246       0.37500000 </v>
    <v>       0.83370753       0.16629246       0.37500000 </v>
    <v>       0.33370753       0.66629246       0.37500000 </v>
    <v>       0.83370753       0.66629246       0.37500000 </v>
    <v>       0.33370753       0.16629246       0.87500000 </v>
    <v>       0.83370753       0.16629246       0.87500000 </v>
    <v>       0.33370753       0.66629246       0.87500000 </v>
    <v>       0.83370753       0.66629246       0.87500000 </v>
   </varray>
  </structure>
  <varray name="forces" >
   <v>      -0.23659569       0.00780346      -0.13077839 </v>
   <v>       0.02910612       0.00669233       0.00020927 </v>
   <v>      -0.00997142      -0.01587885       0.00028124 </v>
   <v>      -0.01009489       0.02941071       0.00005308 </v>
   <v>      -0.01181735       0.00661526       0.00662334 </v>
   <v>      -0.01176181       0.00661715       0.00671411 </v>
   <v>      -0.01178769       0.00660115       0.00671397 </v>
   <v>      -0.01178572       0.00663005       0.00671453 </v>
   <v>       0.01139667      -0.00692351      -0.00678346 </v>
   <v>       0.01099993      -0.00703802      -0.00693480 </v>
   <v>       0.01129534      -0.00663090      -0.00685642 </v>
   <v>       0.01105893      -0.00688229      -0.00569076 </v>
   <v>       0.01169158      -0.00612112      -0.00698586 </v>
   <v>       0.01204360      -0.00620874      -0.00684515 </v>
   <v>       0.01193964      -0.00648396      -0.00691884 </v>
   <v>       0.01171089      -0.00628882      -0.00551577 </v>
   <v>       0.00844414      -0.00515999       0.01171905 </v>
   <v>       0.03745002      -0.00587421       0.04513087 </v>
   <v>       0.08516912       0.02226686       0.04557177 </v>
   <v>       0.08553406      -0.03296867       0.04460304 </v>
   <v>       0.00906446      -0.00508250      -0.00102947 </v>
   <v>       0.00906756      -0.00508192      -0.00098812 </v>
   <v>       0.00906585      -0.00508406      -0.00098865 </v>
   <v>       0.00906566      -0.00508188      -0.00098477 </v>
   <v>      -0.00930666       0.00558893       0.00190610 </v>
   <v>      -0.00808842       0.00576726       0.00199237 </v>
   <v>      -0.00885335       0.00464335       0.00195716 </v>
   <v>      -0.00857973       0.00532564       0.00066149 </v>
   <v>      -0.00833516       0.00431405       0.00199670 </v>
   <v>      -0.00935282       0.00450564       0.00187375 </v>
   <v>      -0.00901339       0.00529872       0.00190251 </v>
   <v>      -0.00875946       0.00470889       0.00067612 </v>
  </varray>
  <varray name="stress" >
   <v>      -5.75883315       2.81704165      -0.04505723 </v>
   <v>       2.81704167      -2.30517546       0.03671797 </v>
   <v>      -0.04505721       0.03671796      31.19486176 </v>
  </varray>
  <energy>
   <i name="e_fr_energy">   -299.67682951 </i>
   <i name="e_wo_entrp">   -299.67682951 </i>
   <i name="e_0_energy">      0.00000000 </i>
  </energy>
  <time name="totalsc"> 7446.6314339.24</time>
  <eigenvalues>
   <array>
    <dimension dim="1">band</dimension>
    <dimension dim="2">kpoint</dimension>
    <dimension dim="3">spin</dimension>
    <field>eigene</field>
    <field>occ</field>
    <set>
     <set comment="spin 1">
      <set comment="kpoint 1">
       <r>  -14.4646    1.0000 </r>
       <r>  -14.2369    1.0000 </r>
       <r>  -14.2363    1.0000 </r>
       <r>  -13.9843    1.0000 </r>
       <r>   -9.0976    1.0000 </r>
       <r>   -9.0898    1.0000 </r>
       <r>   -9.0874    1.0000 </r>
       <r>   -8.9936    1.0000 </r>
       <r>   -8.9931    1.0000 </r>
       <r>   -8.9855    1.0000 </r>
       <r>   -8.9818    1.0000 </r>
       <r>   -8.9817    1.0000 </r>
       <r>   -8.9795    1.0000 </r>
       <r>   -8.9177    1.0000 </r>
       <r>   -8.9063    1.0000 </r>
       <r>   -8.9027    1.0000 </r>
       <r>   -7.9882    1.0000 </r>
       <r>   -7.9851    1.0000 </r>
       <r>   -7.9829    1.0000 </r>
       <r>   -7.9486    1.0000 </r>
       <r>   -7.9448    1.0000 </r>
       <r>   -7.9428    1.0000 </r>
       <r>   -7.9423    1.0000 </r>
       <r>   -7.9422    1.0000 </r>
       <r>   -7.9383    1.0000 </r>
       <r>   -7.8543    1.0000 </r>
       <r>   -7.8491    1.0000 </r>
       <r>   -7.8471    1.0000 </r>
       <r>   -3.5483    1.0000 </r>
       <r>   -2.3591    1.0000 </r>
       <r>   -2.3570    1.0000 </r>
       <r>   -1.1678    1.0000 </r>
       <r>   -1.1651    1.0000 </r>
       <r>   -1.1457    1.0000 </r>
       <r>   -1.1200    1.0000 </r>
       <r>   -1.1158    1.0000 </r>
       <r>   -1.1158    1.0000 </r>
       <r>   -1.1149    1.0000 </r>
       <r>   -1.0971    1.0000 </r>
       <r>   -1.0945    1.0000 </r>
       <r>   -1.0673    1.0000 </r>
       <r>   -1.0648    1.0000 </r>
       <r>   -1.0454    1.0000 </r>
       <r>   -0.8752    1.0000 </r>
       <r>    2.2388    1.0000 </r>
       <r>    2.2556    1.0000 </r>
       <r>    2.2621    1.0000 </r>
       <r>    2.2630    1.0000 </r>
       <r>    2.2771    1.0000 </r>
       <r>    2.2781    1.0000 </r>
       <r>    2.2828    1.0000 </r>
       <r>    2.2913    1.0000 </r>
       <r>    2.2924    1.0000 </r>
       <r>    2.2947    1.0000 </r>
       <r>    2.3021    1.0000 </r>
       <r>    2.8879    1.0000 </r>
       <r>    2.8906    1.0000 </r>
       <r>    2.8922    1.0000 </r>
       <r>    2.8963    1.0000 </r>
       <r>    2.8968    1.0000 </r>
       <r>    2.8989    1.0000 </r>
       <r>    3.2155    1.0000 </r>
       <r>    3.2333    1.0000 </r>
       <r>    3.2362    1.0000 </r>
       <r>    6.8203    0.0000 </r>
       <r>    6.8236    0.0000 </r>
       <r>    6.8274    0.0000 </r>
       <r>    6.8854    0.0000 </r>
       <r>    6.8911    0.0000 </r>
       <r>    6.8955    0.0000 </r>
       <r>    6.8965    0.0000 </r>
       <r>    6.8969    0.0000 </r>
       <r>    6.9028    0.0000 </r>
       <r>    7.6255    0.0000 </r>
       <r>    7.6394    0.0000 </r>
       <r>    7.6418    0.0000 </r>
       <r>   10.1662    0.0000 </r>
       <r>   12.3411    0.0000 </r>
       <r>   12.3451    0.0000 </r>
       <r>   12.3784    0.0000 </r>
       <r>   12.6383    0.0000 </r>
       <r>   12.6418    0.0000 </r>
       <r>   12.6447    0.0000 </r>
       <r>   12.6576    0.0000 </r>
      </set>
      <set comment="kpoint 2">
       <r>  -14.2982    1.0000 </r>
       <r>  -14.0725    1.0000 </r>
       <r>  -14.0719    1.0000 </r>
       <r>  -13.8224    1.0000 </r>
       <r>  -10.4245    1.0000 </r>
       <r>  -10.2475    1.0000 </r>
       <r>  -10.2469    1.0000 </r>
       <r>  -10.0565    1.0000 </r>
       <r>   -9.5448    1.0000 </r>
       <r>   -9.5380    1.0000 </r>
       <r>   -9.3874    1.0000 </r>
       <r>   -9.3868    1.0000 </r>
       <r>   -9.3799    1.0000 </r>
       <r>   -9.3793    1.0000 </r>
       <r>   -9.2219    1.0000 </r>
       <r>   -9.2141    1.0000 </r>
       <r>   -7.4092    1.0000 </r>
       <r>   -7.4013    1.0000 </r>
       <r>   -7.2852    1.0000 </r>
       <r>   -7.2825    1.0000 </r>
       <r>   -7.2757    1.0000 </r>
       <r>   -7.2754    1.0000 </r>
       <r>   -7.1441    1.0000 </r>
       <r>   -7.1357    1.0000 </r>
       <r>   -6.5641    1.0000 </r>
       <r>   -6.4341    1.0000 </r>
       <r>   -6.4323    1.0000 </r>
       <r>   -6.2935    1.0000 </r>
       <r>   -3.3462    1.0000 </r>
       <r>   -2.1640    1.0000 </r>
       <r>   -2.1619    1.0000 </r>
       <r>   -1.6624    1.0000 </r>
       <r>   -1.6432    1.0000 </r>
       <r>   -1.6026    1.0000 </r>
       <r>   -1.6022    1.0000 </r>
       <r>   -1.5844    1.0000 </r>
       <r>   -1.5818    1.0000 </r>
       <r>   -1.5407    1.0000 </r>
       <r>   -1.5215    1.0000 </r>
       <r>   -1.0041    1.0000 </r>
       <r>   -0.9563    1.0000 </r>
       <r>   -0.9534    1.0000 </r>
       <r>   -0.9051    1.0000 </r>
       <r>   -0.6901    1.0000 </r>
       <r>    1.1518    1.0000 </r>
       <r>    1.5931    1.0000 </r>
       <r>    1.6218    1.0000 </r>
       <r>    1.6264    1.0000 </r>
       <r>    1.6553    1.0000 </r>
       <r>    1.8975    1.0000 </r>
       <r>    1.9218    1.0000 </r>
       <r>    1.9272    1.0000 </r>
       <r>    1.9512    1.0000 </r>
       <r>    2.0432    1.0000 </r>
       <r>    2.0444    1.0000 </r>
       <r>    2.0485    1.0000 </r>
       <r>    2.0507    1.0000 </r>
       <r>    2.7806    1.0000 </r>
       <r>    2.7827    1.0000 </r>
       <r>    2.7866    1.0000 </r>
       <r>    2.7895    1.0000 </r>
       <r>    3.0053    1.0000 </r>
       <r>    3.3910    1.0000 </r>
       <r>    3.4052    1.0000 </r>
       <r>    6.9198    0.0000 </r>
       <r>    6.9224    0.0000 </r>
       <r>    7.1667    0.0000 </r>
       <r>    7.1723    0.0000 </r>
       <r>    7.1770    0.0000 </r>
       <r>    7.1791    0.0000 </r>
       <r>    7.5028    0.0000 </r>
       <r>    7.9045    0.0000 </r>
       <r>    7.9139    0.0000 </r>
       <r>    7.9973    0.0000 </r>
       <r>    8.0011    0.0000 </r>
       <r>    8.8324    0.0000 </r>
       <r>   10.3592    0.0000 </r>
       <r>   12.4377    0.0000 </r>
       <r>   12.7270    0.0000 </r>
       <r>   12.7288    0.0000 </r>
       <r>   13.0253    0.0000 </r>
       <r>   13.0775    0.0000 </r>
       <r>   13.1129    0.0000 </r>
       <r>   13.3860    0.0000 </r>
      </set>
      <set comment="kpoint 3">
       <r>  -13.8007    1.0000 </r>
       <r>  -13.5809    1.0000 </r>
       <r>  -13.5803    1.0000 </r>
       <r>  -13.3382    1.0000 </r>
       <r>  -11.8427    1.0000 </r>
       <r>  -11.6465    1.0000 </r>
       <r>  -11.6460    1.0000 </r>
       <r>  -11.4326    1.0000 </r>
       <r>   -9.9728    1.0000 </r>
       <r>   -9.9692    1.0000 </r>
       <r>   -9.8026    1.0000 </r>
       <r>   -9.8015    1.0000 </r>
       <r>   -9.7983    1.0000 </r>
       <r>   -9.7975    1.0000 </r>
       <r>   -9.6186    1.0000 </r>
       <r>   -9.6147    1.0000 </r>
       <r>   -6.2334    1.0000 </r>
       <r>   -6.2227    1.0000 </r>
       <r>   -6.1154    1.0000 </r>
       <r>   -6.1127    1.0000 </r>
       <r>   -6.1035    1.0000 </r>
       <r>   -6.1030    1.0000 </r>
       <r>   -5.9876    1.0000 </r>
       <r>   -5.9771    1.0000 </r>
       <r>   -4.4390    1.0000 </r>
       <r>   -4.3299    1.0000 </r>
       <r>   -4.3279    1.0000 </r>
       <r>   -4.2133    1.0000 </r>
       <r>   -2.8263    1.0000 </r>
       <r>   -2.8103    1.0000 </r>
       <r>   -2.7507    1.0000 </r>
       <r>   -2.7505    1.0000 </r>
       <r>   -2.7441    1.0000 </r>
       <r>   -2.7357    1.0000 </r>
       <r>   -2.7330    1.0000 </r>
       <r>   -2.6701    1.0000 </r>
       <r>   -2.6539    1.0000 </r>
       <r>   -1.5838    1.0000 </r>
       <r>   -1.5817    1.0000 </r>
       <r>   -0.5294    1.0000 </r>
       <r>   -0.4837    1.0000 </r>
       <r>   -0.4805    1.0000 </r>
       <r>   -0.4342    1.0000 </r>
       <r>   -0.4210    1.0000 </r>
       <r>   -0.1417    1.0000 </r>
       <r>   -0.0737    1.0000 </r>
       <r>   -0.0192    1.0000 </r>
       <r>   -0.0154    1.0000 </r>
       <r>    0.0397    1.0000 </r>
       <r>    0.6276    1.0000 </r>
       <r>    0.6298    1.0000 </r>
       <r>    1.0942    1.0000 </r>
       <r>    1.1291    1.0000 </r>
       <r>    1.1336    1.0000 </r>
       <r>    1.1688    1.0000 </r>
       <r>    1.7126    1.0000 </r>
       <r>    1.7149    1.0000 </r>
       <r>    1.8877    1.0000 </r>
       <r>    2.5916    1.0000 </r>
       <r>    2.5929    1.0000 </r>
       <r>    2.5954    1.0000 </r>
       <r>    2.5987    1.0000 </r>
       <r>    3.5386    1.0000 </r>
       <r>    3.5455    1.0000 </r>
       <r>    7.3169    0.0000 </r>
       <r>    7.3214    0.0000 </r>
       <r>    7.7442    0.0000 </r>
       <r>    7.7495    0.0000 </r>
       <r>    7.7528    0.0000 </r>
       <r>    7.7548    0.0000 </r>
       <r>    8.3373    0.0000 </r>
       <r>    8.3412    0.0000 </r>
       <r>    9.5980    0.0000 </r>
       <r>   10.1349    0.0000 </r>
       <r>   10.1380    0.0000 </r>
       <r>   10.8523    0.0000 </r>
       <r>   10.9405    0.0000 </r>
       <r>   12.6825    0.0000 </r>
       <r>   12.9697    0.0000 </r>
       <r>   12.9719    0.0000 </r>
       <r>   13.0702    0.0000 </r>
       <r>   13.4505    0.0000 </r>
       <r>   13.4548    0.0000 </r>
       <r>   13.4836    0.0000 </r>
      </set>
      <set comment="kpoint 4">
       <r>  -12.9797    1.0000 </r>
       <r>  -12.9767    1.0000 </r>
       <r>  -12.7710    1.0000 </r>
       <r>  -12.7679    1.0000 </r>
       <r>  -12.7678    1.0000 </r>
       <r>  -12.7650    1.0000 </r>
       <r>  -12.5390    1.0000 </r>
       <r>  -12.5360    1.0000 </r>
       <r>  -10.1227    1.0000 </r>
       <r>  -10.1209    1.0000 </r>
       <r>   -9.9498    1.0000 </r>
       <r>   -9.9478    1.0000 </r>
       <r>   -9.9477    1.0000 </r>
       <r>   -9.9461    1.0000 </r>
       <r>   -9.7618    1.0000 </r>
       <r>   -9.7599    1.0000 </r>
       <r>   -5.3016    1.0000 </r>
       <r>   -5.2993    1.0000 </r>
       <r>   -5.2357    1.0000 </r>
       <r>   -5.2313    1.0000 </r>
       <r>   -5.2307    1.0000 </r>
       <r>   -5.2306    1.0000 </r>
       <r>   -5.1711    1.0000 </r>
       <r>   -5.1690    1.0000 </r>
       <r>   -3.6919    1.0000 </r>
       <r>   -3.6907    1.0000 </r>
       <r>   -3.6536    1.0000 </r>
       <r>   -3.6536    1.0000 </r>
       <r>   -3.6523    1.0000 </r>
       <r>   -3.6493    1.0000 </r>
       <r>   -3.5965    1.0000 </r>
       <r>   -3.5948    1.0000 </r>
       <r>   -2.2062    1.0000 </r>
       <r>   -2.2032    1.0000 </r>
       <r>   -2.1232    1.0000 </r>
       <r>   -2.1226    1.0000 </r>
       <r>   -2.1225    1.0000 </r>
       <r>   -2.1167    1.0000 </r>
       <r>   -2.0358    1.0000 </r>
       <r>   -2.0323    1.0000 </r>
       <r>   -1.7578    1.0000 </r>
       <r>   -1.7555    1.0000 </r>
       <r>   -0.6386    1.0000 </r>
       <r>   -0.6348    1.0000 </r>
       <r>   -0.6347    1.0000 </r>
       <r>   -0.6321    1.0000 </r>
       <r>    0.2041    1.0000 </r>
       <r>    0.2104    1.0000 </r>
       <r>    0.2446    1.0000 </r>
[...]
       <r>   -3.6218    1.0000 </r>
       <r>   -3.6192    1.0000 </r>
       <r>   -3.6178    1.0000 </r>
       <r>   -3.6178    1.0000 </r>
       <r>   -2.2011    1.0000 </r>
       <r>   -2.1948    1.0000 </r>
       <r>   -2.1948    1.0000 </r>
       <r>   -2.1944    1.0000 </r>
       <r>   -2.0799    1.0000 </r>
       <r>   -2.0742    1.0000 </r>
       <r>   -2.0741    1.0000 </r>
       <r>   -2.0737    1.0000 </r>
       <r>   -1.4495    1.0000 </r>
       <r>   -1.4472    1.0000 </r>
       <r>   -1.4471    1.0000 </r>
       <r>   -1.4440    1.0000 </r>
       <r>    0.2369    1.0000 </r>
       <r>    0.2386    1.0000 </r>
       <r>    0.2386    1.0000 </r>
       <r>    0.2461    1.0000 </r>
       <r>    0.2942    1.0000 </r>
       <r>    0.2968    1.0000 </r>
       <r>    0.2969    1.0000 </r>
       <r>    0.2987    1.0000 </r>
       <r>    0.3002    1.0000 </r>
       <r>    0.3002    1.0000 </r>
       <r>    0.3007    1.0000 </r>
       <r>    0.3103    1.0000 </r>
       <r>    1.8471    1.0000 </r>
       <r>    1.8506    1.0000 </r>
       <r>    1.8509    1.0000 </r>
       <r>    1.8522    1.0000 </r>
       <r>    3.2396    1.0000 </r>
       <r>    3.2440    1.0000 </r>
       <r>    3.2444    1.0000 </r>
       <r>    3.2457    1.0000 </r>
       <r>    7.7513    0.0000 </r>
       <r>    7.7525    0.0000 </r>
       <r>    7.7528    0.0000 </r>
       <r>    7.7573    0.0000 </r>
       <r>    8.3520    0.0000 </r>
       <r>    8.3532    0.0000 </r>
       <r>    8.3536    0.0000 </r>
       <r>    8.3593    0.0000 </r>
       <r>   12.0786    0.0000 </r>
       <r>   12.0870    0.0000 </r>
       <r>   12.0889    0.0000 </r>
       <r>   12.0946    0.0000 </r>
       <r>   12.7069    0.0000 </r>
       <r>   12.7185    0.0000 </r>
       <r>   12.7217    0.0000 </r>
       <r>   12.7286    0.0000 </r>
       <r>   12.7974    0.0000 </r>
       <r>   12.8064    0.0000 </r>
       <r>   12.8077    0.0000 </r>
       <r>   12.8193    0.0000 </r>
      </set>
     </set>
    </set>
   </array>
  </eigenvalues>
  <separator name="orbital magnetization" >
   <v name="MAGDIPOLOUT">      0.00000000      0.00000000      0.00000000</v>
  </separator>
  <dos>
   <i name="efermi">      5.23091192 </i>
   <total>
    <array>
     <dimension dim="1">gridpoints</dimension>
     <dimension dim="2">spin</dimension>
     <field>energy</field>
     <field>total</field>
     <field>integrated</field>
     <set>
      <set comment="spin 1">
       <r>   -16.4646     0.0000     0.0000 </r>
       <r>   -16.3533     0.0000     0.0000 </r>
       <r>   -16.2419     0.0000     0.0000 </r>
       <r>   -16.1305     0.0000     0.0000 </r>
       <r>   -16.0192     0.0000     0.0000 </r>
       <r>   -15.9078     0.0000     0.0000 </r>
       <r>   -15.7965     0.0000     0.0000 </r>
       <r>   -15.6851     0.0000     0.0000 </r>
       <r>   -15.5737     0.0000     0.0000 </r>
       <r>   -15.4624     0.0000     0.0000 </r>
       <r>   -15.3510     0.0000     0.0000 </r>
       <r>   -15.2397     0.0000     0.0000 </r>
       <r>   -15.1283     0.0000     0.0000 </r>
       <r>   -15.0169     0.0000     0.0000 </r>
       <r>   -14.9056     0.0000     0.0000 </r>
       <r>   -14.7942     0.0000     0.0000 </r>
       <r>   -14.6829     0.0000     0.0000 </r>
       <r>   -14.5715     0.0000     0.0000 </r>
       <r>   -14.4601     0.0036     0.0000 </r>
       <r>   -14.3488     1.2113     0.0545 </r>
       <r>   -14.2374     2.1102     0.2618 </r>
       <r>   -14.1261     2.8196     0.5349 </r>
       <r>   -14.0147     3.7660     0.8982 </r>
       <r>   -13.9033     5.0968     1.3973 </r>
       <r>   -13.7920     4.7657     1.9578 </r>
       <r>   -13.6806     4.8868     2.4950 </r>
       <r>   -13.5693     4.9988     3.0457 </r>
       <r>   -13.4579     5.0004     3.6040 </r>
       <r>   -13.3465     5.1010     4.1639 </r>
       <r>   -13.2352     6.5627     4.8076 </r>
       <r>   -13.1238     7.0265     5.5698 </r>
       <r>   -13.0125     6.2213     6.3213 </r>
       <r>   -12.9011     6.2280     7.0138 </r>
       <r>   -12.7897     2.6762     7.5341 </r>
       <r>   -12.6784     1.8967     7.7790 </r>
       <r>   -12.5670     1.8077     7.9793 </r>
       <r>   -12.4557     2.3492     8.2053 </r>
       <r>   -12.3443     7.0787     8.6006 </r>
       <r>   -12.2329     5.8936     9.4741 </r>
       <r>   -12.1216     6.6105    10.1522 </r>
       <r>   -12.0102     6.8018    10.9196 </r>
       <r>   -11.8989     4.0890    11.5618 </r>
       <r>   -11.7875     4.2437    12.0252 </r>
       <r>   -11.6762     4.4467    12.5089 </r>
       <r>   -11.5648     4.6550    13.0156 </r>
       <r>   -11.4534     4.8510    13.5453 </r>
       <r>   -11.3421     5.0624    14.0949 </r>
       <r>   -11.2307     5.1894    14.6649 </r>
       <r>   -11.1194     5.3347    15.2530 </r>
       <r>   -11.0080     5.6933    15.8607 </r>
       <r>   -10.8966     6.0002    16.5309 </r>
       <r>   -10.7853     5.7802    17.1858 </r>
       <r>   -10.6739     5.6917    17.8227 </r>
       <r>   -10.5626     5.8658    18.4658 </r>
       <r>   -10.4512     6.0476    19.1291 </r>
       <r>   -10.3398     5.8507    19.7916 </r>
       <r>   -10.2285     5.8289    20.4414 </r>
       <r>   -10.1171     5.8227    21.0896 </r>
       <r>   -10.0058     5.0200    21.7020 </r>
       <r>    -9.8944     3.8406    22.1899 </r>
       <r>    -9.7830     3.7799    22.6022 </r>
       <r>    -9.6717     4.5502    23.0668 </r>
       <r>    -9.5603     4.8926    23.5971 </r>
       <r>    -9.4490     6.1818    24.2176 </r>
       <r>    -9.3376     7.5946    24.9693 </r>
       <r>    -9.2262    10.2305    25.9394 </r>
       <r>    -9.1149     8.9479    27.0681 </r>
       <r>    -9.0035     6.5562    27.9281 </r>
       <r>    -8.8922     4.9597    28.5535 </r>
       <r>    -8.7808     4.4029    29.0748 </r>
       <r>    -8.6694     6.5316    29.5372 </r>
       <r>    -8.5581     4.3819    30.1899 </r>
       <r>    -8.4467     4.4551    30.6757 </r>
       <r>    -8.3354     1.9447    31.0381 </r>
       <r>    -8.2240     1.7250    31.2424 </r>
       <r>    -8.1126     1.5053    31.4223 </r>
       <r>    -8.0013     1.2855    31.5777 </r>
       <r>    -7.8899     1.5011    31.7267 </r>
       <r>    -7.7786     1.9966    31.9209 </r>
       <r>    -7.6672     2.5054    32.1716 </r>
       <r>    -7.5559     3.4340    32.4833 </r>
       <r>    -7.4445     8.6922    33.1140 </r>
       <r>    -7.3331     6.8072    34.1167 </r>
       <r>    -7.2218     5.1523    34.7175 </r>
       <r>    -7.1104     5.6371    35.3141 </r>
       <r>    -6.9991     6.9050    36.0124 </r>
       <r>    -6.8877     8.1729    36.8520 </r>
       <r>    -6.7763     9.4409    37.8327 </r>
       <r>    -6.6650     7.8578    38.7980 </r>
       <r>    -6.5536     5.8261    39.5946 </r>
       <r>    -6.4423     5.5706    40.2200 </r>
       <r>    -6.3309     5.5003    40.8358 </r>
       <r>    -6.2195     5.4151    41.4464 </r>
       <r>    -6.1082     5.2283    42.0394 </r>
       <r>    -5.9968     5.0491    42.6110 </r>
       <r>    -5.8855     4.9279    43.1664 </r>
       <r>    -5.7741     4.8088    43.7086 </r>
       <r>    -5.6627     4.6899    44.2375 </r>
       <r>    -5.5514     4.5709    44.7531 </r>
       <r>    -5.4400     4.4519    45.2555 </r>
       <r>    -5.3287     4.3279    45.7444 </r>
       <r>    -5.2173     4.5814    46.2303 </r>
       <r>    -5.1059     5.2554    46.7798 </r>
       <r>    -4.9946     5.8824    47.3999 </r>
       <r>    -4.8832     6.5095    48.0899 </r>
       <r>    -4.7719     7.1367    48.8497 </r>
       <r>    -4.6605     7.7639    49.6794 </r>
       <r>    -4.5491     8.3911    50.5789 </r>
       <r>    -4.4378     8.8126    51.5480 </r>
       <r>    -4.3264     5.7717    52.3146 </r>
       <r>    -4.2151     5.5413    52.8836 </r>
       <r>    -4.1037     7.1979    53.5845 </r>
       <r>    -3.9923     5.6125    54.2986 </r>
       <r>    -3.8810     4.0128    54.8345 </r>
       <r>    -3.7696     2.4126    55.1923 </r>
       <r>    -3.6583     1.0825    55.3754 </r>
       <r>    -3.5469     2.1978    55.5383 </r>
       <r>    -3.4356     4.1980    55.8894 </r>
       <r>    -3.3242     6.4305    56.4831 </r>
       <r>    -3.2128     9.8291    57.3947 </r>
       <r>    -3.1015    13.1775    58.6538 </r>
       <r>    -2.9901    13.2019    60.1162 </r>
       <r>    -2.8788     9.9376    61.4318 </r>
       <r>    -2.7674     5.2525    62.2313 </r>
       <r>    -2.6560     5.4473    62.8030 </r>
       <r>    -2.5447     6.5748    63.4751 </r>
       <r>    -2.4333     7.9947    64.2728 </r>
       <r>    -2.3220    14.0878    65.4883 </r>
       <r>    -2.2106    24.7725    67.5038 </r>
       <r>    -2.0992     9.1746    69.3314 </r>
       <r>    -1.9879     7.3787    70.2111 </r>
       <r>    -1.8765     7.1928    71.0221 </r>
       <r>    -1.7652     7.2967    71.8223 </r>
       <r>    -1.6538     8.3537    72.6833 </r>
       <r>    -1.5424    15.1727    73.8507 </r>
       <r>    -1.4311    13.0732    75.4914 </r>
       <r>    -1.3197     9.2932    76.7423 </r>
       <r>    -1.2084    14.7969    77.8281 </r>
       <r>    -1.0970    29.0438    80.6035 </r>
       <r>    -0.9856    22.3099    82.9107 </r>
       <r>    -0.8743    15.1668    84.9393 </r>
       <r>    -0.7629    14.6257    86.5973 </r>
       <r>    -0.6516    13.0832    88.2026 </r>
       <r>    -0.5402     9.7191    89.4703 </r>
       <r>    -0.4288     8.2638    90.4612 </r>
       <r>    -0.3175     7.1112    91.2880 </r>
       <r>    -0.2061     8.1563    92.1397 </r>
       <r>    -0.0948     8.8848    93.0911 </r>
       <r>     0.0166    10.2345    94.1473 </r>
       <r>     0.1280    11.2353    95.3484 </r>
       <r>     0.2393    19.1368    96.8678 </r>
       <r>     0.3507    12.0819    98.6440 </r>
       <r>     0.4620    12.3738    99.9927 </r>
       <r>     0.5734    10.9938   101.3139 </r>
       <r>     0.6847     9.3296   102.4182 </r>
       <r>     0.7961     8.9913   103.4322 </r>
       <r>     0.9075     8.8176   104.4247 </r>
       <r>     1.0188     8.6011   105.3937 </r>
       <r>     1.1302     8.5736   106.3468 </r>
       <r>     1.2415    10.7169   107.4344 </r>
       <r>     1.3529     9.8539   108.5650 </r>
       <r>     1.4643    10.1269   109.6842 </r>
       <r>     1.5756    10.0640   110.8090 </r>
       <r>     1.6870    10.2918   111.9569 </r>
       <r>     1.7983     9.3172   113.0511 </r>
       <r>     1.9097     8.9317   114.0459 </r>
       <r>     2.0211    10.1160   115.1548 </r>
       <r>     2.1324     9.0485   116.2285 </r>
       <r>     2.2438     7.3557   117.1435 </r>
       <r>     2.3551     6.5570   117.9213 </r>
       <r>     2.4665     5.0590   118.5826 </r>
       <r>     2.5779     4.1178   119.0969 </r>
       <r>     2.6892     3.2066   119.4965 </r>
       <r>     2.8006     3.5197   119.8534 </r>
       <r>     2.9119     4.5310   120.3205 </r>
       <r>     3.0233     6.2211   120.8887 </r>
       <r>     3.1347     8.5280   121.7630 </r>
       <r>     3.2460     7.4134   122.6453 </r>
       <r>     3.3574     6.4270   123.3893 </r>
       <r>     3.4687     6.8410   124.1063 </r>
       <r>     3.5801     6.0050   124.8428 </r>
       <r>     3.6915     4.5656   125.4233 </r>
       <r>     3.8028     3.6218   125.8749 </r>
       <r>     3.9142     3.1551   126.2521 </r>
       <r>     4.0255     2.6847   126.5767 </r>
       <r>     4.1369     2.2733   126.8522 </r>
       <r>     4.2483     1.9504   127.0866 </r>
       <r>     4.3596     1.6593   127.2874 </r>
       <r>     4.4710     1.4456   127.4599 </r>
       <r>     4.5823     1.2647   127.6125 </r>
       <r>     4.6937     1.0234   127.7398 </r>
       <r>     4.8050     0.7907   127.8408 </r>
       <r>     4.9164     0.5667   127.9163 </r>
       <r>     5.0278     0.3502   127.9672 </r>
       <r>     5.1391     0.1410   127.9945 </r>
       <r>     5.2505     0.0061   128.0000 </r>
       <r>     5.3618     0.1321   128.0075 </r>
       <r>     5.4732     0.2691   128.0298 </r>
       <r>     5.5846     0.4144   128.0678 </r>
       <r>     5.6959     0.5692   128.1224 </r>
       <r>     5.8073     0.7358   128.1950 </r>
       <r>     5.9186     0.9143   128.2867 </r>
       <r>     6.0300     1.1078   128.3991 </r>
       <r>     6.1414     1.3250   128.5343 </r>
       <r>     6.2527     1.5872   128.6953 </r>
       <r>     6.3641     2.4019   128.9284 </r>
       <r>     6.4754     2.9212   129.2245 </r>
       <r>     6.5868     3.4011   129.5783 </r>
       <r>     6.6982     4.1155   129.9850 </r>
       <r>     6.8095     7.8841   130.6011 </r>
       <r>     6.9209    11.7931   131.9800 </r>
       <r>     7.0322    10.3811   133.1819 </r>
       <r>     7.1436     7.8522   134.1757 </r>
       <r>     7.2550     6.1747   134.9336 </r>
       <r>     7.3663     5.2303   135.5655 </r>
       <r>     7.4777     4.7216   136.1151 </r>
       <r>     7.5890     4.1391   136.6056 </r>
       <r>     7.7004     3.9118   137.0553 </r>
       <r>     7.8118     3.6706   137.4746 </r>
       <r>     7.9231     3.6443   137.8797 </r>
       <r>     8.0345     3.8801   138.2954 </r>
       <r>     8.1458     4.2887   138.7510 </r>
       <r>     8.2572     4.5897   139.2466 </r>
       <r>     8.3686     4.7972   139.7690 </r>
       <r>     8.4799     4.8506   140.3088 </r>
       <r>     8.5913     4.6319   140.8361 </r>
       <r>     8.7026     4.4913   141.3435 </r>
       <r>     8.8140     4.4229   141.8389 </r>
       <r>     8.9253     4.3179   142.3260 </r>
       <r>     9.0367     4.2186   142.8012 </r>
       <r>     9.1481     4.1231   143.2657 </r>
       <r>     9.2594     3.8505   143.7168 </r>
       <r>     9.3708     3.5568   144.1276 </r>
       <r>     9.4821     3.3963   144.5143 </r>
       <r>     9.5935     3.3221   144.8879 </r>
       <r>     9.7049     3.2562   145.2547 </r>
       <r>     9.8162     3.1618   145.6120 </r>
       <r>     9.9276     3.0988   145.9603 </r>
       <r>    10.0389     3.0528   146.3026 </r>
       <r>    10.1503     2.9936   146.6397 </r>
       <r>    10.2617     3.0015   146.9715 </r>
       <r>    10.3730     3.2094   147.3165 </r>
       <r>    10.4844     3.2998   147.6799 </r>
       <r>    10.5957     3.2619   148.0465 </r>
       <r>    10.7071     3.3185   148.4117 </r>
       <r>    10.8185     4.1926   148.8408 </r>
       <r>    10.9298     4.4485   149.3234 </r>
       <r>    11.0412     4.5299   149.8249 </r>
       <r>    11.1525     4.4996   150.3289 </r>
       <r>    11.2639     4.3370   150.8219 </r>
       <r>    11.3753     4.1448   151.2934 </r>
       <r>    11.4866     4.0582   151.7497 </r>
       <r>    11.5980     5.8237   152.2772 </r>
       <r>    11.7093     6.1646   152.9652 </r>
       <r>    11.8207     2.9550   153.4399 </r>
       <r>    11.9321     2.4601   153.7373 </r>
       <r>    12.0434     2.2300   153.9975 </r>
       <r>    12.1548     2.1194   154.2368 </r>
       <r>    12.2661     2.4317   154.4867 </r>
       <r>    12.3775     3.0895   154.7882 </r>
       <r>    12.4889     5.1917   155.2536 </r>
       <r>    12.6002     5.8141   155.8519 </r>
       <r>    12.7116     8.1775   156.6399 </r>
       <r>    12.8229     9.1773   157.6103 </r>
       <r>    12.9343    10.3771   158.6830 </r>
       <r>    13.0456    13.5439   160.0070 </r>
       <r>    13.1570    14.1454   161.5971 </r>
       <r>    13.2684    12.8852   163.1138 </r>
       <r>    13.3797    12.4211   164.5456 </r>
       <r>    13.4911    10.0015   165.7742 </r>
       <r>    13.6024    10.6937   166.9769 </r>
       <r>    13.7138     1.9999   167.7218 </r>
       <r>    13.8252     0.6568   167.8546 </r>
       <r>    13.9365     0.3718   167.9090 </r>
       <r>    14.0479     0.2181   167.9410 </r>
       <r>    14.1592     0.1500   167.9608 </r>
       <r>    14.2706     0.1104   167.9752 </r>
       <r>    14.3820     0.0769   167.9856 </r>
       <r>    14.4933     0.0494   167.9926 </r>
       <r>    14.6047     0.0280   167.9968 </r>
       <r>    14.7160     0.0126   167.9990 </r>
       <r>    14.8274     0.0033   167.9999 </r>
       <r>    14.9388     0.0000   168.0000 </r>
       <r>    15.0501     0.0000   168.0000 </r>
       <r>    15.1615     0.0000   168.0000 </r>
       <r>    15.2728     0.0000   168.0000 </r>
       <r>    15.3842     0.0000   168.0000 </r>
       <r>    15.4956     0.0000   168.0000 </r>
       <r>    15.6069     0.0000   168.0000 </r>
       <r>    15.7183     0.0000   168.0000 </r>
       <r>    15.8296     0.0000   168.0000 </r>
       <r>    15.9410     0.0000   168.0000 </r>
       <r>    16.0524     0.0000   168.0000 </r>
       <r>    16.1637     0.0000   168.0000 </r>
       <r>    16.2751     0.0000   168.0000 </r>
       <r>    16.3864     0.0000   168.0000 </r>
       <r>    16.4978     0.0000   168.0000 </r>
       <r>    16.6092     0.0000   168.0000 </r>
       <r>    16.7205     0.0000   168.0000 </r>
       <r>    16.8319     0.0000   168.0000 </r>
       <r>    16.9432     0.0000   168.0000 </r>
      </set>
     </set>
    </array>
   </total>
  </dos>
 </calculation>
 <structure name="finalpos" >
  <crystal>
   <varray name="basis" >
    <v>       4.93287450      -0.00191929       0.00000000 </v>
    <v>      -2.46809940       4.27103499       0.00000000 </v>
    <v>       0.00000000       0.00000000      12.60032638 </v>
   </varray>
   <i name="volume">    265.41003129 </i>
   <varray name="rec_basis" >
    <v>       0.20276715       0.11717288       0.00000000 </v>
    <v>       0.00009112       0.23418794       0.00000000 </v>
    <v>       0.00000000       0.00000000       0.07936302 </v>
   </varray>
  </crystal>
  <varray name="positions" >
   <v>       0.50041232       0.00032672       0.12573902 </v>
   <v>       0.99967330       0.00032672       0.12500000 </v>
   <v>       0.49967330       0.50032672       0.12500000 </v>
   <v>       0.99967330       0.50032672       0.12500000 </v>
   <v>       0.49967330       0.00032672       0.62500000 </v>
   <v>       0.99967330       0.00032672       0.62500000 </v>
   <v>       0.49967330       0.50032672       0.62500000 </v>
   <v>       0.99967330       0.50032672       0.62500000 </v>
   <v>       0.00032672       0.49967330       0.37500000 </v>
   <v>       0.50032672       0.49967330       0.37500000 </v>
   <v>       0.00032672       0.99967330       0.37500000 </v>
   <v>       0.50032672       0.99967330       0.37500000 </v>
   <v>       0.00032672       0.49967330       0.87500000 </v>
   <v>       0.50032672       0.49967330       0.87500000 </v>
   <v>       0.00032672       0.99967330       0.87500000 </v>
   <v>       0.50032672       0.99967330       0.87500000 </v>
   <v>       0.16629246       0.33370753       0.12500000 </v>
   <v>       0.66629246       0.33370753       0.12500000 </v>
   <v>       0.16629246       0.83370753       0.12500000 </v>
   <v>       0.66629246       0.83370753       0.12500000 </v>
   <v>       0.16629246       0.33370753       0.62500000 </v>
   <v>       0.66629246       0.33370753       0.62500000 </v>
   <v>       0.16629246       0.83370753       0.62500000 </v>
   <v>       0.66629246       0.83370753       0.62500000 </v>
   <v>       0.33370753       0.16629246       0.37500000 </v>
   <v>       0.83370753       0.16629246       0.37500000 </v>
   <v>       0.33370753       0.66629246       0.37500000 </v>
   <v>       0.83370753       0.66629246       0.37500000 </v>
   <v>       0.33370753       0.16629246       0.87500000 </v>
   <v>       0.83370753       0.16629246       0.87500000 </v>
   <v>       0.33370753       0.66629246       0.87500000 </v>
   <v>       0.83370753       0.66629246       0.87500000 </v>
  </varray>
 </structure>
</modeling>
