  32  32   0   0
  0.7090409E+01  0.4934311E-09  0.4934311E-09  0.1076119E-08  0.5000000E-15
  1.000000000000000E-004
  CAR 
 graphite                                
     18.15387511    -14.77870827  301      6.76499454      1.00000000
    -14.779  0.0000E+00  0.0000E+00
    -14.669  0.0000E+00  0.0000E+00
    -14.559  0.0000E+00  0.0000E+00
    -14.449  0.0000E+00  0.0000E+00
    -14.340  0.0000E+00  0.0000E+00
    -14.230  0.0000E+00  0.0000E+00
    -14.120  0.0000E+00  0.0000E+00
    -14.010  0.0000E+00  0.0000E+00
    -13.901  0.0000E+00  0.0000E+00
    -13.791  0.1765E-13  0.1937E-14
    -13.681  0.4942E-09  0.5425E-10
    -13.571  0.1411E-05  0.1549E-06
    -13.461  0.4744E-03  0.5223E-04
    -13.352  0.2493E-01  0.2789E-02
    -13.242  0.2782E+00  0.3333E-01
    -13.132  0.8208E+00  0.1234E+00
    -13.022  0.1337E+01  0.2702E+00
    -12.913  0.1743E+01  0.4615E+00
    -12.803  0.1831E+01  0.6625E+00
    -12.693  0.2339E+01  0.9193E+00
    -12.583  0.2827E+01  0.1230E+01
    -12.473  0.2372E+01  0.1490E+01
    -12.364  0.3019E+01  0.1821E+01
    -12.254  0.3550E+01  0.2211E+01
    -12.144  0.3949E+01  0.2645E+01
    -12.034  0.3648E+01  0.3045E+01
    -11.925  0.4160E+01  0.3502E+01
    -11.815  0.4712E+01  0.4019E+01
    -11.705  0.5658E+01  0.4640E+01
    -11.595  0.4992E+01  0.5188E+01
    -11.485  0.4890E+01  0.5725E+01
    -11.376  0.4396E+01  0.6207E+01
    -11.266  0.4693E+01  0.6722E+01
    -11.156  0.5230E+01  0.7297E+01
    -11.046  0.5705E+01  0.7923E+01
    -10.937  0.5148E+01  0.8488E+01
    -10.827  0.4977E+01  0.9034E+01
    -10.717  0.3931E+01  0.9466E+01
    -10.607  0.4949E+01  0.1001E+02
    -10.497  0.5250E+01  0.1059E+02
    -10.388  0.5821E+01  0.1122E+02
    -10.278  0.4804E+01  0.1175E+02
    -10.168  0.5045E+01  0.1231E+02
    -10.058  0.5395E+01  0.1290E+02
     -9.949  0.5294E+01  0.1348E+02
     -9.839  0.4061E+01  0.1392E+02
     -9.729  0.4482E+01  0.1442E+02
     -9.619  0.5303E+01  0.1500E+02
     -9.509  0.5717E+01  0.1563E+02
     -9.400  0.6249E+01  0.1631E+02
     -9.290  0.5691E+01  0.1694E+02
     -9.180  0.4464E+01  0.1743E+02
     -9.070  0.4507E+01  0.1792E+02
     -8.961  0.4801E+01  0.1845E+02
     -8.851  0.4312E+01  0.1892E+02
     -8.741  0.5234E+01  0.1950E+02
     -8.631  0.6684E+01  0.2023E+02
     -8.522  0.6710E+01  0.2097E+02
     -8.412  0.5607E+01  0.2158E+02
     -8.302  0.5302E+01  0.2217E+02
     -8.192  0.4057E+01  0.2261E+02
     -8.082  0.4541E+01  0.2311E+02
     -7.973  0.5300E+01  0.2369E+02
     -7.863  0.5538E+01  0.2430E+02
     -7.753  0.7213E+01  0.2509E+02
     -7.643  0.7442E+01  0.2591E+02
     -7.534  0.6933E+01  0.2667E+02
     -7.424  0.5949E+01  0.2732E+02
     -7.314  0.5370E+01  0.2791E+02
     -7.204  0.5178E+01  0.2848E+02
     -7.094  0.4434E+01  0.2897E+02
     -6.985  0.4466E+01  0.2946E+02
     -6.875  0.5627E+01  0.3007E+02
     -6.765  0.4205E+01  0.3054E+02
     -6.655  0.2175E+01  0.3077E+02
     -6.546  0.2410E+01  0.3104E+02
     -6.436  0.2303E+01  0.3129E+02
     -6.326  0.2583E+01  0.3158E+02
     -6.216  0.5095E+01  0.3213E+02
     -6.106  0.5915E+01  0.3278E+02
     -5.997  0.3758E+01  0.3320E+02
     -5.887  0.4153E+01  0.3365E+02
     -5.777  0.5593E+01  0.3427E+02
     -5.667  0.7133E+01  0.3505E+02
     -5.558  0.7149E+01  0.3583E+02
     -5.448  0.5797E+01  0.3647E+02
     -5.338  0.6096E+01  0.3714E+02
     -5.228  0.6198E+01  0.3782E+02
     -5.118  0.7163E+01  0.3861E+02
     -5.009  0.6886E+01  0.3936E+02
     -4.899  0.6040E+01  0.4003E+02
     -4.789  0.4974E+01  0.4057E+02
     -4.679  0.4213E+01  0.4103E+02
     -4.570  0.5016E+01  0.4158E+02
     -4.460  0.5416E+01  0.4218E+02
     -4.350  0.5666E+01  0.4280E+02
     -4.240  0.5375E+01  0.4339E+02
     -4.131  0.4311E+01  0.4386E+02
     -4.021  0.3987E+01  0.4430E+02
     -3.911  0.3606E+01  0.4470E+02
     -3.801  0.3925E+01  0.4513E+02
     -3.691  0.5543E+01  0.4574E+02
     -3.582  0.6386E+01  0.4644E+02
     -3.472  0.5691E+01  0.4706E+02
     -3.362  0.4574E+01  0.4757E+02
     -3.252  0.5351E+01  0.4815E+02
     -3.143  0.4733E+01  0.4867E+02
     -3.033  0.5914E+01  0.4932E+02
     -2.923  0.7935E+01  0.5019E+02
     -2.813  0.7154E+01  0.5098E+02
     -2.703  0.5442E+01  0.5158E+02
     -2.594  0.5555E+01  0.5219E+02
     -2.484  0.5779E+01  0.5282E+02
     -2.374  0.6511E+01  0.5353E+02
     -2.264  0.7033E+01  0.5431E+02
     -2.155  0.7755E+01  0.5516E+02
     -2.045  0.8921E+01  0.5614E+02
     -1.935  0.9277E+01  0.5716E+02
     -1.825  0.7243E+01  0.5795E+02
     -1.715  0.6676E+01  0.5868E+02
     -1.606  0.6580E+01  0.5941E+02
     -1.496  0.6583E+01  0.6013E+02
     -1.386  0.7398E+01  0.6094E+02
     -1.276  0.8696E+01  0.6189E+02
     -1.167  0.9256E+01  0.6291E+02
     -1.057  0.1034E+02  0.6405E+02
     -0.947  0.1170E+02  0.6533E+02
     -0.837  0.9358E+01  0.6636E+02
     -0.727  0.7051E+01  0.6713E+02
     -0.618  0.6676E+01  0.6786E+02
     -0.508  0.8568E+01  0.6881E+02
     -0.398  0.1003E+02  0.6991E+02
     -0.288  0.1159E+02  0.7118E+02
     -0.179  0.1174E+02  0.7247E+02
     -0.069  0.1158E+02  0.7374E+02
      0.041  0.1125E+02  0.7497E+02
      0.151  0.1192E+02  0.7628E+02
      0.261  0.1261E+02  0.7767E+02
      0.370  0.1218E+02  0.7900E+02
      0.480  0.1537E+02  0.8069E+02
      0.590  0.1543E+02  0.8238E+02
      0.700  0.1526E+02  0.8406E+02
      0.809  0.1294E+02  0.8548E+02
      0.919  0.1240E+02  0.8684E+02
      1.029  0.1427E+02  0.8841E+02
      1.139  0.1150E+02  0.8967E+02
      1.248  0.8186E+01  0.9057E+02
      1.358  0.9820E+01  0.9165E+02
      1.468  0.1187E+02  0.9295E+02
      1.578  0.1226E+02  0.9430E+02
      1.688  0.1037E+02  0.9543E+02
      1.797  0.8988E+01  0.9642E+02
      1.907  0.7354E+01  0.9723E+02
      2.017  0.7744E+01  0.9808E+02
      2.127  0.1135E+02  0.9932E+02
      2.236  0.1238E+02  0.1007E+03
      2.346  0.1073E+02  0.1019E+03
      2.456  0.9088E+01  0.1029E+03
      2.566  0.8012E+01  0.1037E+03
      2.676  0.7791E+01  0.1046E+03
      2.785  0.8799E+01  0.1056E+03
      2.895  0.1271E+02  0.1070E+03
      3.005  0.1183E+02  0.1083E+03
      3.115  0.8282E+01  0.1092E+03
      3.224  0.6138E+01  0.1098E+03
      3.334  0.7501E+01  0.1107E+03
      3.444  0.1088E+02  0.1119E+03
      3.554  0.1265E+02  0.1132E+03
      3.664  0.9328E+01  0.1143E+03
      3.773  0.7694E+01  0.1151E+03
      3.883  0.6297E+01  0.1158E+03
      3.993  0.5483E+01  0.1164E+03
      4.103  0.5122E+01  0.1170E+03
      4.212  0.5811E+01  0.1176E+03
      4.322  0.5575E+01  0.1182E+03
      4.432  0.5678E+01  0.1188E+03
      4.542  0.6010E+01  0.1195E+03
      4.652  0.3120E+01  0.1198E+03
      4.761  0.3140E+01  0.1202E+03
      4.871  0.5991E+01  0.1208E+03
      4.981  0.9807E+01  0.1219E+03
      5.091  0.8759E+01  0.1229E+03
      5.200  0.4774E+01  0.1234E+03
      5.310  0.3593E+01  0.1238E+03
      5.420  0.6626E+01  0.1245E+03
      5.530  0.6648E+01  0.1253E+03
      5.639  0.4220E+01  0.1257E+03
      5.749  0.2577E+01  0.1260E+03
      5.859  0.2552E+01  0.1263E+03
      5.969  0.2522E+01  0.1266E+03
      6.079  0.2721E+01  0.1269E+03
      6.188  0.2184E+01  0.1271E+03
      6.298  0.1608E+01  0.1273E+03
      6.408  0.2303E+01  0.1275E+03
      6.518  0.2048E+01  0.1278E+03
      6.627  0.1186E+01  0.1279E+03
      6.737  0.8718E+00  0.1280E+03
      6.847  0.6674E+00  0.1281E+03
      6.957  0.4343E+00  0.1281E+03
      7.067  0.8662E-01  0.1281E+03
      7.176  0.8522E-01  0.1281E+03
      7.286  0.9651E+00  0.1282E+03
      7.396  0.1952E+01  0.1284E+03
      7.506  0.1345E+01  0.1286E+03
      7.615  0.9357E+00  0.1287E+03
      7.725  0.1287E+01  0.1288E+03
      7.835  0.8154E+00  0.1289E+03
      7.945  0.7963E+00  0.1290E+03
      8.055  0.2580E+01  0.1293E+03
      8.164  0.4019E+01  0.1297E+03
      8.274  0.3466E+01  0.1301E+03
      8.384  0.3392E+01  0.1305E+03
      8.494  0.4547E+01  0.1310E+03
      8.603  0.7293E+01  0.1318E+03
      8.713  0.1009E+02  0.1329E+03
      8.823  0.6895E+01  0.1337E+03
      8.933  0.7098E+01  0.1344E+03
      9.043  0.7195E+01  0.1352E+03
      9.152  0.5611E+01  0.1358E+03
      9.262  0.5201E+01  0.1364E+03
      9.372  0.5436E+01  0.1370E+03
      9.482  0.5014E+01  0.1376E+03
      9.591  0.5727E+01  0.1382E+03
      9.701  0.5405E+01  0.1388E+03
      9.811  0.4124E+01  0.1392E+03
      9.921  0.4499E+01  0.1397E+03
     10.031  0.4321E+01  0.1402E+03
     10.140  0.5339E+01  0.1408E+03
     10.250  0.4337E+01  0.1413E+03
     10.360  0.2688E+01  0.1416E+03
     10.470  0.3789E+01  0.1420E+03
     10.579  0.5412E+01  0.1426E+03
     10.689  0.4296E+01  0.1430E+03
     10.799  0.2698E+01  0.1433E+03
     10.909  0.2736E+01  0.1436E+03
     11.018  0.4092E+01  0.1441E+03
     11.128  0.3626E+01  0.1445E+03
     11.238  0.2732E+01  0.1448E+03
     11.348  0.3438E+01  0.1452E+03
     11.458  0.4774E+01  0.1457E+03
     11.567  0.4424E+01  0.1462E+03
     11.677  0.2726E+01  0.1465E+03
     11.787  0.1662E+01  0.1466E+03
     11.897  0.2849E+01  0.1470E+03
     12.006  0.2535E+01  0.1472E+03
     12.116  0.2136E+01  0.1475E+03
     12.226  0.3275E+01  0.1478E+03
     12.336  0.4352E+01  0.1483E+03
     12.446  0.3315E+01  0.1487E+03
     12.555  0.3083E+01  0.1490E+03
     12.665  0.3019E+01  0.1493E+03
     12.775  0.3067E+01  0.1497E+03
     12.885  0.2005E+01  0.1499E+03
     12.994  0.1571E+01  0.1501E+03
     13.104  0.2732E+01  0.1504E+03
     13.214  0.3059E+01  0.1507E+03
     13.324  0.1796E+01  0.1509E+03
     13.434  0.2031E+01  0.1511E+03
     13.543  0.4214E+01  0.1516E+03
     13.653  0.4532E+01  0.1521E+03
     13.763  0.4596E+01  0.1526E+03
     13.873  0.5930E+01  0.1532E+03
     13.982  0.6558E+01  0.1540E+03
     14.092  0.5729E+01  0.1546E+03
     14.202  0.5209E+01  0.1552E+03
     14.312  0.4877E+01  0.1557E+03
     14.422  0.6251E+01  0.1564E+03
     14.531  0.6747E+01  0.1571E+03
     14.641  0.9189E+01  0.1581E+03
     14.751  0.8628E+01  0.1591E+03
     14.861  0.1026E+02  0.1602E+03
     14.970  0.1233E+02  0.1616E+03
     15.080  0.1165E+02  0.1628E+03
     15.190  0.1241E+02  0.1642E+03
     15.300  0.9977E+01  0.1653E+03
     15.409  0.7161E+01  0.1661E+03
     15.519  0.4916E+01  0.1666E+03
     15.629  0.3027E+01  0.1670E+03
     15.739  0.2028E+01  0.1672E+03
     15.849  0.2098E+01  0.1674E+03
     15.958  0.1581E+01  0.1676E+03
     16.068  0.1143E+01  0.1677E+03
     16.178  0.8287E+00  0.1678E+03
     16.288  0.2565E+00  0.1678E+03
     16.397  0.1412E+00  0.1678E+03
     16.507  0.4131E+00  0.1679E+03
     16.617  0.6397E+00  0.1680E+03
     16.727  0.3206E+00  0.1680E+03
     16.837  0.4777E-01  0.1680E+03
     16.946  0.1189E-02  0.1680E+03
     17.056  0.3620E-05  0.1680E+03
     17.166  0.1193E-08  0.1680E+03
     17.276  0.3998E-13  0.1680E+03
     17.385  0.0000E+00  0.1680E+03
     17.495  0.0000E+00  0.1680E+03
     17.605  0.0000E+00  0.1680E+03
     17.715  0.0000E+00  0.1680E+03
     17.825  0.0000E+00  0.1680E+03
     17.934  0.0000E+00  0.1680E+03
     18.044  0.0000E+00  0.1680E+03
     18.154  0.0000E+00  0.1680E+03
