  32  32   0   0
  0.8381369E+01  0.4932875E-09  0.4932875E-09  0.1273296E-08  0.5000000E-15
  1.000000000000000E-004
  CAR 
 graphite                                
     16.75519804    -16.54500566  301      5.13698244      1.00000000
    -16.545  0.0000E+00  0.0000E+00
    -16.434  0.0000E+00  0.0000E+00
    -16.323  0.0000E+00  0.0000E+00
    -16.212  0.0000E+00  0.0000E+00
    -16.101  0.0000E+00  0.0000E+00
    -15.990  0.0000E+00  0.0000E+00
    -15.879  0.0000E+00  0.0000E+00
    -15.768  0.0000E+00  0.0000E+00
    -15.657  0.0000E+00  0.0000E+00
    -15.546  0.0000E+00  0.0000E+00
    -15.435  0.0000E+00  0.0000E+00
    -15.324  0.0000E+00  0.0000E+00
    -15.213  0.0000E+00  0.0000E+00
    -15.102  0.0000E+00  0.0000E+00
    -14.991  0.0000E+00  0.0000E+00
    -14.880  0.0000E+00  0.0000E+00
    -14.769  0.0000E+00  0.0000E+00
    -14.658  0.0000E+00  0.0000E+00
    -14.547  0.0000E+00  0.0000E+00
    -14.436  0.1462E+01  0.8812E-01
    -14.325  0.2405E+01  0.3004E+00
    -14.214  0.3132E+01  0.6094E+00
    -14.103  0.4323E+01  0.1013E+01
    -13.992  0.4896E+01  0.1554E+01
    -13.881  0.4928E+01  0.2103E+01
    -13.770  0.4908E+01  0.2644E+01
    -13.659  0.5020E+01  0.3196E+01
    -13.548  0.4918E+01  0.3747E+01
    -13.437  0.4947E+01  0.4293E+01
    -13.326  0.5362E+01  0.4858E+01
    -13.215  0.5594E+01  0.5468E+01
    -13.104  0.6544E+01  0.6126E+01
    -12.993  0.6120E+01  0.6851E+01
    -12.882  0.4030E+01  0.7381E+01
    -12.771  0.2703E+01  0.7716E+01
    -12.660  0.3477E+01  0.8070E+01
    -12.549  0.4036E+01  0.8462E+01
    -12.438  0.6224E+01  0.9140E+01
    -12.327  0.5368E+01  0.9770E+01
    -12.216  0.5953E+01  0.1038E+02
    -12.105  0.4465E+01  0.1100E+02
    -11.994  0.4764E+01  0.1151E+02
    -11.883  0.5003E+01  0.1205E+02
    -11.772  0.4997E+01  0.1261E+02
    -11.661  0.5045E+01  0.1316E+02
    -11.550  0.5270E+01  0.1373E+02
    -11.439  0.5821E+01  0.1436E+02
    -11.328  0.5019E+01  0.1495E+02
    -11.217  0.5021E+01  0.1551E+02
    -11.106  0.5050E+01  0.1606E+02
    -10.995  0.5119E+01  0.1663E+02
    -10.884  0.5196E+01  0.1720E+02
    -10.773  0.5289E+01  0.1778E+02
    -10.662  0.5530E+01  0.1838E+02
    -10.551  0.5671E+01  0.1900E+02
    -10.440  0.5993E+01  0.1965E+02
    -10.329  0.5972E+01  0.2031E+02
    -10.218  0.6026E+01  0.2097E+02
    -10.107  0.5314E+01  0.2162E+02
     -9.996  0.4310E+01  0.2214E+02
     -9.885  0.4356E+01  0.2261E+02
     -9.774  0.5098E+01  0.2314E+02
     -9.663  0.5388E+01  0.2373E+02
     -9.552  0.5578E+01  0.2433E+02
     -9.441  0.5865E+01  0.2497E+02
     -9.330  0.7001E+01  0.2569E+02
     -9.219  0.8704E+01  0.2655E+02
     -9.108  0.8433E+01  0.2758E+02
     -8.997  0.6842E+01  0.2841E+02
     -8.886  0.5158E+01  0.2905E+02
     -8.775  0.3661E+01  0.2961E+02
     -8.664  0.3275E+01  0.3000E+02
     -8.553  0.2888E+01  0.3034E+02
     -8.442  0.2500E+01  0.3064E+02
     -8.331  0.2903E+01  0.3092E+02
     -8.220  0.2475E+01  0.3123E+02
     -8.109  0.1975E+01  0.3148E+02
     -7.998  0.1856E+01  0.3167E+02
     -7.887  0.2901E+01  0.3193E+02
     -7.776  0.6462E+01  0.3253E+02
     -7.665  0.4259E+01  0.3312E+02
     -7.554  0.4012E+01  0.3358E+02
     -7.443  0.5827E+01  0.3406E+02
     -7.332  0.6515E+01  0.3475E+02
     -7.221  0.6520E+01  0.3554E+02
     -7.110  0.7621E+01  0.3632E+02
     -6.999  0.8954E+01  0.3724E+02
     -6.888  0.7540E+01  0.3814E+02
     -6.777  0.6181E+01  0.3888E+02
     -6.666  0.5894E+01  0.3955E+02
     -6.555  0.5642E+01  0.4019E+02
     -6.444  0.5434E+01  0.4081E+02
     -6.333  0.5246E+01  0.4140E+02
     -6.222  0.5058E+01  0.4197E+02
     -6.111  0.4887E+01  0.4252E+02
     -6.000  0.4832E+01  0.4306E+02
     -5.889  0.4804E+01  0.4359E+02
     -5.778  0.4668E+01  0.4412E+02
     -5.667  0.4536E+01  0.4463E+02
     -5.556  0.4378E+01  0.4513E+02
     -5.445  0.3622E+01  0.4554E+02
     -5.334  0.4217E+01  0.4599E+02
     -5.223  0.4883E+01  0.4649E+02
     -5.112  0.5646E+01  0.4708E+02
     -5.001  0.6677E+01  0.4775E+02
     -4.890  0.9016E+01  0.4864E+02
     -4.779  0.9230E+01  0.4972E+02
     -4.668  0.6655E+01  0.5060E+02
     -4.557  0.4079E+01  0.5120E+02
     -4.446  0.2425E+01  0.5154E+02
     -4.335  0.2933E+01  0.5182E+02
     -4.224  0.4201E+01  0.5221E+02
     -4.113  0.5704E+01  0.5276E+02
     -4.002  0.7507E+01  0.5349E+02
     -3.891  0.8045E+01  0.5437E+02
     -3.780  0.6857E+01  0.5521E+02
     -3.669  0.5723E+01  0.5589E+02
     -3.558  0.7014E+01  0.5653E+02
     -3.447  0.7960E+01  0.5741E+02
     -3.336  0.7626E+01  0.5827E+02
     -3.225  0.7526E+01  0.5910E+02
     -3.114  0.7746E+01  0.5995E+02
     -3.003  0.9857E+01  0.6085E+02
     -2.892  0.1074E+02  0.6187E+02
     -2.781  0.9258E+01  0.6286E+02
     -2.670  0.8306E+01  0.6384E+02
     -2.559  0.7041E+01  0.6469E+02
     -2.448  0.7403E+01  0.6548E+02
     -2.337  0.8566E+01  0.6636E+02
     -2.226  0.1033E+02  0.6740E+02
     -2.115  0.1209E+02  0.6867E+02
     -2.004  0.1213E+02  0.7008E+02
     -1.893  0.1033E+02  0.7132E+02
     -1.782  0.1186E+02  0.7256E+02
     -1.671  0.1283E+02  0.7392E+02
     -1.560  0.1485E+02  0.7551E+02
     -1.449  0.1386E+02  0.7702E+02
     -1.338  0.1362E+02  0.7871E+02
     -1.227  0.1151E+02  0.7990E+02
     -1.116  0.1942E+02  0.8179E+02
     -1.005  0.1908E+02  0.8391E+02
     -0.894  0.1526E+02  0.8581E+02
     -0.783  0.1303E+02  0.8737E+02
     -0.672  0.1104E+02  0.8870E+02
     -0.561  0.1021E+02  0.8990E+02
     -0.450  0.7784E+01  0.9087E+02
     -0.339  0.1019E+02  0.9183E+02
     -0.228  0.1428E+02  0.9326E+02
     -0.117  0.1537E+02  0.9486E+02
     -0.006  0.8877E+01  0.9622E+02
      0.105  0.8771E+01  0.9718E+02
      0.216  0.9737E+01  0.9820E+02
      0.327  0.1013E+02  0.9929E+02
      0.438  0.1080E+02  0.1005E+03
      0.549  0.1138E+02  0.1018E+03
      0.660  0.9601E+01  0.1029E+03
      0.771  0.9374E+01  0.1039E+03
      0.882  0.9348E+01  0.1050E+03
      0.993  0.9433E+01  0.1060E+03
      1.104  0.9799E+01  0.1071E+03
      1.215  0.9205E+01  0.1082E+03
      1.326  0.9213E+01  0.1092E+03
      1.437  0.9387E+01  0.1102E+03
      1.548  0.9925E+01  0.1113E+03
      1.659  0.9377E+01  0.1123E+03
      1.770  0.8761E+01  0.1133E+03
      1.881  0.9211E+01  0.1143E+03
      1.992  0.9273E+01  0.1154E+03
      2.103  0.8746E+01  0.1164E+03
      2.214  0.6291E+01  0.1172E+03
      2.325  0.5763E+01  0.1179E+03
      2.436  0.5583E+01  0.1185E+03
      2.547  0.5229E+01  0.1191E+03
      2.658  0.4861E+01  0.1197E+03
      2.769  0.7057E+01  0.1203E+03
      2.880  0.8252E+01  0.1212E+03
      2.991  0.6665E+01  0.1221E+03
      3.102  0.3942E+01  0.1227E+03
      3.213  0.6047E+01  0.1233E+03
      3.324  0.6134E+01  0.1239E+03
      3.435  0.5733E+01  0.1247E+03
      3.546  0.4522E+01  0.1252E+03
      3.657  0.3654E+01  0.1257E+03
      3.768  0.3170E+01  0.1260E+03
      3.879  0.2859E+01  0.1264E+03
      3.990  0.2538E+01  0.1267E+03
      4.101  0.2113E+01  0.1269E+03
      4.212  0.1814E+01  0.1272E+03
      4.323  0.1557E+01  0.1273E+03
      4.434  0.1330E+01  0.1275E+03
      4.545  0.1136E+01  0.1276E+03
      4.656  0.9723E+00  0.1278E+03
      4.767  0.8284E+00  0.1279E+03
      4.878  0.5646E+00  0.1279E+03
      4.989  0.3079E+00  0.1280E+03
      5.100  0.5793E-01  0.1280E+03
      5.211  0.7241E-01  0.1280E+03
      5.322  0.2190E+00  0.1280E+03
      5.433  0.3744E+00  0.1281E+03
      5.544  0.5392E+00  0.1281E+03
      5.655  0.7183E+00  0.1282E+03
      5.766  0.9125E+00  0.1283E+03
      5.877  0.1120E+01  0.1284E+03
      5.988  0.1403E+01  0.1285E+03
      6.099  0.1714E+01  0.1287E+03
      6.210  0.2099E+01  0.1289E+03
      6.321  0.2498E+01  0.1292E+03
      6.432  0.3495E+01  0.1295E+03
      6.543  0.4457E+01  0.1300E+03
      6.654  0.6186E+01  0.1305E+03
      6.765  0.8833E+01  0.1317E+03
      6.876  0.8059E+01  0.1326E+03
      6.987  0.7277E+01  0.1334E+03
      7.098  0.7190E+01  0.1343E+03
      7.209  0.7668E+01  0.1351E+03
      7.320  0.5932E+01  0.1358E+03
      7.431  0.5208E+01  0.1364E+03
      7.542  0.4793E+01  0.1370E+03
      7.653  0.3948E+01  0.1375E+03
      7.764  0.3509E+01  0.1379E+03
      7.875  0.3516E+01  0.1383E+03
      7.986  0.3883E+01  0.1387E+03
      8.097  0.4218E+01  0.1391E+03
      8.208  0.4613E+01  0.1396E+03
      8.319  0.4879E+01  0.1402E+03
      8.430  0.4826E+01  0.1407E+03
      8.541  0.4550E+01  0.1412E+03
      8.652  0.4275E+01  0.1417E+03
      8.763  0.4030E+01  0.1422E+03
      8.874  0.3928E+01  0.1426E+03
      8.985  0.3753E+01  0.1430E+03
      9.096  0.3632E+01  0.1435E+03
      9.207  0.3546E+01  0.1439E+03
      9.318  0.3436E+01  0.1442E+03
      9.429  0.3286E+01  0.1446E+03
      9.540  0.3203E+01  0.1450E+03
      9.651  0.3175E+01  0.1453E+03
      9.762  0.3192E+01  0.1457E+03
      9.873  0.3160E+01  0.1460E+03
      9.984  0.3087E+01  0.1464E+03
     10.095  0.3221E+01  0.1467E+03
     10.206  0.3426E+01  0.1471E+03
     10.317  0.3501E+01  0.1475E+03
     10.428  0.3572E+01  0.1479E+03
     10.539  0.3666E+01  0.1483E+03
     10.650  0.3728E+01  0.1487E+03
     10.761  0.3684E+01  0.1491E+03
     10.872  0.3644E+01  0.1495E+03
     10.983  0.4039E+01  0.1499E+03
     11.094  0.4286E+01  0.1504E+03
     11.205  0.4396E+01  0.1509E+03
     11.316  0.4262E+01  0.1514E+03
     11.427  0.4275E+01  0.1518E+03
     11.538  0.4233E+01  0.1523E+03
     11.649  0.5798E+01  0.1529E+03
     11.760  0.4011E+01  0.1534E+03
     11.871  0.3108E+01  0.1538E+03
     11.982  0.2723E+01  0.1541E+03
     12.093  0.4550E+01  0.1544E+03
     12.204  0.3403E+01  0.1548E+03
     12.315  0.4121E+01  0.1552E+03
     12.426  0.5279E+01  0.1557E+03
     12.537  0.8155E+01  0.1564E+03
     12.648  0.8866E+01  0.1574E+03
     12.759  0.1226E+02  0.1586E+03
     12.870  0.1221E+02  0.1599E+03
     12.981  0.1235E+02  0.1613E+03
     13.092  0.1045E+02  0.1625E+03
     13.203  0.1050E+02  0.1637E+03
     13.314  0.1018E+02  0.1648E+03
     13.425  0.8226E+01  0.1659E+03
     13.536  0.7324E+01  0.1668E+03
     13.647  0.4050E+01  0.1674E+03
     13.758  0.2363E+01  0.1677E+03
     13.869  0.8893E+00  0.1679E+03
     13.980  0.2591E+00  0.1680E+03
     14.091  0.1332E+00  0.1680E+03
     14.202  0.6884E-01  0.1680E+03
     14.313  0.4398E-01  0.1680E+03
     14.424  0.2466E-01  0.1680E+03
     14.535  0.1090E-01  0.1680E+03
     14.646  0.2675E-02  0.1680E+03
     14.757  0.0000E+00  0.1680E+03
     14.868  0.0000E+00  0.1680E+03
     14.979  0.0000E+00  0.1680E+03
     15.090  0.0000E+00  0.1680E+03
     15.201  0.0000E+00  0.1680E+03
     15.312  0.0000E+00  0.1680E+03
     15.423  0.0000E+00  0.1680E+03
     15.534  0.0000E+00  0.1680E+03
     15.645  0.0000E+00  0.1680E+03
     15.756  0.0000E+00  0.1680E+03
     15.867  0.0000E+00  0.1680E+03
     15.978  0.0000E+00  0.1680E+03
     16.089  0.0000E+00  0.1680E+03
     16.200  0.0000E+00  0.1680E+03
     16.311  0.0000E+00  0.1680E+03
     16.422  0.0000E+00  0.1680E+03
     16.533  0.0000E+00  0.1680E+03
     16.644  0.0000E+00  0.1680E+03
     16.755  0.0000E+00  0.1680E+03
