   32   32    1    1
  0.8863011E+01  0.4934311E-09  0.4934311E-09  0.1345148E-08  0.5000000E-15
  1.000000000000000E-004
  CAR 
 graphite                                
    128    163     84
 
  0.0000000E+00  0.0000000E+00  0.0000000E+00  0.3086420E-02
    1      -14.969309
    2      -14.826980
    3      -14.826583
    4      -14.674463
    5       -9.648952
    6       -9.646789
    7       -9.644929
    8       -9.591134
    9       -9.587283
   10       -9.586875
   11       -9.586442
   12       -9.586428
   13       -9.582598
   14       -9.538982
   15       -9.536774
   16       -9.534031
   17       -8.572912
   18       -8.571094
   19       -8.569485
   20       -8.542018
   21       -8.539779
   22       -8.538712
   23       -8.538288
   24       -8.538237
   25       -8.535449
   26       -8.489154
   27       -8.487972
   28       -8.486669
   29       -3.832882
   30       -2.956777
   31       -2.955133
   32       -1.889901
   33       -1.745631
   34       -1.743176
   35       -1.742143
   36       -1.719600
   37       -1.717234
   38       -1.717225
   39       -1.715876
   40       -1.714083
   41       -1.713192
   42       -1.690634
   43       -1.688185
   44       -1.687034
   45        1.643740
   46        1.648404
   47        1.655541
   48        1.655562
   49        1.660171
   50        1.660331
   51        1.667459
   52        1.671708
   53        1.895662
   54        1.897173
   55        1.898502
   56        2.293959
   57        2.298002
   58        2.298324
   59        2.298412
   60        2.298863
   61        2.302723
   62        2.572939
   63        2.575152
   64        2.577333
   65        6.160988
   66        6.163172
   67        6.165169
   68        6.300831
   69        6.304252
   70        6.305951
   71        6.306422
   72        6.306599
   73        6.310411
   74        6.827088
   75        6.828603
   76        6.829976
   77        8.938744
   78       11.555453
   79       11.559284
   80       11.843968
   81       11.847772
   82       11.850842
   83       12.034158
   84       12.036879
 
  0.1111111E+00 -0.2081668E-16  0.0000000E+00  0.6172840E-02
    1      -14.895764
    2      -14.753937
    3      -14.753541
    4      -14.602170
    5      -10.440767
    6      -10.339328
    7      -10.339010
    8      -10.233681
    9       -9.896751
   10       -9.894368
   11       -9.810261
   12       -9.807837
   13       -9.807095
   14       -9.805509
   15       -9.720802
   16       -9.718159
   17       -8.268592
   18       -8.267100
   19       -8.199340
   20       -8.198847
   21       -8.197753
   22       -8.195820
   23       -8.121104
   24       -8.119591
   25       -7.757948
   26       -7.679269
   27       -7.677323
   28       -7.594529
   29       -3.743578
   30       -2.869754
   31       -2.868113
   32       -1.971788
   33       -1.968955
   34       -1.942646
   35       -1.940858
   36       -1.938555
   37       -1.937778
   38       -1.910759
   39       -1.908061
   40       -1.806401
   41       -1.670986
   42       -1.645048
   43       -1.642548
   44       -1.616496
   45        1.305600
   46        1.344405
   47        1.356723
   48        1.361159
   49        1.372200
   50        1.490599
   51        1.500654
   52        1.504975
   53        1.516751
   54        1.779673
   55        1.781648
   56        1.872141
   57        1.874758
   58        2.242500
   59        2.246568
   60        2.247003
   61        2.247971
   62        2.430995
   63        2.624846
   64        2.627516
   65        6.238032
   66        6.240132
   67        6.434757
   68        6.436030
   69        6.437213
   70        6.440958
   71        6.526225
   72        6.842379
   73        6.846458
   74        6.962222
   75        6.963964
   76        7.425968
   77        9.027484
   78       11.632210
   79       11.635972
   80       11.887423
   81       12.073778
   82       12.074784
   83       12.179115
   84       12.184649
 
  0.2222222E+00 -0.1387779E-16  0.0000000E+00  0.6172840E-02
    1      -14.675330
    2      -14.535335
    3      -14.534941
    4      -14.385650
    5      -11.450654
    6      -11.337535
    7      -11.337192
    8      -11.218545
    9      -10.243845
   10      -10.241854
   11      -10.145186
   12      -10.143319
   13      -10.142758
   14      -10.141222
   15      -10.040553
   16      -10.038449
   17       -7.588621
   18       -7.586994
   19       -7.512121
   20       -7.511692
   21       -7.510390
   22       -7.508670
   23       -7.430413
   24       -7.428677
   25       -6.434343
   26       -6.360757
   27       -6.358902
   28       -6.282439
   29       -3.476521
   30       -2.609969
   31       -2.608341
   32       -2.578350
   33       -2.575757
   34       -2.542381
   35       -2.540618
   36       -2.538623
   37       -2.537735
   38       -2.502869
   39       -2.500358
   40       -1.556975
   41       -1.456131
   42       -1.430944
   43       -1.428361
   44       -1.402786
   45        0.286926
   46        0.518557
   47        0.538211
   48        0.542592
   49        0.562146
   50        0.984044
   51        0.986069
   52        1.071268
   53        1.085684
   54        1.089956
   55        1.105042
   56        1.559089
   57        1.561110
   58        1.775030
   59        2.121269
   60        2.125225
   61        2.125602
   62        2.126706
   63        2.680874
   64        2.683418
   65        6.482309
   66        6.484415
   67        6.768145
   68        6.769230
   69        6.770434
   70        6.774304
   71        7.267370
   72        7.269603
   73        7.652263
   74        8.063557
   75        8.066917
   76        8.636866
   77        9.294404
   78       11.861092
   79       11.864615
   80       12.003612
   81       12.183299
   82       12.184574
   83       12.347764
   84       13.021991
 
  0.3333333E+00 -0.2775558E-16  0.0000000E+00  0.6172840E-02
    1      -14.309204
    2      -14.172201
    3      -14.171810
    4      -14.025979
    5      -12.362637
    6      -12.241715
    7      -12.241345
    8      -12.113528
    9      -10.500641
   10      -10.498840
   11      -10.397290
   12      -10.395575
   13      -10.395230
   14      -10.393642
   15      -10.287642
   16      -10.285768
   17       -6.781430
   18       -6.779584
   19       -6.711019
   20       -6.710518
   21       -6.709222
   22       -6.707180
   23       -6.636943
   24       -6.634959
   25       -5.002117
   26       -4.938493
   27       -4.936400
   28       -4.870721
   29       -3.393760
   30       -3.391483
   31       -3.351251
   32       -3.349260
   33       -3.347919
   34       -3.346745
   35       -3.304537
   36       -3.302324
   37       -3.034290
   38       -2.180521
   39       -2.178910
   40       -1.145695
   41       -1.107563
   42       -1.083471
   43       -1.080720
   44       -1.055972
   45       -0.733582
   46       -0.665873
   47       -0.635829
   48       -0.632279
   49       -0.602138
   50        0.031858
   51        0.033612
   52        0.509096
   53        0.527197
   54        0.531104
   55        0.549812
   56        0.933918
   57        1.367708
   58        1.369705
   59        1.997122
   60        2.000976
   61        2.001312
   62        2.002512
   63        2.686049
   64        2.688527
   65        6.837869
   66        6.840103
   67        7.158043
   68        7.159034
   69        7.160033
   70        7.164216
   71        7.571747
   72        7.574312
   73        9.156038
   74        9.539468
   75        9.542727
   76        9.739760
   77       10.042869
   78       12.007762
   79       12.219882
   80       12.222670
   81       12.265560
   82       12.350789
   83       12.352416
   84       12.647274
 
  0.4444444E+00 -0.2775558E-16  0.0000000E+00  0.6172840E-02
    1      -13.799279
    2      -13.666533
    3      -13.666138
    4      -13.525083
    5      -13.148660
    6      -13.021257
    7      -13.020883
    8      -12.885865
    9      -10.633075
   10      -10.631356
   11      -10.528171
   12      -10.526442
   13      -10.526321
   14      -10.524643
   15      -10.416378
   16      -10.414596
   17       -6.033544
   18       -6.031655
   19       -5.982781
   20       -5.982054
   21       -5.981583
   22       -5.978182
   23       -5.931297
   24       -5.929023
   25       -4.142661
   26       -4.140857
   27       -4.108205
   28       -4.105407
   29       -4.105112
   30       -4.103677
   31       -4.066001
   32       -4.064428
   33       -3.522553
   34       -3.470171
   35       -3.467699
   36       -3.413725
   37       -2.421957
   38       -2.051401
   39       -2.010800
   40       -2.007740
   41       -1.965357
   42       -1.649063
   43       -1.587013
   44       -1.585280
   45       -0.842450
   46       -0.840785
   47       -0.642010
   48       -0.619030
   49       -0.616039
   50       -0.592721
   51       -0.580401
   52       -0.087313
   53       -0.066298
   54       -0.062775
   55       -0.041317
   56        0.123279
   57        1.261690
   58        1.263665
   59        1.922395
   60        1.926188
   61        1.926506
   62        1.927757
   63        2.672910
   64        2.675361
   65        7.121788
   66        7.124144
   67        7.423929
   68        7.425023
   69        7.425532
   70        7.430127
   71        7.740437
   72        7.743208
   73       10.360258
   74       10.777846
   75       11.076003
   76       11.080076
   77       11.148602
   78       11.496749
   79       12.369371
   80       12.402825
   81       12.412115
   82       12.460594
   83       12.543405
   84       12.545910
 
 -0.8470329E-21  0.1111111E+00  0.0000000E+00  0.6172840E-02
    1      -14.895762
    2      -14.753935
    3      -14.753539
    4      -14.602168
    5      -10.440874
    6      -10.339457
    7      -10.339135
    8      -10.233831
    9       -9.896748
   10       -9.894042
   11       -9.810013
   12       -9.807843
   13       -9.807099
   14       -9.804980
   15       -9.720600
   16       -9.717932
   17       -8.269760
   18       -8.267326
   19       -8.201481
   20       -8.199307
   21       -8.197756
   22       -8.195685
   23       -8.122224
   24       -8.119570
   25       -7.756920
   26       -7.677437
   27       -7.677200
   28       -7.593591
   29       -3.743583
   30       -2.869759
   31       -2.868118
   32       -1.970288
   33       -1.969188
   34       -1.940867
   35       -1.940650
   36       -1.938149
   37       -1.937774
   38       -1.909343
   39       -1.908250
   40       -1.806407
   41       -1.672080
   42       -1.645077
   43       -1.644977
   44       -1.617906
   45        1.304986
   46        1.348335
   47        1.360937
   48        1.361166
   49        1.373714
   50        1.489148
   51        1.500647
   52        1.500852
   53        1.512372
   54        1.779981
   55        1.782361
   56        1.871654
   57        1.873292
   58        2.243538
   59        2.246541
   60        2.246748
   61        2.249742
   62        2.429726
   63        2.625445
   64        2.628383
   65        6.236787
   66        6.239166
   67        6.432447
   68        6.435196
   69        6.437302
   70        6.439800
   71        6.528315
   72        6.845267
   73        6.847076
   74        6.960810
   75        6.963372
   76        7.427603
   77        9.027478
   78       11.632180
   79       11.635942
   80       11.886778
   81       12.073233
   82       12.073949
   83       12.180456
   84       12.184249
 
  0.1111111E+00  0.1111111E+00  0.0000000E+00  0.6172840E-02
    1      -14.748756
    2      -14.608149
    3      -14.607754
    4      -14.457755
    5      -10.904759
    6      -10.901762
    7      -10.798496
    8      -10.795460
    9      -10.795430
   10      -10.792457
   11      -10.684013
   12      -10.680948
   13       -9.459310
   14       -9.401074
   15       -9.399535
   16       -9.351154
   17       -8.387039
   18       -8.357601
   19       -8.354429
   20       -8.307407
   21       -7.076924
   22       -7.073606
   23       -7.001275
   24       -6.997166
   25       -6.997139
   26       -6.994798
   27       -6.918153
   28       -6.914946
   29       -3.565401
   30       -2.696417
   31       -2.694782
   32       -2.651690
   33       -2.615073
   34       -2.612710
   35       -2.575438
   36       -1.826431
   37       -1.824007
   38       -1.797436
   39       -1.795922
   40       -1.795913
   41       -1.792153
   42       -1.766530
   43       -1.763543
   44       -1.639918
   45        0.813010
   46        0.825796
   47        0.830683
   48        0.841185
   49        0.872147
   50        0.873488
   51        1.178651
   52        1.186850
   53        1.191092
   54        1.202205
   55        1.512807
   56        1.514803
   57        1.514892
   58        1.518346
   59        2.162587
   60        2.209174
   61        2.211688
   62        2.561149
   63        2.564265
   64        2.834184
   65        6.145638
   66        6.230247
   67        6.234724
   68        6.653729
   69        7.005669
   70        7.008541
   71        7.382978
   72        7.387477
   73        7.387677
   74        7.389122
   75        7.951902
   76        7.954476
   77        9.205498
   78       11.786428
   79       11.790052
   80       12.258265
   81       12.262225
   82       12.444115
   83       12.446525
   84       12.449304
 
  0.2222222E+00  0.1111111E+00  0.0000000E+00  0.6172840E-02
    1      -14.455456
    2      -14.317255
    3      -14.316862
    4      -14.169666
    5      -11.869149
    6      -11.752463
    7      -11.752103
    8      -11.629217
    9      -11.244339
   10      -11.133247
   11      -11.132929
   12      -11.016074
   13       -9.510808
   14       -9.426928
   15       -9.426047
   16       -9.341672
   17       -7.922197
   18       -7.858403
   19       -7.855823
   20       -7.785035
   21       -6.292603
   22       -6.221528
   23       -6.221221
   24       -6.147479
   25       -5.695461
   26       -5.627466
   27       -5.625612
   28       -5.555347
   29       -3.558042
   30       -3.513375
   31       -3.511070
   32       -3.465072
   33       -3.210684
   34       -2.352768
   35       -2.351627
   36       -2.350002
   37       -2.317013
   38       -2.316578
   39       -2.280049
   40       -1.538421
   41       -1.510735
   42       -1.508221
   43       -1.480134
   44       -1.309428
   45       -0.169856
   46       -0.138569
   47       -0.118331
   48       -0.113737
   49       -0.094312
   50        0.537090
   51        0.564832
   52        0.566627
   53        0.633591
   54        0.646918
   55        0.651804
   56        0.666962
   57        1.227380
   58        1.228992
   59        1.417840
   60        2.010447
   61        2.298827
   62        2.762853
   63        2.765860
   64        3.143139
   65        6.120070
   66        6.237558
   67        6.241771
   68        6.595151
   69        7.580127
   70        7.955875
   71        7.957667
   72        8.356250
   73        8.440302
   74        8.753428
   75        8.756347
   76        9.271542
   77        9.562553
   78       12.092193
   79       12.095454
   80       12.382564
   81       12.585498
   82       12.586744
   83       12.621172
   84       12.992231
 
  0.3333333E+00  0.1111111E+00  0.0000000E+00  0.6172840E-02
    1      -14.017425
    2      -13.882844
    3      -13.882451
    4      -13.739359
    5      -12.718755
    6      -12.594868
    7      -12.594499
    8      -12.463505
    9      -11.452239
   10      -11.339083
   11      -11.338759
   12      -11.219840
   13       -9.655569
   14       -9.561665
   15       -9.561216
   16       -9.463741
   17       -7.158100
   18       -7.094016
   19       -7.091608
   20       -7.024866
   21       -5.493868
   22       -5.435468
   23       -5.434501
   24       -5.374759
   25       -4.492894
   26       -4.446704
   27       -4.444214
   28       -4.395270
   29       -4.247037
   30       -4.189934
   31       -4.187847
   32       -4.129174
   33       -3.051876
   34       -3.013841
   35       -3.012598
   36       -2.972323
   37       -2.683127
   38       -1.840445
   39       -1.838895
   40       -1.383841
   41       -1.350665
   42       -1.346599
   43       -1.314366
   44       -1.143233
   45       -1.122401
   46       -1.096212
   47       -1.093581
   48       -1.067086
   49       -0.820689
   50       -0.357436
   51       -0.355765
   52        0.008657
   53        0.027951
   54        0.032202
   55        0.052318
   56        0.328318
   57        0.577197
   58        1.044339
   59        1.045994
   60        1.874240
   61        2.297235
   62        2.852441
   63        2.855030
   64        3.412463
   65        6.109728
   66        6.355454
   67        6.358964
   68        6.692043
   69        8.088150
   70        8.410579
   71        8.412569
   72        8.767615
   73        9.919842
   74       10.097037
   75       10.258335
   76       10.260938
   77       10.690997
   78       11.672984
   79       12.497828
   80       12.501189
   81       12.659589
   82       12.761336
   83       12.763006
   84       13.005615
 
  0.4444444E+00  0.1111111E+00  0.0000000E+00  0.6172840E-02
    1      -13.438678
    2      -13.435864
    3      -13.310101
    4      -13.307213
    5      -13.307089
    6      -13.304431
    7      -13.170721
    8      -13.167852
    9      -11.521883
   10      -11.408255
   11      -11.407928
   12      -11.288341
   13       -9.711431
   14       -9.615586
   15       -9.615261
   16       -9.515400
   17       -6.652982
   18       -6.612101
   19       -6.609888
   20       -6.571181
   21       -5.016568
   22       -5.007423
   23       -4.984052
   24       -4.982873
   25       -4.981366
   26       -4.979804
   27       -4.950545
   28       -4.947898
   29       -3.471185
   30       -3.449540
   31       -3.446440
   32       -3.419716
   33       -2.788328
   34       -2.784867
   35       -2.744386
   36       -2.738744
   37       -2.738686
   38       -2.738431
   39       -2.693679
   40       -2.691044
   41       -1.990877
   42       -1.988613
   43       -1.171849
   44       -1.169437
   45       -1.169297
   46       -1.166124
   47       -0.597847
   48       -0.594240
   49       -0.573698
   50       -0.572162
   51       -0.572097
   52       -0.564817
   53       -0.547577
   54       -0.540795
   55       -0.186030
   56       -0.183386
   57        0.257267
   58        0.981549
   59        0.983281
   60        1.826163
   61        2.285380
   62        2.874710
   63        2.876833
   64        3.511164
   65        6.117725
   66        6.421915
   67        6.424575
   68        6.746117
   69        8.309187
   70        8.588939
   71        8.591320
   72        8.869757
   73       10.804986
   74       10.805988
   75       11.510734
   76       11.514241
   77       11.746783
   78       11.752032
   79       11.753065
   80       11.755988
   81       12.103844
   82       12.107090
   83       12.872818
   84       12.881206
 
 -0.4444444E+00  0.1111111E+00  0.0000000E+00  0.6172840E-02
    1      -14.017511
    2      -13.882927
    3      -13.882540
    4      -13.739445
    5      -12.718617
    6      -12.594734
    7      -12.594357
    8      -12.463367
    9      -11.452448
   10      -11.339292
   11      -11.338967
   12      -11.220050
   13       -9.655209
   14       -9.561210
   15       -9.560921
   16       -9.463347
   17       -7.157396
   18       -7.092488
   19       -7.091816
   20       -7.024258
   21       -5.494970
   22       -5.437253
   23       -5.434770
   24       -5.375700
   25       -4.493953
   26       -4.447010
   27       -4.446208
   28       -4.396490
   29       -4.247365
   30       -4.190426
   31       -4.187984
   32       -4.129476
   33       -3.050631
   34       -3.013348
   35       -3.010299
   36       -2.970819
   37       -2.683226
   38       -1.840539
   39       -1.838994
   40       -1.383440
   41       -1.349784
   42       -1.347082
   43       -1.314311
   44       -1.143084
   45       -1.122125
   46       -1.096117
   47       -1.093038
   48       -1.066699
   49       -0.820786
   50       -0.357311
   51       -0.355602
   52        0.008651
   53        0.028448
   54        0.031252
   55        0.051636
   56        0.328083
   57        0.577331
   58        1.043981
   59        1.045821
   60        1.873927
   61        2.297575
   62        2.853312
   63        2.855110
   64        3.413222
   65        6.109560
   66        6.356235
   67        6.358235
   68        6.692026
   69        8.087713
   70        8.409807
   71        8.412627
   72        8.767475
   73        9.919736
   74       10.096906
   75       10.258026
   76       10.260974
   77       10.690850
   78       11.673184
   79       12.497747
   80       12.501097
   81       12.659297
   82       12.760764
   83       12.763137
   84       13.005018
 
 -0.3333333E+00  0.1111111E+00  0.0000000E+00  0.6172840E-02
    1      -14.455517
    2      -14.317314
    3      -14.316925
    4      -14.169726
    5      -11.868982
    6      -11.752295
    7      -11.751932
    8      -11.629045
    9      -11.244769
   10      -11.133676
   11      -11.133358
   12      -11.016504
   13       -9.509988
   14       -9.425748
   15       -9.425495
   16       -9.340747
   17       -7.921772
   18       -7.856817
   19       -7.856596
   20       -7.784616
   21       -6.293668
   22       -6.223396
   23       -6.221397
   24       -6.148454
   25       -5.695779
   26       -5.627876
   27       -5.625823
   28       -5.555651
   29       -3.559459
   30       -3.513830
   31       -3.513593
   32       -3.466620
   33       -3.210755
   34       -2.351839
   35       -2.351072
   36       -2.350003
   37       -2.316394
   38       -2.313695
   39       -2.278200
   40       -1.538210
   41       -1.510610
   42       -1.507890
   43       -1.479882
   44       -1.309498
   45       -0.169626
   46       -0.138024
   47       -0.117142
   48       -0.115181
   49       -0.094820
   50        0.536684
   51        0.564945
   52        0.566756
   53        0.634300
   54        0.648399
   55        0.650788
   56        0.665753
   57        1.226678
   58        1.228662
   59        1.417962
   60        2.009816
   61        2.299454
   62        2.764397
   63        2.766077
   64        3.144452
   65        6.119851
   66        6.238770
   67        6.240566
   68        6.595158
   69        7.579591
   70        7.954653
   71        7.957830
   72        8.356124
   73        8.439966
   74        8.753061
   75        8.756373
   76        9.271362
   77        9.562457
   78       12.092082
   79       12.095335
   80       12.382430
   81       12.585089
   82       12.586778
   83       12.621223
   84       12.992131
 
 -0.2222222E+00  0.1111111E+00  0.0000000E+00  0.6172840E-02
    1      -14.748793
    2      -14.608184
    3      -14.607791
    4      -14.457791
    5      -10.903852
    6      -10.903027
    7      -10.796290
    8      -10.795971
    9      -10.795418
   10      -10.795103
   11      -10.683194
   12      -10.682344
   13       -9.457865
   14       -9.398909
   15       -9.398733
   16       -9.349648
   17       -8.386993
   18       -8.356200
   19       -8.356084
   20       -8.307622
   21       -7.075928
   22       -7.075576
   23       -6.999291
   24       -6.998879
   25       -6.997401
   26       -6.997026
   27       -6.917338
   28       -6.916981
   29       -3.565444
   30       -2.696461
   31       -2.694825
   32       -2.653276
   33       -2.615633
   34       -2.615507
   35       -2.577190
   36       -1.824396
   37       -1.823978
   38       -1.795826
   39       -1.795423
   40       -1.793300
   41       -1.792808
   42       -1.764295
   43       -1.763897
   44       -1.639960
   45        0.814305
   46        0.826775
   47        0.827550
   48        0.839415
   49        0.871669
   50        0.873583
   51        1.180400
   52        1.190018
   53        1.190070
   54        1.200711
   55        1.512640
   56        1.514846
   57        1.514923
   58        1.517187
   59        2.163374
   60        2.208986
   61        2.211068
   62        2.562980
   63        2.564667
   64        2.835705
   65        6.145483
   66        6.231575
   67        6.233436
   68        6.653799
   69        7.006081
   70        7.007619
   71        7.383600
   72        7.385715
   73        7.387358
   74        7.389232
   75        7.952245
   76        7.953548
   77        9.205439
   78       11.786350
   79       11.789973
   80       12.260527
   81       12.263685
   82       12.446745
   83       12.447825
   84       12.449599
 
 -0.1111111E+00  0.1111111E+00  0.0000000E+00  0.6172840E-02
    1      -14.895775
    2      -14.753947
    3      -14.753552
    4      -14.602180
    5      -10.441755
    6      -10.340404
    7      -10.339974
    8      -10.234739
    9       -9.895771
   10       -9.893649
   11       -9.808935
   12       -9.806961
   13       -9.806917
   14       -9.804344
   15       -9.719784
   16       -9.717313
   17       -8.269520
   18       -8.267481
   19       -8.201046
   20       -8.197963
   21       -8.197922
   22       -8.197284
   23       -8.121814
   24       -8.120064
   25       -7.757515
   26       -7.678869
   27       -7.676915
   28       -7.594140
   29       -3.743597
   30       -2.869774
   31       -2.868132
   32       -1.971700
   33       -1.969515
   34       -1.942050
   35       -1.940830
   36       -1.940820
   37       -1.937253
   38       -1.910987
   39       -1.908273
   40       -1.806422
   41       -1.670382
   42       -1.644441
   43       -1.641900
   44       -1.615932
   45        1.304222
   46        1.346562
   47        1.357684
   48        1.362174
   49        1.374716
   50        1.487942
   51        1.499684
   52        1.504162
   53        1.514150
   54        1.780803
   55        1.782560
   56        1.870255
   57        1.872736
   58        2.245289
   59        2.246318
   60        2.246654
   61        2.250685
   62        2.428503
   63        2.626328
   64        2.628955
   65        6.236328
   66        6.239545
   67        6.431920
   68        6.437133
   69        6.437403
   70        6.438555
   71        6.528102
   72        6.843876
   73        6.847741
   74        6.960856
   75        6.963385
   76        7.427271
   77        9.027458
   78       11.632151
   79       11.635915
   80       11.890647
   81       12.076742
   82       12.078248
   83       12.178365
   84       12.182157
 
 -0.1694066E-20  0.2222222E+00  0.0000000E+00  0.6172840E-02
    1      -14.675323
    2      -14.535326
    3      -14.534935
    4      -14.385642
    5      -11.450636
    6      -11.337517
    7      -11.337182
    8      -11.218535
    9      -10.244229
   10      -10.241416
   11      -10.145835
   12      -10.143325
   13      -10.142762
   14      -10.140323
   15      -10.040823
   16      -10.037998
   17       -7.589913
   18       -7.586944
   19       -7.514489
   20       -7.512086
   21       -7.510389
   22       -7.508092
   23       -7.431566
   24       -7.428486
   25       -6.433401
   26       -6.359027
   27       -6.358803
   28       -6.281546
   29       -3.476540
   30       -2.609991
   31       -2.608359
   32       -2.577249
   33       -2.575595
   34       -2.540984
   35       -2.540607
   36       -2.537754
   37       -2.537474
   38       -2.501780
   39       -2.500116
   40       -1.557003
   41       -1.457283
   42       -1.430995
   43       -1.430905
   44       -1.404282
   45        0.286479
   46        0.521475
   47        0.542447
   48        0.542607
   49        0.563874
   50        0.983684
   51        0.985284
   52        1.069604
   53        1.085622
   54        1.085700
   55        1.101641
   56        1.559195
   57        1.561948
   58        1.774255
   59        2.121998
   60        2.125210
   61        2.125362
   62        2.128557
   63        2.681391
   64        2.684322
   65        6.480901
   66        6.483670
   67        6.765448
   68        6.768635
   69        6.770460
   70        6.773392
   71        7.265676
   72        7.269157
   73        7.653838
   74        8.065672
   75        8.067455
   76        8.638118
   77        9.294388
   78       11.860982
   79       11.864507
   80       12.002935
   81       12.182932
   82       12.183556
   83       12.347065
   84       13.020337
 
  0.1111111E+00  0.2222222E+00  0.0000000E+00  0.6172840E-02
    1      -14.455451
    2      -14.317248
    3      -14.316858
    4      -14.169660
    5      -11.869110
    6      -11.752414
    7      -11.752076
    8      -11.629181
    9      -11.244367
   10      -11.133273
   11      -11.132953
   12      -11.016096
   13       -9.510796
   14       -9.426904
   15       -9.426047
   16       -9.341659
   17       -7.922264
   18       -7.858403
   19       -7.855992
   20       -7.785139
   21       -6.293634
   22       -6.223288
   23       -6.221478
   24       -6.148473
   25       -5.694434
   26       -5.625668
   27       -5.625403
   28       -5.554361
   29       -3.557946
   30       -3.513215
   31       -3.511070
   32       -3.465005
   33       -3.210698
   34       -2.351822
   35       -2.351357
   36       -2.350009
   37       -2.316586
   38       -2.314372
   39       -2.278636
   40       -1.539675
   41       -1.510987
   42       -1.510726
   43       -1.481678
   44       -1.309449
   45       -0.170146
   46       -0.136960
   47       -0.116358
   48       -0.113735
   49       -0.093652