   32   32    1    1
  0.3545204E+01  0.4934311E-09  0.4934311E-09  0.5380594E-09  0.5000000E-15
  1.000000000000000E-004
  CAR 
 graphite                                
    128    163     84
 
  0.0000000E+00  0.0000000E+00  0.0000000E+00  0.3086420E-02
    1      -11.141485
    2       -7.215343
    3       -7.208573
    4       -5.667472
    5       -5.666623
    6       -5.665918
    7       -3.973888
    8       -3.971615
    9       -3.970873
   10       -2.106399
   11       -2.093499
   12       -2.092509
   13       -2.090613
   14       -2.089537
   15       -2.076463
   16        0.442483
   17        0.445633
   18        0.449866
   19        0.451957
   20        0.456761
   21        0.459495
   22        1.310147
   23        4.181499
   24        4.183450
   25        4.187623
   26        5.149717
   27        5.150424
   28        5.151004
   29        8.508742
   30        8.515160
   31        8.520953
   32        8.522339
   33        8.527244
   34        8.533892
   35        8.769605
   36        8.913425
   37        8.923773
   38       11.122220
   39       11.129008
   40       11.135624
   41       12.223688
   42       12.237884
   43       12.240662
   44       12.254825
   45       12.949800
   46       12.951526
   47       12.952124
   48       13.378837
   49       13.382289
   50       13.382987
   51       13.624635
   52       13.635899
   53       16.129240
   54       16.136303
   55       16.142914
   56       16.274523
   57       16.282369
   58       16.284799
   59       16.285025
   60       16.286529
   61       16.294117
   62       16.368980
   63       16.378618
   64       16.386723
   65       19.316078
   66       19.340748
   67       20.854509
   68       20.870504
   69       21.474107
   70       21.475570
   71       21.479229
   72       22.276397
   73       22.276641
   74       22.525489
   75       22.540778
   76       22.542451
   77       22.557494
   78       24.187249
   79       24.217119
   80       24.218249
   81       24.220652
   82       24.221225
   83       24.251709
   84       25.137657
 
  0.1111111E+00  0.2081668E-16  0.0000000E+00  0.6172840E-02
    1      -11.063517
    2       -7.137640
    3       -7.130853
    4       -6.359773
    5       -5.841281
    6       -5.838578
    7       -3.660550
    8       -3.657102
    9       -3.141085
   10       -2.621409
   11       -2.613467
   12       -2.205784
   13       -2.196923
   14       -2.194598
   15       -2.187422
   16        0.684707
   17        0.690539
   18        0.694157
   19        0.698817
   20        1.106000
   21        1.114575
   22        1.387217
   23        3.821940
   24        3.826694
   25        4.265316
   26        4.950155
   27        5.131268
   28        5.132656
   29        8.123199
   30        8.129345
   31        8.133247
   32        8.142455
   33        8.364800
   34        8.584404
   35        8.596385
   36        8.604060
   37        8.815877
   38       10.996690
   39       11.247615
   40       11.255845
   41       11.793885
   42       11.808675
   43       12.043247
   44       12.058157
   45       12.998128
   46       13.000257
   47       13.008696
   48       13.522475
   49       13.526557
   50       13.689815
   51       13.764108
   52       13.969468
   53       16.041083
   54       16.049907
   55       16.159657
   56       16.341304
   57       16.349309
   58       16.585214
   59       16.735626
   60       16.742994
   61       16.744463
   62       16.752001
   63       16.786254
   64       16.798239
   65       19.361725
   66       19.383413
   67       20.671746
   68       21.093340
   69       21.153117
   70       21.157804
   71       21.367939
   72       21.375036
   73       21.576751
   74       22.889694
   75       22.903670
   76       23.822651
   77       23.831472
   78       24.107373
   79       24.134814
   80       24.136752
   81       24.144461
   82       24.147024
   83       24.173976
   84       24.546887
 
  0.2222222E+00  0.1387779E-16  0.0000000E+00  0.6172840E-02
    1      -10.829915
    2       -7.403739
    3       -6.904890
    4       -6.898037
    5       -6.148775
    6       -6.145341
    7       -3.560342
    8       -3.552666
    9       -2.935278
   10       -2.931072
   11       -2.422523
   12       -2.413742
   13       -2.412463
   14       -2.405304
   15       -1.689002
   16        1.304953
   17        1.310472
   18        1.314409
   19        1.319004
   20        1.616326
   21        2.435724
   22        2.444798
   23        2.918268
   24        2.923348
   25        4.437578
   26        4.516212
   27        5.084505
   28        5.086568
   29        7.017761
   30        7.175203
   31        7.181459
   32        7.184748
   33        7.194058
   34        7.856610
   35        8.817048
   36        8.829063
   37        8.950776
   38       10.645787
   39       10.657336
   40       10.668040
   41       11.427109
   42       11.433692
   43       11.566129
   44       11.580068
   45       13.151550
   46       13.237385
   47       13.241378
   48       13.922164
   49       13.926325
   50       13.930088
   51       14.512558
   52       14.734757
   53       15.773066
   54       15.781632
   55       16.229888
   56       16.525835
   57       16.533881
   58       17.165371
   59       17.869598
   60       17.876252
   61       17.878476
   62       17.887150
   63       17.942042
   64       17.953597
   65       19.096930
   66       19.109984
   67       20.107277
   68       20.344515
   69       20.349161
   70       21.161592
   71       21.177048
   72       21.542559
   73       21.883020
   74       23.766441
   75       23.852635
   76       23.862080
   77       23.874344
   78       23.878832
   79       23.890190
   80       23.903978
   81       23.906470
   82       23.930385
   83       24.791224
   84       25.387893
 
  0.3333333E+00  0.1110223E-15  0.0000000E+00  0.6172840E-02
    1      -10.441499
    2       -8.371171
    3       -6.519054
    4       -6.512069
    5       -6.397329
    6       -6.393753
    7       -4.483828
    8       -4.476401
    9       -2.618202
   10       -2.609446
   11       -2.608876
   12       -2.601749
   13       -2.015311
   14       -2.010852
   15       -0.053824
   16        1.780975
   17        1.786097
   18        1.989571
   19        2.139116
   20        2.144741
   21        2.148763
   22        2.153624
   23        3.778723
   24        3.998495
   25        4.008163
   26        4.929121
   27        5.033129
   28        5.035735
   29        5.320945
   30        6.029873
   31        6.036603
   32        6.039191
   33        6.048130
   34        7.008234
   35        9.109181
   36        9.121232
   37        9.172132
   38        9.187914
   39        9.199808
   40       10.252890
   41       10.938212
   42       10.951724
   43       11.484978
   44       11.489620
   45       13.343683
   46       13.702309
   47       13.708265
   48       13.917143
   49       14.489437
   50       14.494259
   51       15.362129
   52       15.370249
   53       15.512112
   54       15.649158
   55       16.297286
   56       16.833250
   57       16.841385
   58       18.015087
   59       18.455710
   60       18.465168
   61       19.239865
   62       19.261068
   63       19.265129
   64       19.268282
   65       19.279249
   66       19.378931
   67       19.382890
   68       19.668965
   69       19.680239
   70       21.194403
   71       21.638387
   72       21.658840
   73       22.396709
   74       23.419305
   75       23.448857
   76       23.450780
   77       23.453233
   78       23.456211
   79       23.484677
   80       24.089899
   81       24.907229
   82       24.968453
   83       25.302316
   84       25.315248
 
  0.4444444E+00  0.2775558E-16  0.0000000E+00  0.6172840E-02
    1       -9.899816
    2       -9.207519
    3       -6.530062
    4       -6.526303
    5       -5.981816
    6       -5.974764
    7       -5.300087
    8       -5.292871
    9       -2.727186
   10       -2.718494
   11       -2.718281
   12       -2.711079
   13       -1.079861
   14       -1.075646
   15        0.708160
   16        0.712788
   17        1.694622
   18        2.493473
   19        2.970133
   20        2.976987
   21        2.980468
   22        2.985957
   23        3.105129
   24        3.507583
   25        4.997063
   26        5.002543
   27        5.020596
   28        5.026962
   29        5.027708
   30        5.038441
   31        5.495769
   32        5.678916
   33        5.689392
   34        6.199395
   35        7.409841
   36        7.421155
   37        9.472994
   38        9.685920
   39        9.698515
   40        9.841129
   41       10.285340
   42       10.298098
   43       11.480152
   44       11.484331
   45       13.561291
   46       13.771028
   47       14.261047
   48       14.268390
   49       14.857187
   50       14.864273
   51       14.977368
   52       14.982187
   53       16.045045
   54       16.276472
   55       16.910733
   56       17.262251
   57       17.270516
   58       17.809277
   59       17.817934
   60       18.147106
   61       18.655686
   62       18.658361
   63       19.041848
   64       20.156866
   65       20.450876
   66       20.452611
   67       20.456048
   68       20.468775
   69       21.798574
   70       21.809597
   71       22.282628
   72       22.304623
   73       22.818770
   74       22.846391
   75       22.847792
   76       22.860513
   77       22.911654
   78       22.934736
   79       23.114244
   80       24.002618
   81       24.193555
   82       24.204159
   83       25.365929
   84       25.572639
 
 -0.8470329E-21  0.1111111E+00  0.0000000E+00  0.6172840E-02
    1      -11.063520
    2       -7.137640
    3       -7.130851
    4       -6.359926
    5       -5.842351
    6       -5.837345
    7       -3.661504
    8       -3.655649
    9       -3.141596
   10       -2.621479
   11       -2.613565
   12       -2.205368
   13       -2.197569
   14       -2.195011
   15       -2.186644
   16        0.684700
   17        0.691609
   18        0.693298
   19        0.700003
   20        1.105349
   21        1.113838
   22        1.387176
   23        3.820325
   24        3.827041
   25        4.266739
   26        4.950231
   27        5.130914
   28        5.132926
   29        8.120548
   30        8.130227
   31        8.132371
   32        8.141623
   33        8.362710
   34        8.588201
   35        8.596928
   36        8.606028
   37        8.815540
   38       10.994181
   39       11.250299
   40       11.256302
   41       11.791417
   42       11.802625
   43       12.049581
   44       12.060768
   45       12.997343
   46       13.000252
   47       13.008435
   48       13.522227
   49       13.526674
   50       13.689960
   51       13.759520
   52       13.974568
   53       16.038228
   54       16.049095
   55       16.163330
   56       16.341134
   57       16.348895
   58       16.585375
   59       16.735546
   60       16.743513
   61       16.744777
   62       16.751614
   63       16.789927
   64       16.794354
   65       19.361466
   66       19.383154
   67       20.671743
   68       21.092010
   69       21.153322
   70       21.157953
   71       21.370538
   72       21.376175
   73       21.576321
   74       22.888592
   75       22.893879
   76       23.829380
   77       23.832152
   78       24.107025
   79       24.134923
   80       24.136721
   81       24.144447
   82       24.147108
   83       24.174475
   84       24.553185
 
  0.1111111E+00  0.1111111E+00  0.0000000E+00  0.6172840E-02
    1      -10.907742
    2       -6.982604
    3       -6.975784
    4       -6.831745
    5       -6.825017
    6       -5.465834
    7       -3.748368
    8       -3.032876
    9       -3.025596
   10       -3.022263
   11       -3.013763
   12       -2.400655
   13       -2.393563
   14       -1.901767
   15       -1.893629
   16        0.664574
   17        0.672974
   18        1.539895
   19        1.772438
   20        1.779818
   21        1.781342
   22        1.790753
   23        2.839337
   24        3.986639
   25        3.989377
   26        4.758303
   27        4.761702
   28        5.275657
   29        7.099743
   30        7.110343
   31        7.507009
   32        7.973673
   33        8.273428
   34        8.281982
   35        8.287678
   36        8.291499
   37        8.911012
   38       10.960698
   39       10.968405
   40       11.052118
   41       11.066484
   42       11.650179
   43       11.660408
   44       11.669166
   45       13.029511
   46       13.180630
   47       13.185163
   48       13.645026
   49       14.029734
   50       14.100350
   51       14.103807
   52       14.395622
   53       15.754942
   54       16.087579
   55       16.095059
   56       16.854436
   57       16.860605
   58       16.863023
   59       16.868807
   60       17.152388
   61       17.164464
   62       17.801426
   63       17.822143
   64       17.831210
   65       19.314032
   66       19.329445
   67       20.227700
   68       20.292883
   69       21.008403
   70       21.018793
   71       21.365649
   72       21.368118
   73       21.467105
   74       23.588870
   75       23.603751
   76       23.818296
   77       23.931557
   78       23.954247
   79       23.956480
   80       23.974378
   81       24.013050
   82       24.036658
   83       24.914389
   84       24.964093
 
  0.2222222E+00  0.1111111E+00  0.0000000E+00  0.6172840E-02
    1      -10.596593
    2       -7.845900
    3       -7.182249
    4       -6.672861
    5       -6.665961
    6       -5.432947
    7       -3.977809
    8       -3.970258
    9       -3.345643
   10       -3.337913
   11       -3.223132
   12       -1.815532
   13       -1.807304
   14       -1.504175
   15       -0.844789
   16        1.113301
   17        1.121870
   18        1.610256
   19        1.841696
   20        2.610365
   21        2.619399
   22        3.168359
   23        3.238367
   24        3.247804
   25        4.159936
   26        4.318238
   27        4.594925
   28        5.368871
   29        5.855794
   30        5.865712
   31        6.100462
   32        7.082780
   33        7.419000
   34        7.429088
   35        8.582401
   36        8.594014
   37        9.093317
   38        9.797959
   39        9.811647
   40       10.546434
   41       10.974236
   42       10.995802
   43       11.009199
   44       11.952643
   45       13.218597
   46       13.436466
   47       13.647643
   48       14.037298
   49       14.218641
   50       14.676888
   51       15.047683
   52       15.084901
   53       15.324914
   54       15.837679
   55       16.163782
   56       17.094738
   57       17.103100
   58       17.837158
   59       18.029363
   60       18.037919
   61       18.378983
   62       18.978265
   63       18.988031
   64       19.079351
   65       19.190952
   66       19.200531
   67       19.446327
   68       19.590294
   69       20.712278
   70       21.139617
   71       21.155951
   72       21.664446
   73       21.797422
   74       23.185158
   75       23.543116
   76       23.565051
   77       23.578522
   78       23.600350
   79       23.735720
   80       23.758115
   81       24.784351
   82       24.800187
   83       25.228791
   84       25.263176
 
  0.3333333E+00  0.1111111E+00  0.0000000E+00  0.6172840E-02
    1      -10.131604
    2       -8.749679
    3       -7.399284
    4       -6.211294
    5       -6.204281
    6       -5.527658
    7       -4.851623
    8       -4.844297
    9       -3.544331
   10       -3.536642
   11       -2.341768
   12       -1.842100
   13       -1.833838
   14       -0.537831
   15        0.365460
   16        0.842499
   17        1.876520
   18        1.885461
   19        2.141292
   20        2.280778
   21        3.485265
   22        3.507448
   23        3.516870
   24        4.398992
   25        4.483448
   26        4.641332
   27        4.650684
   28        4.807874
   29        4.856694
   30        4.866834
   31        5.417181
   32        6.215110
   33        6.403157
   34        6.412645
   35        8.235924
   36        8.248126
   37        9.029864
   38        9.041669
   39        9.359463
   40       10.106559
   41       10.275986
   42       10.289145
   43       10.952522
   44       12.049869
   45       13.637940
   46       13.703629
   47       14.153244
   48       14.269794
   49       14.586918
   50       14.810550
   51       15.249389
   52       15.422094
   53       15.692133
   54       16.196117
   55       16.273546
   56       17.445199
   57       17.453570
   58       18.016831
   59       18.433914
   60       18.442909
   61       18.635123
   62       18.744782
   63       19.385194
   64       19.393134
   65       19.993857
   66       20.128571
   67       20.506863
   68       20.515863
   69       20.890412
   70       21.519298
   71       21.716666
   72       21.736267
   73       22.446855
   74       22.890319
   75       22.910668
   76       23.050153
   77       23.072193
   78       23.284613
   79       23.306864
   80       23.571831
   81       24.286554
   82       24.696834
   83       26.093207
   84       26.184284
 
  0.4444444E+00  0.1111111E+00  0.0000000E+00  0.6172840E-02
    1       -9.518190
    2       -9.511171
    3       -7.472195
    4       -5.608360
    5       -5.599668
    6       -5.596319
    7       -5.591012
    8       -5.569304
    9       -3.611922
   10       -3.604248
   11       -1.863268
   12       -1.855003
   13       -1.654915
   14       -0.437685
   15        0.110683
   16        1.456757
   17        2.447489
   18        2.456820
   19        2.609457
   20        2.612458
   21        2.836735
   22        2.842780
   23        3.925027
   24        3.933972
   25        4.057344
   26        4.067582
   27        4.444942
   28        5.430566
   29        5.442190
   30        5.449958
   31        5.798643
   32        5.808125
   33        6.545073
   34        6.550314
   35        6.555976
   36        6.565739
   37        9.593708
   38        9.611403
   39        9.613409
   40        9.621243
   41        9.698165
   42        9.706058
   43       10.937442
   44       12.063185
   45       13.953596
   46       13.958237
   47       14.045258
   48       14.384830
   49       14.877746
   50       14.893750
   51       14.916600
   52       15.514366
   53       16.071599
   54       16.082928
   55       17.495740
   56       17.501863
   57       17.509523
   58       17.894211
   59       17.901361
   60       17.904769
   61       17.913644
   62       19.664338
   63       19.793968
   64       19.801463
   65       20.168945
   66       20.174650
   67       21.201020
   68       21.206191
   69       22.245668
   70       22.311121
   71       22.371013
   72       22.394915
   73       22.406240
   74       22.414615
   75       22.417918
   76       22.443312
   77       22.924709
   78       22.947468
   79       23.297488
   80       23.300761
   81       23.788624
   82       23.942759
   83       24.597328
   84       24.609102
 
 -0.4444444E+00  0.1111111E+00  0.0000000E+00  0.6172840E-02
    1      -10.131715
    2       -8.749506
    3       -7.399527
    4       -6.211380
    5       -6.204376
    6       -5.527453
    7       -4.851463
    8       -4.844130
    9       -3.544526
   10       -3.536837
   11       -2.339392
   12       -1.841953
   13       -1.833680
   14       -0.540496
   15        0.362603
   16        0.842285
   17        1.879166
   18        1.887867
   19        2.144652
   20        2.280689
   21        3.484349
   22        3.505013
   23        3.514769
   24        4.398665
   25        4.483386
   26        4.638513
   27        4.647616
   28        4.808382
   29        4.856662
   30        4.866863
   31        5.417143
   32        6.214800
   33        6.406242
   34        6.416428
   35        8.235332
   36        8.246758
   37        9.030122
   38        9.042180
   39        9.359041
   40       10.107183
   41       10.277234
   42       10.289145
   43       10.952084
   44       12.050650
   45       13.641293
   46       13.701305
   47       14.156073
   48       14.264797
   49       14.589592
   50       14.805432
   51       15.247349
   52       15.428689
   53       15.693316
   54       16.196000
   55       16.273948
   56       17.443436
   57       17.451998
   58       18.014038
   59       18.437149
   60       18.445661
   61       18.634553
   62       18.745461
   63       19.387506
   64       19.396478
   65       19.996117
   66       20.133505
   67       20.503938
   68       20.511715
   69       20.889006
   70       21.513383
   71       21.716120
   72       21.735956
   73       22.446472
   74       22.887851
   75       22.908860
   76       23.050101
   77       23.071994
   78       23.287676
   79       23.309045
   80       23.572028
   81       24.287143
   82       24.690825
   83       26.095462
   84       26.236701
 
 -0.3333333E+00  0.1111111E+00  0.0000000E+00  0.6172840E-02
    1      -10.596672
    2       -7.845692
    3       -7.182739
    4       -6.672915
    5       -6.666025
    6       -5.432527
    7       -3.977622
    8       -3.970054
    9       -3.345945
   10       -3.338223
   11       -3.220915
   12       -1.815265
   13       -1.807007
   14       -1.506762
   15       -0.845056
   16        1.116093
   17        1.124466
   18        1.606889
   19        1.841618
   20        2.607343
   21        2.616631
   22        3.172306
   23        3.238136
   24        3.247680
   25        4.159971
   26        4.318715
   27        4.594988
   28        5.368676
   29        5.852392
   30        5.861945
   31        6.098844
   32        7.083755
   33        7.422996
   34        7.433792
   35        8.582689
   36        8.594448
   37        9.092910
   38        9.796197
   39        9.807821
   40       10.547109
   41       10.973541
   42       10.999596
   43       11.010584
   44       11.954325
   45       13.221082
   46       13.434401
   47       13.644069
   48       14.040788
   49       14.220238
   50       14.673843
   51       15.050046
   52       15.085152
   53       15.319127
   54       15.844595
   55       16.163893
   56       17.093550
   57       17.102037
   58       17.837847
   59       18.032319
   60       18.041381
   61       18.382988
   62       18.981894
   63       18.991249
   64       19.075702
   65       19.187188
   66       19.196007
   67       19.440891
   68       19.589738
   69       20.715739
   70       21.138906
   71       21.155350
   72       21.661395
   73       21.797178
   74       23.185396
   75       23.541165
   76       23.563777
   77       23.577978
   78       23.599795
   79       23.738818
   80       23.760218
   81       24.784934
   82       24.790020
   83       25.228783
   84       25.263745
 
 -0.2222222E+00  0.1111111E+00  0.0000000E+00  0.6172840E-02
    1      -10.907789
    2       -6.982685
    3       -6.975846
    4       -6.829159
    5       -6.827996
    6       -5.465203
    7       -3.746016
    8       -3.032341
    9       -3.024543
   10       -3.023144
   11       -3.015292
   12       -2.399866
   13       -2.397069
   14       -1.901295
   15       -1.893115
   16        0.667319
   17        0.675520
   18        1.539774
   19        1.771606
   20        1.778759
   21        1.780354
   22        1.787772
   23        2.835607
   24        3.987654
   25        3.992938
   26        4.759962
   27        4.760180
   28        5.275458
   29        7.095884
   30        7.106024
   31        7.502190
   32        7.978255
   33        8.276313
   34        8.284497
   35        8.287792
   36        8.296067
   37        8.910594
   38       10.962086
   39       10.966442
   40       11.047217
   41       11.058296
   42       11.658122
   43       11.663268
   44       11.673937
   45       13.031159
   46       13.180593
   47       13.181301
   48       13.648742
   49       14.027253
   50       14.098672
   51       14.102160
   52       14.401069
   53       15.748572
   54       16.089629
   55       16.100409
   56       16.855366
   57       16.862382
   58       16.863895
   59       16.870568
   60       17.158597
   61       17.161634
   62       17.796807
   63       17.818358
   64       17.826859
   65       19.316218
   66       19.331583
   67       20.223602
   68       20.292488
   69       21.009717
   70       21.019616
   71       21.366914
   72       21.370765
   73       21.463872
   74       23.587135
   75       23.590686
   76       23.820990
   77       23.930612
   78       23.953560
   79       23.955648
   80       23.973262
   81       24.015736
   82       24.038428
   83       24.911046
   84       24.966970
 
 -0.1111111E+00  0.1111111E+00  0.0000000E+00  0.6172840E-02
    1      -11.063535
    2       -7.137658
    3       -7.130867
    4       -6.360717
    5       -5.840654
    6       -5.838077
    7       -3.658854
    8       -3.656255
    9       -3.143922
   10       -2.622087
   11       -2.614162
   12       -2.204395
   13       -2.197556
   14       -2.195234
   15       -2.186012
   16        0.687346
   17        0.691174
   18        0.695328
   19        0.700745
   20        1.102591
   21        1.111245
   22        1.387213
   23        3.820344
   24        3.823052
   25        4.271049
   26        4.950400
   27        5.131184
   28        5.132462
   29        8.118684
   30        8.127633
   31        8.132503
   32        8.137021
   33        8.357148
   34        8.593258
   35        8.600674
   36        8.612789
   37        8.815155
   38       10.992524
   39       11.250115
   40       11.258758
   41       11.782410
   42       11.797278
   43       12.054968
   44       12.070151
   45       12.998673
   46       12.999677
   47       13.006862
   48       13.525598
   49       13.527100
   50       13.686285
   51       13.755097
   52       13.980010
   53       16.036918
   54       16.043901
   55       16.170629
   56       16.344242
   57       16.352135
   58       16.588532
   59       16.734859
   60       16.740984
   61       16.743199
   62       16.748474
   63       16.784278
   64       16.796351
   65       19.361713
   66       19.383396
   67       20.671585
   68       21.090793
   69       21.152509
   70       21.154457
   71       21.372888
   72       21.379841
   73       21.580608
   74       22.876599
   75       22.890946
   76       23.830529
   77       23.838969
   78       24.106076
   79       24.134108
   80       24.137318
   81       24.144920
   82       24.147486
   83       24.174992
   84       24.558569
 
 -0.1694066E-20  0.2222222E+00  0.0000000E+00  0.6172840E-02
    1      -10.829923
    2       -7.403850
    3       -6.904906
    4       -6.898066
    5       -6.150268
    6       -6.143606
    7       -3.560440
    8       -3.552778
    9       -2.936685
   10       -2.929190
   11       -2.422588
   12       -2.414727
   13       -2.412289
   14       -2.404054
   15       -1.689712
   16        1.304116
   17        1.311970
   18        1.313252
   19        1.320763
   20        1.616434
   21        2.434964
   22        2.443912
   23        2.916297
   24        2.924307
   25        4.437638
   26        4.517681
   27        5.083660
   28        5.087327
   29        7.015893
   30        7.172599
   31        7.182598
   32        7.183533
   33        7.193901
   34        7.858821
   35        8.819490
   36        8.830499
   37        8.950553
   38       10.644245
   39       10.655414
   40       10.663177
   41       11.428576
   42       11.436131
   43       11.571199
   44       11.582402
   45       13.150695
   46       13.235625
   47       13.240945
   48       13.918906
   49       13.924966
   50       13.930789
   51       14.512717
   52       14.740290
   53       15.770360
   54       15.781053
   55       16.233966
   56       16.525610
   57       16.533405
   58       17.165219
   59       17.867954
   60       17.877102
   61       17.878473
   62       17.886732
   63       17.944848
   64       17.951012
   65       19.096851
   66       19.109705
   67       20.107266
   68       20.344198
   69       20.349662
   70       21.162380
   71       21.177904
   72       21.536816
   73       21.882648
   74       23.776429
   75       23.850760
   76       23.859777
   77       23.868191
   78       23.878169
   79       23.891361
   80       23.903972
   81       23.906613
   82       23.931688
   83       24.784198
   84       25.393158
 
  0.1111111E+00  0.2222222E+00  0.0000000E+00  0.6172840E-02
    1      -10.596599
    2       -7.846019
    3       -7.182121
    4       -6.672863
    5       -6.665959
    6       -5.432870
    7       -3.977909
    8       -3.970360
    9       -3.345469
   10       -3.337728
   11       -3.223346
   12       -1.815469
   13       -1.807256
   14       -1.503529
   15       -0.845513
   16        1.113261
   17        1.121840
   18        1.610269
   19        1.841692
   20        2.611127
   21        2.620296
   22        3.167245
   23        3.237658
   24        3.246752
   25        4.159985
   26        4.319575
   27        4.594853
   28        5.368864
   29        5.855789
   30        5.865695
   31        6.099271
   32        7.084176
   33        7.417170
   34        7.427892
   35        8.584731
   36        8.595424
   37        9.093219
   38        9.797310
   39        9.809161
   40       10.544563
   41       10.976686
   42       10.998625
   43       11.009992
   44       11.953635
   45       13.217165
   46       13.436017
   47       13.647589
   48       14.037323
   49       14.215238