natom:   16
displacements:
- atom:    1
  direction:
    [   1.0000000000000000,  0.0000000000000000,  1.0000000000000000 ]
  displacement:
    [   0.0012239467254512,  0.0000000000000000,  0.0099248150820686 ]
- atom:    1
  direction:
    [  -1.0000000000000000,  0.0000000000000000, -1.0000000000000000 ]
  displacement:
    [  -0.0012239467254512,  0.0000000000000000, -0.0099248150820686 ]
lattice:
- [     4.932874679600000,     0.000000000000000,     0.000000000000000 ] # a
- [    -2.469760955000000,     4.270074171400000,     0.000000000000000 ] # b
- [     0.000000000000000,     0.000000000000000,    40.000000000000000 ] # c
points:
- symbol: C  # 1
  coordinates: [  0.499673306973382,  0.000326718680754,  0.041448441150000 ]
  mass: 12.010700
- symbol: C  # 2
  coordinates: [  0.999673306973382,  0.000326718680754,  0.041448441150000 ]
  mass: 12.010700
- symbol: C  # 3
  coordinates: [  0.499673306973382,  0.500326718680754,  0.041448441150000 ]
  mass: 12.010700
- symbol: C  # 4
  coordinates: [  0.999673306973382,  0.500326718680754,  0.041448441150000 ]
  mass: 12.010700
- symbol: C  # 5
  coordinates: [  0.499673306973382,  0.000326718680754,  0.541448441150000 ]
  mass: 12.010700
- symbol: C  # 6
  coordinates: [  0.999673306973382,  0.000326718680754,  0.541448441150000 ]
  mass: 12.010700
- symbol: C  # 7
  coordinates: [  0.499673306973382,  0.500326718680754,  0.541448441150000 ]
  mass: 12.010700
- symbol: C  # 8
  coordinates: [  0.999673306973382,  0.500326718680754,  0.541448441150000 ]
  mass: 12.010700
- symbol: C  # 9
  coordinates: [  0.166292458906004,  0.333707541321890,  0.041448441150000 ]
  mass: 12.010700
- symbol: C  # 10
  coordinates: [  0.666292458906004,  0.333707541321890,  0.041448441150000 ]
  mass: 12.010700
- symbol: C  # 11
  coordinates: [  0.166292458906004,  0.833707541321890,  0.041448441150000 ]
  mass: 12.010700
- symbol: C  # 12
  coordinates: [  0.666292458906004,  0.833707541321890,  0.041448441150000 ]
  mass: 12.010700
- symbol: C  # 13
  coordinates: [  0.166292458906004,  0.333707541321890,  0.541448441150000 ]
  mass: 12.010700
- symbol: C  # 14
  coordinates: [  0.666292458906004,  0.333707541321890,  0.541448441150000 ]
  mass: 12.010700
- symbol: C  # 15
  coordinates: [  0.166292458906004,  0.833707541321890,  0.541448441150000 ]
  mass: 12.010700
- symbol: C  # 16
  coordinates: [  0.666292458906004,  0.833707541321890,  0.541448441150000 ]
  mass: 12.010700