    2    2    1    1
  0.5265935E+02  0.2466437E-09  0.2466437E-09  0.2000000E-08  0.5000000E-15
  1.000000000000000E-004
  CAR 
 graphite                                
      8    455      8
 
  0.0000000E+00  0.0000000E+00  0.0000000E+00  0.3858025E-03
    1      -22.261259
    2      -10.362609
    3       -5.785594
    4       -5.765901
    5        0.521591
    6        1.314434
    7        1.655415
    8        2.588087
 
  0.5555556E-01  0.3469447E-17  0.0000000E+00  0.1543210E-02
    1      -22.188235
    2      -10.275424
    3       -6.069239
    4       -5.936689
    5        0.620620
    6        1.414771
    7        1.756943
    8        2.688688
 
  0.1111111E+00  0.6938894E-17  0.0000000E+00  0.1543210E-02
    1      -21.969547
    2      -10.014937
    3       -6.887052
    4       -6.352775
    5        0.917761
    6        1.715561
    7        2.061540
    8        2.990309
 
  0.1666667E+00  0.1387779E-16  0.0000000E+00  0.1543210E-02
    1      -21.606317
    2       -9.584376
    3       -8.061986
    4       -6.912270
    5        1.412856
    6        2.215923
    7        2.569204
    8        3.492136
 
  0.2222222E+00  0.2775558E-16  0.0000000E+00  0.1543210E-02
    1      -21.100374
    2       -9.437008
    3       -8.990010
    4       -7.506795
    5        2.105124
    6        2.912319
    7        3.279820
    8        4.188346
 
  0.2777778E+00  0.2775558E-16  0.0000000E+00  0.1543210E-02
    1      -20.454838
    2      -10.897835
    3       -8.243573
    4       -8.060397
    5        2.992599
    6        3.598216
    7        3.942208
    8        4.192801
 
  0.3333333E+00  0.8326673E-16  0.0000000E+00  0.1543210E-02
    1      -19.674900
    2      -12.367346
    3       -8.525571
    4       -7.368073
    5        2.162623
    6        4.067080
    7        4.930993
    8        4.958144
 
  0.3888889E+00  0.2775558E-16  0.0000000E+00  0.1543210E-02
    1      -18.770257
    2      -13.790626
    3       -8.873647
    4       -6.415434
    5        0.690212
    6        4.749044
    7        5.383001
    8        6.215198
 
  0.4444444E+00  0.5551115E-16  0.0000000E+00  0.1543210E-02
    1      -17.771268
    2      -15.110190
    3       -9.088161
    4       -5.528447
    5       -0.527619
    6        4.654721
    7        6.825368
    8        7.685484
 
  0.5000000E+00  0.5551115E-16  0.0000000E+00  0.7716049E-03
    1      -17.016530
    2      -15.973206
    3       -9.160475
    4       -5.104071
    5       -1.065228
    6        4.618276
    7        8.377999
    8        8.530195
 
  0.5555556E-01  0.5555556E-01  0.0000000E+00  0.7716049E-03
    1      -22.042272
    2      -10.101494
    3       -6.596570
    4       -6.253570
    5        0.818872
    6        1.615475
    7        1.960147
    8        2.889939
 
  0.1111111E+00  0.5555556E-01  0.0000000E+00  0.1543210E-02
    1      -21.751218
    2       -9.755791
    3       -7.542610
    4       -6.792670
    5        1.215269
    6        2.016280
    7        2.366441
    8        3.291922
 
  0.1666667E+00  0.5555556E-01  0.0000000E+00  0.1543210E-02
    1      -21.316522
    2       -9.242873
    3       -8.777043
    4       -7.411441
    5        1.809373
    6        2.615636
    7        2.975786
    8        3.893004
 
  0.2222222E+00  0.5555556E-01  0.0000000E+00  0.1543210E-02
    1      -20.740672
    2      -10.169332
    3       -8.571342
    4       -8.012063
    5        2.599976
    6        3.401874
    7        3.788004
    8        4.394927
 
  0.2777778E+00  0.5555556E-01  0.0000000E+00  0.1543210E-02
    1      -20.027659
    2      -11.619519
    3       -8.536907
    4       -7.757282
    5        2.874339
    6        3.584199
    7        4.434176
    8        4.801499
 
  0.3333333E+00  0.5555556E-01  0.0000000E+00  0.1543210E-02
    1      -19.184623
    2      -13.058096
    3       -8.952116
    4       -6.834029
    5        1.376430
    6        4.740905
    7        5.208655
    8        5.616880
 
  0.3888889E+00  0.5555556E-01  0.0000000E+00  0.1543210E-02
    1      -18.227109
    2      -14.430436
    3       -9.238018
    4       -5.884631
    5        0.010298
    6        5.023776
    7        6.151696
    8        6.991868
 
  0.4444444E+00  0.5555556E-01  0.0000000E+00  0.1543210E-02
    1      -17.237539
    2      -15.632434
    3       -9.383628
    4       -5.154955
    5       -0.936835
    6        4.955075
    7        7.687492
    8        8.529972
 
  0.5000000E+00  0.5555556E-01  0.0000000E+00  0.1543210E-02
    1      -17.238880
    2      -15.630888
    3       -9.383981
    4       -5.155456
    5       -0.936363
    6        4.955543
    7        7.685003
    8        8.527922
 
 -0.4444444E+00  0.5555556E-01  0.0000000E+00  0.1543210E-02
    1      -18.228639
    2      -14.428431
    3       -9.239024
    4       -5.885665
    5        0.011187
    6        5.025128
    7        6.149616
    8        6.989924
 
 -0.3888889E+00  0.5555556E-01  0.0000000E+00  0.1543210E-02
    1      -19.185990
    2      -13.056023
    3       -8.953661
    4       -6.835154
    5        1.377214
    6        4.739332
    7        5.210693
    8        5.615148
 
 -0.3333333E+00  0.5555556E-01  0.0000000E+00  0.1543210E-02
    1      -20.028835
    2      -11.617611
    3       -8.538700
    4       -7.758341
    5        2.874726
    6        3.582689
    7        4.432677
    8        4.800007
 
 -0.2777778E+00  0.5555556E-01  0.0000000E+00  0.1543210E-02
    1      -20.741631
    2      -10.168092
    3       -8.572251
    4       -8.013501
    5        2.598739
    6        3.400746
    7        3.786769
    8        4.394631
 
 -0.2222222E+00  0.5555556E-01  0.0000000E+00  0.1543210E-02
    1      -21.317268
    2       -9.243604
    3       -8.777601
    4       -7.411231
    5        1.808412
    6        2.614708
    7        2.974826
    8        3.892074
 
 -0.1666667E+00  0.5555556E-01  0.0000000E+00  0.1543210E-02
    1      -21.751750
    2       -9.756328
    3       -7.547454
    4       -6.788101
    5        1.214582
    6        2.015612
    7        2.365755
    8        3.291254
 
 -0.1111111E+00  0.5555556E-01  0.0000000E+00  0.1543210E-02
    1      -22.042600
    2      -10.101827
    3       -6.609397
    4       -6.240871
    5        0.818459
    6        1.615073
    7        1.959736
    8        2.889538
 
 -0.5555556E-01  0.5555556E-01  0.0000000E+00  0.7716049E-03
    1      -22.188343
    2      -10.275537
    3       -6.083776
    4       -5.922137
    5        0.620482
    6        1.414636
    7        1.756806
    8        2.688553
 
  0.1111111E+00  0.1111111E+00  0.0000000E+00  0.7716049E-03
    1      -21.388698
    2       -9.327505
    3       -8.443656
    4       -7.496844
    5        1.710903
    6        2.516475
    7        2.874462
    8        3.793800
 
  0.1666667E+00  0.1111111E+00  0.0000000E+00  0.1543210E-02
    1      -20.884113
    2       -9.581961
    3       -8.736457
    4       -8.236789
    5        2.403807
    6        3.213531
    7        3.585522
    8        4.490924
 
  0.2222222E+00  0.1111111E+00  0.0000000E+00  0.1543210E-02
    1      -20.240693
    2      -10.895963
    3       -8.877369
    4       -7.993983
    5        3.292279
    6        3.409657
    7        4.124798
    8        4.499398
 
  0.2777778E+00  0.1111111E+00  0.0000000E+00  0.1543210E-02
    1      -19.464016
    2      -12.281273
    3       -9.387108
    4       -7.122167
    5        1.974950
    6        4.372793
    7        5.205503
    8        5.614554
 
  0.3333333E+00  0.1111111E+00  0.0000000E+00  0.1543210E-02
    1      -18.564378
    2      -13.655496
    3       -9.757313
    4       -6.170101
    5        0.573370
    6        5.622322
    7        6.035347
    8        6.476366
 
  0.3888889E+00  0.1111111E+00  0.0000000E+00  0.1543210E-02
    1      -17.573151
    2      -14.945313
    3       -9.982143
    4       -5.274357
    5       -0.609967
    6        5.888193
    7        7.112660
    8        7.902309
 
  0.4444444E+00  0.1111111E+00  0.0000000E+00  0.1543210E-02
    1      -16.829076
    2      -15.790846
    3      -10.057896
    4       -4.838157
    5       -1.145115
    6        5.854403
    7        8.631781
    8        8.802206
 
  0.5000000E+00  0.1111111E+00  0.0000000E+00  0.1543210E-02
    1      -17.576248
    2      -14.941608
    3       -9.983279
    4       -5.276071
    5       -0.608524
    6        5.889776
    7        7.108106
    8        7.898440
 
 -0.4444444E+00  0.1111111E+00  0.0000000E+00  0.1543210E-02
    1      -18.567297
    2      -13.651463
    3       -9.759378
    4       -6.172318
    5        0.574915
    6        5.618828
    7        6.038165
    8        6.472735
 
 -0.3888889E+00  0.1111111E+00  0.0000000E+00  0.1543210E-02
    1      -19.466548
    2      -12.277590
    3       -9.389645
    4       -7.124361
    5        1.975828
    6        4.369477
    7        5.202303
    8        5.611286
 
 -0.3333333E+00  0.1111111E+00  0.0000000E+00  0.1543210E-02
    1      -20.242813
    2      -10.893635
    3       -8.879144
    4       -7.995951
    5        3.289524
    6        3.409467
    7        4.122040
    8        4.496653
 
 -0.2777778E+00  0.1111111E+00  0.0000000E+00  0.1543210E-02
    1      -20.885809
    2       -9.583393
    3       -8.738098
    4       -8.235217
    5        2.401610
    6        3.211427
    7        3.583327
    8        4.488878
 
 -0.2222222E+00  0.1111111E+00  0.0000000E+00  0.1543210E-02
    1      -21.389976
    2       -9.328775
    3       -8.452042
    4       -7.488401
    5        1.709258
    6        2.514872
    7        2.872816
    8        3.792191
 
 -0.1666667E+00  0.1111111E+00  0.0000000E+00  0.1543210E-02
    1      -21.752070
    2       -9.756654
    3       -7.557219
    4       -6.777842
    5        1.214173
    6        2.015207
    7        2.365344
    8        3.290847
 
 -0.1111111E+00  0.1111111E+00  0.0000000E+00  0.7716049E-03
    1      -21.969976
    2      -10.015385
    3       -6.902405
    4       -6.337114
    5        0.917212
    6        1.715023
    7        2.060991
    8        2.989768
 
  0.1666667E+00  0.1666667E+00  0.0000000E+00  0.7716049E-03
    1      -20.311900
    2      -10.502494
    3       -9.156660
    4       -8.073411
    5        3.194656
    6        3.627036
    7        4.007464
    8        4.398262
 
  0.2222222E+00  0.1666667E+00  0.0000000E+00  0.1543210E-02
    1      -19.604567
    2      -11.615033
    3       -9.919635
    4       -7.268787
    5        2.342476
    6        4.179341
    7        4.991258
    8        5.413719
 
  0.2777778E+00  0.1666667E+00  0.0000000E+00  0.1543210E-02
    1      -18.770035
    2      -12.869771
    3      -10.452520
    4       -6.352379
    5        1.021466
    6        5.353029
    7        6.152190
    8        6.630847
 
  0.3333333E+00  0.1666667E+00  0.0000000E+00  0.1543210E-02
    1      -17.825488
    2      -14.144615
    3      -10.789798
    4       -5.396870
    5       -0.228403
    6        6.698241
    7        7.275469
    8        7.445464
 
  0.3888889E+00  0.1666667E+00  0.0000000E+00  0.1543210E-02
    1      -16.854729
    2      -15.292860
    3      -10.954963
    4       -4.634655
    5       -1.146122
    6        7.174780
    7        8.237484
    8        8.632769
 
  0.4444444E+00  0.1666667E+00  0.0000000E+00  0.1543210E-02
    1      -16.858688
    2      -15.288519
    3      -10.955592
    4       -4.636245
    5       -1.144849
    6        7.175688
    7        8.229983
    8        8.629445
 
  0.5000000E+00  0.1666667E+00  0.0000000E+00  0.1543210E-02
    1      -17.830022
    2      -14.139041
    3      -10.791490
    4       -5.399986
    5       -0.226361
    6        6.692030
    7        7.278262
    8        7.440215
 
 -0.4444444E+00  0.1666667E+00  0.0000000E+00  0.1543210E-02
    1      -18.774092
    2      -12.864805
    3      -10.454426
    4       -6.355717
    5        1.022700
    6        5.347592
    7        6.147209
    8        6.625498
 
 -0.3888889E+00  0.1666667E+00  0.0000000E+00  0.1543210E-02
    1      -19.608047
    2      -11.612901
    3       -9.919517
    4       -7.271906
    5        2.342129
    6        4.174781
    7        4.986924
    8        5.409187
 
 -0.3333333E+00  0.1666667E+00  0.0000000E+00  0.1543210E-02
    1      -20.314757
    2      -10.506621
    3       -9.150905
    4       -8.076107
    5        3.190948
    6        3.624732
    7        4.003908
    8        4.394558
 
 -0.2777778E+00  0.1666667E+00  0.0000000E+00  0.1543210E-02
    1      -20.886340
    2       -9.592438
    3       -8.738639
    4       -8.224962
    5        2.400934
    6        3.210709
    7        3.582643
    8        4.487982
 
 -0.2222222E+00  0.1666667E+00  0.0000000E+00  0.1543210E-02
    1      -21.318115
    2       -9.244468
    3       -8.791287
    4       -7.395897
    5        1.807326
    6        2.613616
    7        2.973731
    8        3.890962
 
 -0.1666667E+00  0.1666667E+00  0.0000000E+00  0.7716049E-03
    1      -21.607273
    2       -9.585347
    3       -8.077449
    4       -6.895624
    5        1.411627
    6        2.214709
    7        2.567970
    8        3.490922
 
  0.2222222E+00  0.2222222E+00  0.0000000E+00  0.7716049E-03
    1      -18.839063
    2      -12.415937
    3      -10.887546
    4       -6.414852
    5        1.196981
    6        5.256653
    7        6.039532
    8        6.530426
 
  0.2777778E+00  0.2222222E+00  0.0000000E+00  0.1543210E-02
    1      -17.956285
    2      -13.416662
    3      -11.545849
    4       -5.470707
    5        0.031063
    6        6.515342
    7        7.193140
    8        7.848408
 
  0.3333333E+00  0.2222222E+00  0.0000000E+00  0.1543210E-02
    1      -16.989914
    2      -14.528768
    3      -11.887115
    4       -4.543088
    5       -1.037513
    6        7.928562
    7        8.134493
    8        8.731862
 
  0.3888889E+00  0.2222222E+00  0.0000000E+00  0.1543210E-02
    1      -16.267511
    2      -15.311690
    3      -11.992338
    4       -4.045847
    5       -1.583790
    6        8.391017
    7        8.658616
    8        9.337710
 
  0.4444444E+00  0.2222222E+00  0.0000000E+00  0.1543210E-02
    1      -16.995943
    2      -14.522336
    3      -11.887706
    4       -4.546677
    5       -1.035292
    6        7.919271
    7        8.131162
    8        8.733597
 
  0.5000000E+00  0.2222222E+00  0.0000000E+00  0.1543210E-02
    1      -17.961994
    2      -13.411715
    3      -11.545396
    4       -5.475100
    5        0.032507
    6        6.507444
    7        7.187077
    8        7.840708
 
 -0.4444444E+00  0.2222222E+00  0.0000000E+00  0.1543210E-02
    1      -18.844078
    2      -12.416305
    3      -10.882639
    4       -6.419159
    5        1.196478
    6        5.249995
    7        6.033590
    8        6.523834
 
 -0.3888889E+00  0.2222222E+00  0.0000000E+00  0.1543210E-02
    1      -19.608771
    2      -11.621518
    3       -9.909296
    4       -7.272652
    5        2.339608
    6        4.173847
    7        4.986154
    8        5.408233
 
 -0.3333333E+00  0.2222222E+00  0.0000000E+00  0.1543210E-02
    1      -20.244067
    2      -10.906511
    3       -8.863464
    4       -7.997227
    5        3.287917
    6        3.404453
    7        4.120833
    8        4.495017
 
 -0.2777778E+00  0.2222222E+00  0.0000000E+00  0.1543210E-02
    1      -20.743208
    2      -10.182655
    3       -8.573851
    4       -7.995712
    5        2.596722
    6        3.398487
    7        3.784723
    8        4.388768
 
 -0.2222222E+00  0.2222222E+00  0.0000000E+00  0.7716049E-03
    1      -21.102070
    2       -9.451982
    3       -8.991714
    4       -7.489179
    5        2.102956
    6        2.910125
    7        3.277632
    8        4.186066
 
  0.2777778E+00  0.2777778E+00  0.0000000E+00  0.7716049E-03
    1      -17.044098
    2      -14.047221
    3      -12.423378
    4       -4.520258
    5       -0.975459
    6        7.837814
    7        7.938461
    8        9.264503
 
  0.3333333E+00  0.2777778E+00  0.0000000E+00  0.1543210E-02
    1      -16.110842
    2      -14.860520
    3      -12.853622
    4       -3.645531
    5       -1.873767
    6        8.016880
    7        9.235484
    8        9.999430
 
  0.3888889E+00  0.2777778E+00  0.0000000E+00  0.1543210E-02
    1      -16.117398
    2      -14.854850
    3      -12.852691
    4       -3.648883
    5       -1.871570
    6        8.016908
    7        9.222309
    8       10.003108
 
  0.4444444E+00  0.2777778E+00  0.0000000E+00  0.1543210E-02
    1      -17.051467
    2      -14.044491
    3      -12.418565
    4       -4.525491
    5       -0.973742
    6        7.827012
    7        7.936048
    8        9.254216
 
  0.5000000E+00  0.2777778E+00  0.0000000E+00  0.1543210E-02
    1      -17.962954
    2      -13.419500
    3      -11.535951
    4       -5.476120
    5        0.030555
    6        6.506280
    7        7.186566
    8        7.839512
 
 -0.4444444E+00  0.2777778E+00  0.0000000E+00  0.1543210E-02
    1      -18.775778
    2      -12.876526
    3      -10.439443
    4       -6.357437
    5        1.018356
    6        5.345502
    7        6.145532
    8        6.623373
 
 -0.3888889E+00  0.2777778E+00  0.0000000E+00  0.1543210E-02
    1      -19.468729
    2      -12.290933
    3       -9.371739
    4       -7.126575
    5        1.969430
    6        4.366738
    7        5.199840
    8        5.608552
 
 -0.3333333E+00  0.2777778E+00  0.0000000E+00  0.1543210E-02
    1      -20.031337
    2      -11.631571
    3       -8.519641
    4       -7.760852
    5        2.867088
    6        3.579546
    7        4.429776
    8        4.796869
 
 -0.2777778E+00  0.2777778E+00  0.0000000E+00  0.7716049E-03
    1      -20.457466
    2      -10.911776
    3       -8.246191
    4       -8.041891
    5        2.989267
    6        3.591409
    7        3.938207
    8        4.189421
 
  0.3333333E+00  0.3333333E+00  0.0000000E+00  0.7716049E-03
    1      -15.341185
    2      -15.334327
    3      -13.293790
    4       -2.749002
    5       -2.743983
    6        7.873622
    7       10.132665
    8       10.149371
 
  0.3888889E+00  0.3333333E+00  0.0000000E+00  0.1543210E-02
    1      -16.119274
    2      -14.859882
    3      -12.845333
    4       -3.651195
    5       -1.871491
    6        8.018591
    7        9.221472
    8       10.030199
 
  0.4444444E+00  0.3333333E+00  0.0000000E+00  0.1543210E-02
    1      -16.998200
    2      -14.531922
    3      -11.874702
    4       -4.549300
    5       -1.037822
    6        7.917196
    7        8.132836
    8        8.772077
 
  0.5000000E+00  0.3333333E+00  0.0000000E+00  0.1543210E-02
    1      -17.832849
    2      -14.150534
    3      -10.775048
    4       -5.402995
    5       -0.231413
    6        6.689486
    7        7.314818
    8        7.438127
 
 -0.4444444E+00  0.3333333E+00  0.0000000E+00  0.1543210E-02
    1      -18.570590
    2      -13.663821
    3       -9.740701
    4       -6.175684
    5        0.567908
    6        5.617021
    7        6.071151
    8        6.469098
 
 -0.3888889E+00  0.3333333E+00  0.0000000E+00  0.1543210E-02
    1      -19.189623
    2      -13.068677
    3       -8.933967
    4       -6.838764
    5        1.369101
    6        4.736902
    7        5.242322
    8        5.610849
 
 -0.3333333E+00  0.3333333E+00  0.0000000E+00  0.7716049E-03
    1      -19.678657
    2      -12.379918
    3       -8.506353
    4       -7.371760
    5        2.154398
    6        4.062824
    7        4.926470
    8        4.990628
 
  0.3888889E+00  0.3888889E+00  0.0000000E+00  0.7716049E-03
    1      -16.274363
    2      -15.317025
    3      -11.978851
    4       -4.051197
    5       -1.584750
    6        8.394796
    7        8.697730
    8        9.326665
 
  0.4444444E+00  0.3888889E+00  0.0000000E+00  0.1543210E-02
    1      -16.863474
    2      -15.297961
    3      -10.939089
    4       -4.641150
    5       -1.149129
    6        7.214646
    7        8.224932
    8        8.630579
 
  0.5000000E+00  0.3888889E+00  0.0000000E+00  0.1543210E-02
    1      -17.581011
    2      -14.952260
    3       -9.964575
    4       -5.280883
    5       -0.615120
    6        5.926775
    7        7.102345
    8        7.894069
 
 -0.4444444E+00  0.3888889E+00  0.0000000E+00  0.1543210E-02
    1      -18.233612
    2      -14.439441
    3       -9.219108
    4       -5.890527
    5        0.003336
    6        5.060454
    7        6.143554
    8        6.984210
 
 -0.3888889E+00  0.3888889E+00  0.0000000E+00  0.7716049E-03
    1      -18.775331
    2      -13.801609
    3       -8.853893
    4       -6.420295
    5        0.682119
    6        4.782788
    7        5.378008
    8        6.209105
 
  0.4444444E+00  0.4444444E+00  0.0000000E+00  0.7716049E-03
    1      -16.836974
    2      -15.798019
    3      -10.039615
    4       -4.844515
    5       -1.150573
    6        5.892729
    7        8.619982
    8        8.792842
 
  0.5000000E+00  0.4444444E+00  0.0000000E+00  0.1543210E-02
    1      -17.245673
    2      -15.639868
    3       -9.364145
    4       -5.161630
    5       -0.943379
    6        4.992284
    7        7.676496
    8        8.521263
 
 -0.4444444E+00  0.4444444E+00  0.0000000E+00  0.7716049E-03
    1      -17.777889
    2      -15.119432
    3       -9.068069
    4       -5.534499
    5       -0.535108
    6        4.690932
    7        6.816755
    8        7.677853
 
  0.5000000E+00  0.5000000E+00  0.0000000E+00  0.3858025E-03
    1      -17.024780
    2      -15.980779
    3       -9.140292
    4       -5.110772
    5       -1.072254
    6        4.654842
    7        8.365834
    8        8.520500
 
  0.0000000E+00  0.0000000E+00  0.1250000E+00  0.7716049E-03
    1      -22.261263
    2      -10.362615
    3       -5.785610
    4       -5.765901
    5        0.521950
    6        1.304038
    7        1.679779
    8        2.521685
 
  0.5555556E-01  0.3469447E-17  0.1250000E+00  0.3086420E-02
    1      -22.188243
    2      -10.275441
    3       -6.069238
    4       -5.936680
    5        0.620975
    6        1.404453
    7        1.781214
    8        2.622335
 
  0.1111111E+00  0.6938894E-17  0.1250000E+00  0.3086420E-02
    1      -21.969557
    2      -10.014961
    3       -6.887049
    4       -6.352779
    5        0.918105
    6        1.705489
    7        2.085518
    8        2.924159
 
  0.1666667E+00  0.1387779E-16  0.1250000E+00  0.3086420E-02
    1      -21.606304
    2       -9.584361
    3       -8.061979
    4       -6.912273
    5        1.413183
    6        2.206296
    7        2.592634
    8        3.426522
 
  0.2222222E+00  0.2775558E-16  0.1250000E+00  0.3086420E-02
    1      -21.100377
    2       -9.437018
    3       -8.990016
    4       -7.506806
    5        2.105427
    6        2.903481
    7        3.302199
    8        4.124988
 
  0.2777778E+00  0.2775558E-16  0.1250000E+00  0.3086420E-02
    1      -20.454834
    2      -10.897828
    3       -8.243574
    4       -8.060391
    5        2.992873
    6        3.597076
    7        3.931537
    8        4.218564
 
  0.3333333E+00  0.8326673E-16  0.1250000E+00  0.3086420E-02
    1      -19.674895
    2      -12.367342
    3       -8.525559
    4       -7.368080
    5        2.162622
    6        4.067308
    7        4.922640
    8        4.958892
 
  0.3888889E+00  0.2775558E-16  0.1250000E+00  0.3086420E-02
    1      -18.770243
    2      -13.790612
    3       -8.873639
    4       -6.415429
    5        0.690218
    6        4.749057
    7        5.383221
    8        6.208620
 
  0.4444444E+00  0.5551115E-16  0.1250000E+00  0.3086420E-02
    1      -17.771268
    2      -15.110188
    3       -9.088166
    4       -5.528445
    5       -0.527613
    6        4.654725
    7        6.825535
    8        7.680524
 
  0.5000000E+00  0.5551115E-16  0.1250000E+00  0.1543210E-02
    1      -17.016536
    2      -15.973193
    3       -9.160472
    4       -5.104078
    5       -1.065223
    6        4.618281
    7        8.378092
    8        8.530344
 
  0.5555556E-01  0.5555556E-01  0.1250000E+00  0.1543210E-02
    1      -22.042279
    2      -10.101506
    3       -6.596579
    4       -6.253588
    5        0.819220
    6        1.605320
    7        1.984225
    8        2.823720
 
  0.1111111E+00  0.5555556E-01  0.1250000E+00  0.3086420E-02
    1      -21.751215
    2       -9.755783
    3       -7.542622
    4       -6.792666
    5        1.215603
    6        2.006466
    7        2.390104
    8        3.226076
 
  0.1666667E+00  0.5555556E-01  0.1250000E+00  0.3086420E-02
    1      -21.316513
    2       -9.242866
    3       -8.777033
    4       -7.411457
    5        1.809687
    6        2.606398
    7        2.998717
    8        3.828119
 
  0.2222222E+00  0.5555556E-01  0.1250000E+00  0.3086420E-02
    1      -20.740668
    2      -10.169336
    3       -8.571338
    4       -8.012072
    5        2.600263
    6        3.393985
    7        3.808668
    8        4.394033
 
  0.2777778E+00  0.5555556E-01  0.1250000E+00  0.3086420E-02
    1      -20.027665
    2      -11.619521
    3       -8.536904
    4       -7.757284
    5        2.874339
    6        3.584453
    7        4.425711
    8        4.823527
 
  0.3333333E+00  0.5555556E-01  0.1250000E+00  0.3086420E-02
    1      -19.184621
    2      -13.058108
    3       -8.952129
    4       -6.834029
    5        1.376426
    6        4.741089
    7        5.208731
    8        5.609912
 
  0.3888889E+00  0.5555556E-01  0.1250000E+00  0.3086420E-02
    1      -18.227102
    2      -14.430446
    3       -9.238018
    4       -5.884629
    5        0.010299
    6        5.023783
    7        6.151885
    8        6.986446
 
  0.4444444E+00  0.5555556E-01  0.1250000E+00  0.3086420E-02
    1      -17.237537
    2      -15.632433
    3       -9.383629
    4       -5.154952
    5       -0.936829
    6        4.955085
    7        7.687630
    8        8.526530
 
  0.5000000E+00  0.5555556E-01  0.1250000E+00  0.3086420E-02
    1      -17.238884
    2      -15.630919
    3       -9.383978
    4       -5.155456
    5       -0.936361
    6        4.955548
    7        7.685141
    8        8.524476
 
 -0.4444444E+00  0.5555556E-01  0.1250000E+00  0.3086420E-02
    1      -18.228629
    2      -14.428444
    3       -9.239021
    4       -5.885665
    5        0.011191
    6        5.025136
    7        6.149806
    8        6.984499
 
 -0.3888889E+00  0.5555556E-01  0.1250000E+00  0.3086420E-02
    1      -19.185993
    2      -13.055996
    3       -8.953660
    4       -6.835151
    5        1.377211
    6        4.739517
    7        5.210770
    8        5.608178
 
 -0.3333333E+00  0.5555556E-01  0.1250000E+00  0.3086420E-02
    1      -20.028832
    2      -11.617618
    3       -8.538697
    4       -7.758336
    5        2.874727
    6        3.582943
    7        4.424211
    8        4.822037
 
 -0.2777778E+00  0.5555556E-01  0.1250000E+00  0.3086420E-02
    1      -20.741627
    2      -10.168095
    3       -8.572250
    4       -8.013510
    5        2.599027
    6        3.392851
    7        3.807444
    8        4.393717
 
 -0.2222222E+00  0.5555556E-01  0.1250000E+00  0.3086420E-02
    1      -21.317257
    2       -9.243598
    3       -8.777593
    4       -7.411229
    5        1.808726
    6        2.605468
    7        2.997759
    8        3.827184
 
 -0.1666667E+00  0.5555556E-01  0.1250000E+00  0.3086420E-02
    1      -21.751747
    2       -9.756313
    3       -7.547472
    4       -6.788096
    5        1.214916
    6        2.005796
    7        2.389419
    8        3.225401
 
 -0.1111111E+00  0.5555556E-01  0.1250000E+00  0.3086420E-02
    1      -22.042605
    2      -10.101831
    3       -6.609406
    4       -6.240872
    5        0.818807
    6        1.604917
    7        1.983814
    8        2.823314
 
 -0.5555556E-01  0.5555556E-01  0.1250000E+00  0.1543210E-02
    1      -22.188349
    2      -10.275551
    3       -6.083772
    4       -5.922121
    5        0.620838
    6        1.404319
    7        1.781076
    8        2.622199
 
  0.1111111E+00  0.1111111E+00  0.1250000E+00  0.1543210E-02
    1      -21.388698
    2       -9.327503
    3       -8.443645
    4       -7.496846
    5        1.711221
    6        2.507114
    7        2.897555
    8        3.728647
 
  0.1666667E+00  0.1111111E+00  0.1250000E+00  0.3086420E-02
    1      -20.884108
    2       -9.581950
    3       -8.736444
    4       -8.236799
    5        2.404102
    6        3.204911
    7        3.607625
    8        4.428358
 
  0.2222222E+00  0.1111111E+00  0.1250000E+00  0.3086420E-02
    1      -20.240692
    2      -10.895931
    3       -8.877371
    4       -7.993987
    5        3.292546
    6        3.409645
    7        4.116594
    8        4.520958
 
  0.2777778E+00  0.1111111E+00  0.1250000E+00  0.3086420E-02
    1      -19.464019
    2      -12.281301
    3       -9.387124
    4       -7.122184
    5        1.974948
    6        4.373024
    7        5.198669
    8        5.634272
 
  0.3333333E+00  0.1111111E+00  0.1250000E+00  0.3086420E-02
    1      -18.564379
    2      -13.655477
    3       -9.757295
    4       -6.170101
    5        0.573367
    6        5.622486
    7        6.035409
    8        6.471153
 
  0.3888889E+00  0.1111111E+00  0.1250000E+00  0.3086420E-02
    1      -17.573160
    2      -14.945339
    3       -9.982149
    4       -5.274359
    5       -0.609973
    6        5.888183
    7        7.112815
    8        7.899150
 
  0.4444444E+00  0.1111111E+00  0.1250000E+00  0.3086420E-02
    1      -16.829075
    2      -15.790846
    3      -10.057912
    4       -4.838152