    2    2    1    1
  0.5265935E+02  0.2466437E-09  0.2466437E-09  0.2000000E-08  0.5000000E-15
  1.000000000000000E-004
  CAR 
 graphite                                
      8    215      8
 
  0.0000000E+00  0.0000000E+00  0.0000000E+00  0.8680556E-03
    1      -22.261120
    2      -10.362494
    3       -5.787685
    4       -5.763450
    5        0.521620
    6        1.314574
    7        1.656113
    8        2.588172
 
  0.8333333E-01  0.6938894E-17  0.0000000E+00  0.3472222E-02
    1      -22.096913
    2      -10.166611
    3       -6.421345
    4       -6.119920
    5        0.744450
    6        1.540279
    7        1.884554
    8        2.814480
 
  0.1666667E+00  0.1387779E-16  0.0000000E+00  0.3472222E-02
    1      -21.606178
    2       -9.584277
    3       -8.060910
    4       -6.912973
    5        1.412872
    6        2.216054
    7        2.569899
    8        3.492225
 
  0.2500000E+00  0.0000000E+00  0.0000000E+00  0.3472222E-02
    1      -20.794658
    2      -10.161290
    3       -8.634671
    4       -7.792828
    5        2.524677
    6        3.326301
    7        3.711819
    8        4.446583
 
  0.3333333E+00  0.2775558E-16  0.0000000E+00  0.3472222E-02
    1      -19.674811
    2      -12.366431
    3       -8.526089
    4       -7.368054
    5        2.163027
    6        4.067034
    7        4.931149
    8        4.957317
 
  0.4166667E+00  0.5551115E-16  0.0000000E+00  0.3472222E-02
    1      -18.278327
    2      -14.467808
    3       -8.998785
    4       -5.947435
    5        0.031324
    6        4.697148
    7        6.077275
    8        6.928441
 
  0.5000000E+00  0.0000000E+00  0.0000000E+00  0.1736111E-02
    1      -17.017858
    2      -15.970947
    3       -9.160936
    4       -5.104340
    5       -1.064491
    6        4.617409
    7        8.378355
    8        8.529892
 
  0.8333333E-01  0.8333333E-01  0.0000000E+00  0.1736111E-02
    1      -21.769205
    2       -9.777176
    3       -7.452820
    4       -6.801167
    5        1.190597
    6        1.991446
    7        2.341794
    8        3.266969
 
  0.1666667E+00  0.8333333E-01  0.0000000E+00  0.3472222E-02
    1      -21.117860
    2       -9.167254
    3       -9.009809
    4       -7.796891
    5        2.081916
    6        2.890044
    7        3.255959
    8        4.168063
 
  0.2500000E+00  0.8333333E-01  0.0000000E+00  0.3472222E-02
    1      -20.151721
    2      -11.243618
    3       -8.682064
    4       -7.895086
    5        3.172624
    6        3.414077
    7        4.256595
    8        4.626332
 
  0.3333333E+00  0.8333333E-01  0.0000000E+00  0.3472222E-02
    1      -18.890199
    2      -13.368502
    3       -9.316791
    4       -6.517272
    5        0.975724
    6        5.154468
    7        5.559736
    8        6.026846
 
  0.4166667E+00  0.8333333E-01  0.0000000E+00  0.3472222E-02
    1      -17.411010
    2      -15.309896
    3       -9.645613
    4       -5.210355
    5       -0.789832
    6        5.356365
    7        7.375937
    8        8.196068
 
  0.5000000E+00  0.8333333E-01  0.0000000E+00  0.3472222E-02
    1      -17.413139
    2      -15.307569
    3       -9.646168
    4       -5.211327
    5       -0.789040
    6        5.357334
    7        7.372340
    8        8.193216
 
 -0.4166667E+00  0.8333333E-01  0.0000000E+00  0.3472222E-02
    1      -18.892223
    2      -13.365987
    3       -9.318208
    4       -6.518840
    5        0.976585
    6        5.152184
    7        5.562075
    8        6.024251
 
 -0.3333333E+00  0.8333333E-01  0.0000000E+00  0.3472222E-02
    1      -20.153362
    2      -11.242233
    3       -8.683166
    4       -7.896523
    5        3.172439
    6        3.411950
    7        4.254493
    8        4.624181
 
 -0.2500000E+00  0.8333333E-01  0.0000000E+00  0.3472222E-02
    1      -21.119048
    2       -9.170286
    3       -9.010916
    4       -7.794071
    5        2.080408
    6        2.888568
    7        3.254419
    8        4.166577
 
 -0.1666667E+00  0.8333333E-01  0.0000000E+00  0.3472222E-02
    1      -21.769930
    2       -9.777867
    3       -7.467292
    4       -6.786884
    5        1.189700
    6        1.990549
    7        2.340872
    8        3.266069
 
 -0.8333333E-01  0.8333333E-01  0.0000000E+00  0.1736111E-02
    1      -22.097149
    2      -10.166833
    3       -6.439490
    4       -6.101695
    5        0.744152
    6        1.539980
    7        1.884246
    8        2.814181
 
  0.1666667E+00  0.1666667E+00  0.0000000E+00  0.1736111E-02
    1      -20.311794
    2      -10.499568
    3       -9.159254
    4       -8.073403
    5        3.194644
    6        3.627715
    7        4.007556
    8        4.398953
 
  0.2500000E+00  0.1666667E+00  0.0000000E+00  0.3472222E-02
    1      -19.202484
    2      -12.230248
    3      -10.214808
    4       -6.821712
    5        1.682087
    6        4.743025
    7        5.551135
    8        5.997952
 
  0.3333333E+00  0.1666667E+00  0.0000000E+00  0.3472222E-02
    1      -17.825699
    2      -14.142908
    3      -10.790862
    4       -5.397080
    5       -0.227613
    6        6.698135
    7        7.274833
    8        7.445332
 
  0.4166667E+00  0.1666667E+00  0.0000000E+00  0.3472222E-02
    1      -16.596190
    2      -15.573001
    3      -10.976293
    4       -4.507279
    5       -1.292998
    6        7.166724
    7        8.864107
    8        8.938158
 
  0.5000000E+00  0.1666667E+00  0.0000000E+00  0.3472222E-02
    1      -17.829974
    2      -14.138483
    3      -10.791620
    4       -5.399929
    5       -0.226119
    6        6.692021
    7        7.277452
    8        7.440396
 
 -0.4166667E+00  0.1666667E+00  0.0000000E+00  0.3472222E-02
    1      -19.206137
    2      -12.228771
    3      -10.213704
    4       -6.824738
    5        1.681844
    6        4.738083
    7        5.546584
    8        5.993016
 
 -0.3333333E+00  0.1666667E+00  0.0000000E+00  0.3472222E-02
    1      -20.314596
    2      -10.507853
    3       -9.149344
    4       -8.075930
    5        3.190992
    6        3.624612
    7        4.004047
    8        4.395255
 
 -0.2500000E+00  0.1666667E+00  0.0000000E+00  0.3472222E-02
    1      -21.119751
    2       -9.183675
    3       -9.011595
    4       -7.779211
    5        2.079513
    6        2.887656
    7        3.253499
    8        4.165635
 
 -0.1666667E+00  0.1666667E+00  0.0000000E+00  0.1736111E-02
    1      -21.607128
    2       -9.585194
    3       -8.079137
    4       -6.893641
    5        1.411677
    6        2.214855
    7        2.568670
    8        3.491019
 
  0.2500000E+00  0.2500000E+00  0.0000000E+00  0.1736111E-02
    1      -17.972928
    2      -13.268322
    3      -11.698256
    4       -5.480703
    5        0.068354
    6        6.491391
    7        7.159552
    8        7.824091
 
  0.3333333E+00  0.2500000E+00  0.0000000E+00  0.3472222E-02
    1      -16.550852
    2      -14.690939
    3      -12.405377
    4       -4.097612
    5       -1.450257
    6        8.132677
    7        8.583409
    8        9.439136
 
  0.4166667E+00  0.2500000E+00  0.0000000E+00  0.3472222E-02
    1      -16.556546
    2      -14.686742
    3      -12.403896
    4       -4.100731
    5       -1.448698
    6        8.132152
    7        8.572294
    8        9.440361
 
  0.5000000E+00  0.2500000E+00  0.0000000E+00  0.3472222E-02
    1      -17.978717
    2      -13.271398
    3      -11.689429
    4       -5.485155
    5        0.067919
    6        6.482907
    7        7.153651
    8        7.815750
 
 -0.4166667E+00  0.2500000E+00  0.0000000E+00  0.3472222E-02
    1      -19.207227
    2      -12.240965
    3      -10.199185
    4       -6.825817
    5        1.677990
    6        4.736612
    7        5.545317
    8        5.991494
 
 -0.3333333E+00  0.2500000E+00  0.0000000E+00  0.3472222E-02
    1      -20.155180
    2      -11.258115
    3       -8.663328
    4       -7.898277
    5        3.165505
    6        3.409603
    7        4.252271
    8        4.621752
 
 -0.2500000E+00  0.2500000E+00  0.0000000E+00  0.1736111E-02
    1      -20.796755
    2      -10.178207
    3       -8.636673
    4       -7.772428
    5        2.522012
    6        3.323500
    7        3.709068
    8        4.440216
 
  0.3333333E+00  0.3333333E+00  0.0000000E+00  0.1736111E-02
    1      -15.338092
    2      -15.337125
    3      -13.293627
    4       -2.748099
    5       -2.744612
    6        7.873619
    7       10.131978
    8       10.150228
 
  0.4166667E+00  0.3333333E+00  0.0000000E+00  0.3472222E-02
    1      -16.557359
    2      -14.697504
    3      -12.391501
    4       -4.102596
    5       -1.450711
    6        8.134786
    7        8.570855
    8        9.480175
 
  0.5000000E+00  0.3333333E+00  0.0000000E+00  0.3472222E-02
    1      -17.832245
    2      -14.152338
    3      -10.773366
    4       -5.402451
    5       -0.232045
    6        6.689665
    7        7.316669
    8        7.438288
 
 -0.4166667E+00  0.3333333E+00  0.0000000E+00  0.3472222E-02
    1      -18.895472
    2      -13.380701
    3       -9.297002
    4       -6.521952
    5        0.968051
    6        5.150955
    7        5.596348
    8        6.020147
 
 -0.3333333E+00  0.3333333E+00  0.0000000E+00  0.1736111E-02
    1      -19.678405
    2      -12.381280
    3       -8.504795
    4       -7.371428
    5        2.153988
    6        4.062991
    7        4.926537
    8        4.992685
 
  0.4166667E+00  0.4166667E+00  0.0000000E+00  0.1736111E-02
    1      -16.599199
    2      -15.586155
    3      -10.957831
    4       -4.512017
    5       -1.298256
    6        7.209303
    7        8.867644
    8        8.925794
 
  0.5000000E+00  0.4166667E+00  0.0000000E+00  0.3472222E-02
    1      -17.417149
    2      -15.321063
    3       -9.624869
    4       -5.215929
    5       -0.797497
    6        5.397231
    7        7.365060
    8        8.187644
 
 -0.4166667E+00  0.4166667E+00  0.0000000E+00  0.1736111E-02
    1      -18.283434
    2      -14.480622
    3       -8.976903
    4       -5.952209
    5        0.022169
    6        4.735833
    7        6.069846
    8        6.921517
 
  0.5000000E+00  0.5000000E+00  0.0000000E+00  0.8680556E-03
    1      -17.021664
    2      -15.984864
    3       -9.138855
    4       -5.109828
    5       -1.073374
    6        4.656954
    7        8.365234
    8        8.521102
 
  0.0000000E+00  0.0000000E+00  0.1250000E+00  0.1736111E-02
    1      -22.261123
    2      -10.362500
    3       -5.787701
    4       -5.763450
    5        0.521978
    6        1.304203
    7        1.680454
    8        2.521853
 
  0.8333333E-01  0.6938894E-17  0.1250000E+00  0.6944444E-02
    1      -22.096916
    2      -10.166616
    3       -6.421337
    4       -6.119925
    5        0.744800
    6        1.530088
    7        1.908683
    8        2.748289
 
  0.1666667E+00  0.1387779E-16  0.1250000E+00  0.6944444E-02
    1      -21.606166
    2       -9.584262
    3       -8.060904
    4       -6.912976
    5        1.413199
    6        2.206449
    7        2.593308
    8        3.426690
 
  0.2500000E+00  0.0000000E+00  0.1250000E+00  0.6944444E-02
    1      -20.794667
    2      -10.161304
    3       -8.634670
    4       -7.792833
    5        2.524966
    6        3.318373
    7        3.732595
    8        4.435558
 
  0.3333333E+00  0.2775558E-16  0.1250000E+00  0.6944444E-02
    1      -19.674805
    2      -12.366427
    3       -8.526077
    4       -7.368061
    5        2.163026
    6        4.067261
    7        4.922805
    8        4.958074
 
  0.4166667E+00  0.5551115E-16  0.1250000E+00  0.6944444E-02
    1      -18.278326
    2      -14.467812
    3       -8.998773
    4       -5.947429
    5        0.031324
    6        4.697154
    7        6.077467
    8        6.922642
 
  0.5000000E+00  0.0000000E+00  0.1250000E+00  0.3472222E-02
    1      -17.017864
    2      -15.970933
    3       -9.160934
    4       -5.104347
    5       -1.064486
    6        4.617414
    7        8.378448
    8        8.530040
 
  0.8333333E-01  0.8333333E-01  0.1250000E+00  0.3472222E-02
    1      -21.769204
    2       -9.777174
    3       -7.452811
    4       -6.801173
    5        1.190931
    6        1.981632
    7        2.365465
    8        3.201182
 
  0.1666667E+00  0.8333333E-01  0.1250000E+00  0.6944444E-02
    1      -21.117858
    2       -9.167246
    3       -9.009807
    4       -7.796871
    5        2.082221
    6        2.881107
    7        3.278503
    8        4.103962
 
  0.2500000E+00  0.8333333E-01  0.1250000E+00  0.6944444E-02
    1      -20.151712
    2      -11.243601
    3       -8.682054
    4       -7.895073
    5        3.172623
    6        3.414338
    7        4.248190
    8        4.648204
 
  0.3333333E+00  0.8333333E-01  0.1250000E+00  0.6944444E-02
    1      -18.890188
    2      -13.368505
    3       -9.316791
    4       -6.517265
    5        0.975722
    6        5.154639
    7        5.559813
    8        6.020659
 
  0.4166667E+00  0.8333333E-01  0.1250000E+00  0.6944444E-02
    1      -17.411006
    2      -15.309936
    3       -9.645606
    4       -5.210363
    5       -0.789840
    6        5.356357
    7        7.376084
    8        8.192690
 
  0.5000000E+00  0.8333333E-01  0.1250000E+00  0.6944444E-02
    1      -17.413129
    2      -15.307569
    3       -9.646166
    4       -5.211337
    5       -0.789048
    6        5.357329
    7        7.372487
    8        8.189829
 
 -0.4166667E+00  0.8333333E-01  0.1250000E+00  0.6944444E-02
    1      -18.892247
    2      -13.365999
    3       -9.318208
    4       -6.518832
    5        0.976584
    6        5.152355
    7        5.562150
    8        6.018058
 
 -0.3333333E+00  0.8333333E-01  0.1250000E+00  0.6944444E-02
    1      -20.153356
    2      -11.242230
    3       -8.683170
    4       -7.896511
    5        3.172437
    6        3.412211
    7        4.246085
    8        4.646057
 
 -0.2500000E+00  0.8333333E-01  0.1250000E+00  0.6944444E-02
    1      -21.119046
    2       -9.170286
    3       -9.010912
    4       -7.794058
    5        2.080713
    6        2.879627
    7        3.276969
    8        4.102472
 
 -0.1666667E+00  0.8333333E-01  0.1250000E+00  0.6944444E-02
    1      -21.769924
    2       -9.777865
    3       -7.467280
    4       -6.786885
    5        1.190034
    6        1.980733
    7        2.364544
    8        3.200278
 
 -0.8333333E-01  0.8333333E-01  0.1250000E+00  0.3472222E-02
    1      -22.097154
    2      -10.166849
    3       -6.439483
    4       -6.101702
    5        0.744502
    6        1.529787
    7        1.908376
    8        2.747987
 
  0.1666667E+00  0.1666667E+00  0.1250000E+00  0.3472222E-02
    1      -20.311804
    2      -10.499592
    3       -9.159265
    4       -8.073403
    5        3.194914
    6        3.627713
    7        3.999834
    8        4.419848
 
  0.2500000E+00  0.1666667E+00  0.1250000E+00  0.6944444E-02
    1      -19.202469
    2      -12.230251
    3      -10.214801
    4       -6.821713
    5        1.682086
    6        4.743246
    7        5.545461
    8        6.015751
 
  0.3333333E+00  0.1666667E+00  0.1250000E+00  0.6944444E-02
    1      -17.825686
    2      -14.142915
    3      -10.790867
    4       -5.397073
    5       -0.227615
    6        6.698281
    7        7.274878
    8        7.442870
 
  0.4166667E+00  0.1666667E+00  0.1250000E+00  0.6944444E-02
    1      -16.596176
    2      -15.572963
    3      -10.976276
    4       -4.507281
    5       -1.292997
    6        7.166729
    7        8.864077
    8        8.938211
 
  0.5000000E+00  0.1666667E+00  0.1250000E+00  0.6944444E-02
    1      -17.829959
    2      -14.138490
    3      -10.791616
    4       -5.399922
    5       -0.226120
    6        6.692168
    7        7.277498
    8        7.437919
 
 -0.4166667E+00  0.1666667E+00  0.1250000E+00  0.6944444E-02
    1      -19.206145
    2      -12.228780
    3      -10.213704
    4       -6.824749
    5        1.681843
    6        4.738304
    7        5.540897
    8        6.010807
 
 -0.3333333E+00  0.1666667E+00  0.1250000E+00  0.6944444E-02
    1      -20.314608
    2      -10.507870
    3       -9.149336
    4       -8.075937
    5        3.191262
    6        3.624610
    7        3.996318
    8        4.416163
 
 -0.2500000E+00  0.1666667E+00  0.1250000E+00  0.6944444E-02
    1      -21.119746
    2       -9.183666
    3       -9.011590
    4       -7.779191
    5        2.079817
    6        2.878715
    7        3.276048
    8        4.101545
 
 -0.1666667E+00  0.1666667E+00  0.1250000E+00  0.3472222E-02
    1      -21.607113
    2       -9.585175
    3       -8.079131
    4       -6.893643
    5        1.412004
    6        2.205248
    7        2.592082
    8        3.425481
 
  0.2500000E+00  0.2500000E+00  0.1250000E+00  0.3472222E-02
    1      -17.972891
    2      -13.268317
    3      -11.698253
    4       -5.480691
    5        0.068358
    6        6.491555
    7        7.157667
    8        7.833021
 
  0.3333333E+00  0.2500000E+00  0.1250000E+00  0.6944444E-02
    1      -16.550835
    2      -14.690938
    3      -12.405370
    4       -4.097607
    5       -1.450254
    6        8.132670
    7        8.583489
    8        9.439188
 
  0.4166667E+00  0.2500000E+00  0.1250000E+00  0.6944444E-02
    1      -16.556538
    2      -14.686755
    3      -12.403892
    4       -4.100725
    5       -1.448698
    6        8.132144
    7        8.572374
    8        9.440414
 
  0.5000000E+00  0.2500000E+00  0.1250000E+00  0.6944444E-02
    1      -17.978692
    2      -13.271396
    3      -11.689427
    4       -5.485142
    5        0.067925
    6        6.483071
    7        7.151744
    8        7.824764
 
 -0.4166667E+00  0.2500000E+00  0.1250000E+00  0.6944444E-02
    1      -19.207226
    2      -12.240962
    3      -10.199184
    4       -6.825820
    5        1.677991
    6        4.736833
    7        5.539622
    8        6.009299
 
 -0.3333333E+00  0.2500000E+00  0.1250000E+00  0.6944444E-02
    1      -20.155172
    2      -11.258113
    3       -8.663330
    4       -7.898264
    5        3.165504
    6        3.409864
    7        4.243852
    8        4.643646
 
 -0.2500000E+00  0.2500000E+00  0.1250000E+00  0.3472222E-02
    1      -20.796760
    2      -10.178237
    3       -8.636678
    4       -7.772440
    5        2.522301
    6        3.315574
    7        3.729835
    8        4.429718
 
  0.3333333E+00  0.3333333E+00  0.1250000E+00  0.3472222E-02
    1      -15.338095
    2      -15.337127
    3      -13.293628
    4       -2.748100
    5       -2.744617
    6        7.873619
    7       10.131981
    8       10.150231
 
  0.4166667E+00  0.3333333E+00  0.1250000E+00  0.6944444E-02
    1      -16.557352
    2      -14.697519
    3      -12.391502
    4       -4.102593
    5       -1.450714
    6        8.134777
    7        8.570936
    8        9.480228
 
  0.5000000E+00  0.3333333E+00  0.1250000E+00  0.6944444E-02
    1      -17.832230
    2      -14.152347
    3      -10.773362
    4       -5.402448
    5       -0.232047
    6        6.689812
    7        7.316716
    8        7.435792
 
 -0.4166667E+00  0.3333333E+00  0.1250000E+00  0.6944444E-02
    1      -18.895461
    2      -13.380701
    3       -9.296996
    4       -6.521943
    5        0.968051
    6        5.151131
    7        5.596424
    8        6.013939
 
 -0.3333333E+00  0.3333333E+00  0.1250000E+00  0.3472222E-02
    1      -19.678426
    2      -12.381276
    3       -8.504790
    4       -7.371436
    5        2.153986
    6        4.063219
    7        4.918365
    8        4.993337
 
  0.4166667E+00  0.4166667E+00  0.1250000E+00  0.3472222E-02
    1      -16.599206
    2      -15.586161
    3      -10.957835
    4       -4.512018
    5       -1.298255
    6        7.209307
    7        8.867611
    8        8.925849
 
  0.5000000E+00  0.4166667E+00  0.1250000E+00  0.6944444E-02
    1      -17.417140
    2      -15.321079
    3       -9.624887
    4       -5.215939
    5       -0.797503
    6        5.397228
    7        7.365207
    8        8.184225
 
 -0.4166667E+00  0.4166667E+00  0.1250000E+00  0.3472222E-02
    1      -18.283429
    2      -14.480615
    3       -8.976893
    4       -5.952200
    5        0.022171
    6        4.735852
    7        6.070038
    8        6.915694
 
  0.5000000E+00  0.5000000E+00  0.1250000E+00  0.1736111E-02
    1      -17.021660
    2      -15.984833
    3       -9.138851
    4       -5.109831
    5       -1.073369
    6        4.656960
    7        8.365326
    8        8.521252
 
  0.0000000E+00  0.0000000E+00  0.2500000E+00  0.1736111E-02
    1      -22.261128
    2      -10.362510
    3       -5.787709
    4       -5.763474
    5        0.522849
    6        1.282523
    7        1.741429
    8        2.396253
 
  0.8333333E-01  0.6938894E-17  0.2500000E+00  0.6944444E-02
    1      -22.096915
    2      -10.166617
    3       -6.421351
    4       -6.119934
    5        0.745651
    6        1.508728
    7        1.969232
    8        2.622944
 
  0.1666667E+00  0.1387779E-16  0.2500000E+00  0.6944444E-02
    1      -21.606168
    2       -9.584278
    3       -8.060906
    4       -6.912982
    5        1.413992
    6        2.186149
    7        2.652376
    8        3.302496
 
  0.2500000E+00  0.0000000E+00  0.2500000E+00  0.6944444E-02
    1      -20.794670
    2      -10.161292
    3       -8.634667
    4       -7.792825
    5        2.525666
    6        3.301178
    7        3.785553
    8        4.389227
 
  0.3333333E+00  0.2775558E-16  0.2500000E+00  0.6944444E-02
    1      -19.674798
    2      -12.366404
    3       -8.526065
    4       -7.368053
    5        2.163025
    6        4.067812
    7        4.905486
    8        4.958922
 
  0.4166667E+00  0.5551115E-16  0.2500000E+00  0.6944444E-02
    1      -18.278314
    2      -14.467798
    3       -8.998757
    4       -5.947442
    5        0.031327
    6        4.697153
    7        6.077933
    8        6.909678
 
  0.5000000E+00  0.0000000E+00  0.2500000E+00  0.3472222E-02
    1      -17.017847
    2      -15.970887
    3       -9.160936
    4       -5.104344
    5       -1.064483
    6        4.617428
    7        8.378673
    8        8.530400
 
  0.8333333E-01  0.8333333E-01  0.2500000E+00  0.3472222E-02
    1      -21.769204
    2       -9.777171
    3       -7.452803
    4       -6.801207
    5        1.191744
    6        1.960952
    7        2.425073
    8        3.076541
 
  0.1666667E+00  0.8333333E-01  0.2500000E+00  0.6944444E-02
    1      -21.117854
    2       -9.167237
    3       -9.009795
    4       -7.796874
    5        2.082961
    6        2.862027
    7        3.335717
    8        3.981874
 
  0.2500000E+00  0.8333333E-01  0.2500000E+00  0.6944444E-02
    1      -20.151712
    2      -11.243595
    3       -8.682049
    4       -7.895064
    5        3.172618
    6        3.414970
    7        4.230146
    8        4.704062
 
  0.3333333E+00  0.8333333E-01  0.2500000E+00  0.6944444E-02
    1      -18.890201
    2      -13.368489
    3       -9.316778
    4       -6.517278
    5        0.975722
    6        5.155053
    7        5.560011
    8        6.006883
 
  0.4166667E+00  0.8333333E-01  0.2500000E+00  0.6944444E-02
    1      -17.410995
    2      -15.309923
    3       -9.645592
    4       -5.210365
    5       -0.789833
    6        5.356364
    7        7.376439
    8        8.184859
 
  0.5000000E+00  0.8333333E-01  0.2500000E+00  0.6944444E-02
    1      -17.413119
    2      -15.307571
    3       -9.646158
    4       -5.211338
    5       -0.789041
    6        5.357335
    7        7.372843
    8        8.181978
 
 -0.4166667E+00  0.8333333E-01  0.2500000E+00  0.6944444E-02
    1      -18.892248
    2      -13.365976
    3       -9.318201
    4       -6.518846
    5        0.976583
    6        5.152771
    7        5.562348
    8        6.004270
 
 -0.3333333E+00  0.8333333E-01  0.2500000E+00  0.6944444E-02
    1      -20.153352
    2      -11.242208
    3       -8.683150
    4       -7.896505
    5        3.172433
    6        3.412844
    7        4.228036
    8        4.701922
 
 -0.2500000E+00  0.8333333E-01  0.2500000E+00  0.6944444E-02
    1      -21.119043
    2       -9.170284
    3       -9.010902
    4       -7.794061
    5        2.081453
    6        2.860542
    7        3.334193
    8        3.980371
 
 -0.1666667E+00  0.8333333E-01  0.2500000E+00  0.6944444E-02
    1      -21.769924
    2       -9.777861
    3       -7.467249
    4       -6.786916
    5        1.190847
    6        1.960050
    7        2.424157
    8        3.075633
 
 -0.8333333E-01  0.8333333E-01  0.2500000E+00  0.3472222E-02
    1      -22.097154
    2      -10.166850
    3       -6.439494
    4       -6.101714
    5        0.745353
    6        1.508427
    7        1.968926
    8        2.622641
 
  0.1666667E+00  0.1666667E+00  0.2500000E+00  0.3472222E-02
    1      -20.311807
    2      -10.499613
    3       -9.159262
    4       -8.073409
    5        3.195569
    6        3.627713
    7        3.983043
    8        4.473426
 
  0.2500000E+00  0.1666667E+00  0.2500000E+00  0.6944444E-02
    1      -19.202475
    2      -12.230234
    3      -10.214795
    4       -6.821733
    5        1.682085
    6        4.743781
    7        5.532732
    8        6.061951
 
  0.3333333E+00  0.1666667E+00  0.2500000E+00  0.6944444E-02
    1      -17.825689
    2      -14.142935
    3      -10.790857
    4       -5.397091
    5       -0.227613
    6        6.698635
    7        7.274995
    8        7.437070
 
  0.4166667E+00  0.1666667E+00  0.2500000E+00  0.6944444E-02
    1      -16.596176
    2      -15.572952
    3      -10.976283
    4       -4.507285
    5       -1.293007
    6        7.166723
    7        8.863999
    8        8.938357
 
  0.5000000E+00  0.1666667E+00  0.2500000E+00  0.6944444E-02
    1      -17.829974
    2      -14.138517
    3      -10.791632
    4       -5.399941
    5       -0.226123
    6        6.692522
    7        7.277611
    8        7.432087
 
 -0.4166667E+00  0.1666667E+00  0.2500000E+00  0.6944444E-02
    1      -19.206135
    2      -12.228768
    3      -10.213704
    4       -6.824763
    5        1.681842
    6        4.738839
    7        5.528147
    8        6.057085
 
 -0.3333333E+00  0.1666667E+00  0.2500000E+00  0.6944444E-02
    1      -20.314609
    2      -10.507884
    3       -9.149337
    4       -8.075947
    5        3.191918
    6        3.624610
    7        3.979512
    8        4.469768
 
 -0.2500000E+00  0.1666667E+00  0.2500000E+00  0.6944444E-02
    1      -21.119744
    2       -9.183662
    3       -9.011581
    4       -7.779188
    5        2.080558
    6        2.859629
    7        3.333272
    8        3.979455
 
 -0.1666667E+00  0.1666667E+00  0.2500000E+00  0.3472222E-02
    1      -21.607113
    2       -9.585191
    3       -8.079149
    4       -6.893642
    5        1.412798
    6        2.184944
    7        2.651153
    8        3.301287
 
  0.2500000E+00  0.2500000E+00  0.2500000E+00  0.3472222E-02
    1      -17.972882
    2      -13.268304
    3      -11.698240
    4       -5.480685
    5        0.068357
    6        6.491950
    7        7.153198
    8        7.855912
 
  0.3333333E+00  0.2500000E+00  0.2500000E+00  0.6944444E-02
    1      -16.550817
    2      -14.690953
    3      -12.405362
    4       -4.097605
    5       -1.450249
    6        8.132649
    7        8.583681
    8        9.439301
 
  0.4166667E+00  0.2500000E+00  0.2500000E+00  0.6944444E-02
    1      -16.556522
    2      -14.686753
    3      -12.403892
    4       -4.100726
    5       -1.448690
    6        8.132122
    7        8.572566
    8        9.440534
 
  0.5000000E+00  0.2500000E+00  0.2500000E+00  0.6944444E-02
    1      -17.978671
    2      -13.271395
    3      -11.689402
    4       -5.485139
    5        0.067923
    6        6.483466
    7        7.147225
    8        7.847882
 
 -0.4166667E+00  0.2500000E+00  0.2500000E+00  0.6944444E-02
    1      -19.207225
    2      -12.240958
    3      -10.199169
    4       -6.825838
    5        1.677990
    6        4.737369
    7        5.526857
    8        6.055608
 
 -0.3333333E+00  0.2500000E+00  0.2500000E+00  0.6944444E-02
    1      -20.155170
    2      -11.258083
    3       -8.663309
    4       -7.898254
    5        3.165499
    6        3.410497
    7        4.225782
    8        4.699541
 
 -0.2500000E+00  0.2500000E+00  0.2500000E+00  0.3472222E-02
    1      -20.796770
    2      -10.178224
    3       -8.636670
    4       -7.772439
    5        2.523002
    6        3.298384
    7        3.782758
    8        4.385145
 
  0.3333333E+00  0.3333333E+00  0.2500000E+00  0.3472222E-02
    1      -15.338106
    2      -15.337137
    3      -13.293667
    4       -2.748115
    5       -2.744625
    6        7.873618
    7       10.131988
    8       10.150239
 
  0.4166667E+00  0.3333333E+00  0.2500000E+00  0.6944444E-02
    1      -16.557365
    2      -14.697534
    3      -12.391520
    4       -4.102593
    5       -1.450706
    6        8.134754
    7        8.571128
    8        9.480359
 
  0.5000000E+00  0.3333333E+00  0.2500000E+00  0.6944444E-02
    1      -17.832243
    2      -14.152372
    3      -10.773372
    4       -5.402464
    5       -0.232048
    6        6.690170
    7        7.316835
    8        7.429918
 
 -0.4166667E+00  0.3333333E+00  0.2500000E+00  0.6944444E-02
    1      -18.895451
    2      -13.380681
    3       -9.296999
    4       -6.521958
    5        0.968049
    6        5.151558
    7        5.596618
    8        6.000119
 
 -0.3333333E+00  0.3333333E+00  0.2500000E+00  0.3472222E-02
    1      -19.678417
    2      -12.381260
    3       -8.504774
    4       -7.371427