    2    2    1    1
  0.5265935E+02  0.2466437E-09  0.2466437E-09  0.2000000E-08  0.5000000E-15
  1.000000000000000E-004
  CAR 
 graphite                                
      8    455      8
 
  0.0000000E+00  0.0000000E+00  0.0000000E+00  0.3858025E-03
    1      -22.261257
    2      -10.362607
    3       -5.785592
    4       -5.765899
    5        0.521594
    6        1.314418
    7        1.655287
    8        2.588027
 
  0.5555556E-01  0.3469447E-17  0.0000000E+00  0.1543210E-02
    1      -22.188233
    2      -10.275423
    3       -6.069237
    4       -5.936687
    5        0.620624
    6        1.414754
    7        1.756814
    8        2.688626
 
  0.1111111E+00  0.6938894E-17  0.0000000E+00  0.1543210E-02
    1      -21.969545
    2      -10.014935
    3       -6.887050
    4       -6.352773
    5        0.917765
    6        1.715545
    7        2.061412
    8        2.990245
 
  0.1666667E+00  0.1387779E-16  0.0000000E+00  0.1543210E-02
    1      -21.606315
    2       -9.584374
    3       -8.061983
    4       -6.912268
    5        1.412859
    6        2.215908
    7        2.569075
    8        3.492082
 
  0.2222222E+00  0.2775558E-16  0.0000000E+00  0.1543210E-02
    1      -21.100372
    2       -9.437006
    3       -8.990008
    4       -7.506793
    5        2.105128
    6        2.912305
    7        3.279691
    8        4.188282
 
  0.2777778E+00  0.2775558E-16  0.0000000E+00  0.1543210E-02
    1      -20.454836
    2      -10.897833
    3       -8.243571
    4       -8.060394
    5        2.992604
    6        3.598216
    7        3.942194
    8        4.192672
 
  0.3333333E+00  0.8326673E-16  0.0000000E+00  0.1543210E-02
    1      -19.674898
    2      -12.367344
    3       -8.525569
    4       -7.368071
    5        2.162624
    6        4.067085
    7        4.930980
    8        4.958143
 
  0.3888889E+00  0.2775558E-16  0.0000000E+00  0.1543210E-02
    1      -18.770255
    2      -13.790624
    3       -8.873644
    4       -6.415432
    5        0.690214
    6        4.749046
    7        5.383006
    8        6.215187
 
  0.4444444E+00  0.5551115E-16  0.0000000E+00  0.1543210E-02
    1      -17.771266
    2      -15.110188
    3       -9.088159
    4       -5.528445
    5       -0.527617
    6        4.654722
    7        6.825373
    8        7.685475
 
  0.5000000E+00  0.5551115E-16  0.0000000E+00  0.7716049E-03
    1      -17.016528
    2      -15.973205
    3       -9.160472
    4       -5.104069
    5       -1.065226
    6        4.618278
    7        8.378004
    8        8.530200
 
  0.5555556E-01  0.5555556E-01  0.0000000E+00  0.7716049E-03
    1      -22.042270
    2      -10.101493
    3       -6.596568
    4       -6.253568
    5        0.818876
    6        1.615460
    7        1.960019
    8        2.889881
 
  0.1111111E+00  0.5555556E-01  0.0000000E+00  0.1543210E-02
    1      -21.751216
    2       -9.755789
    3       -7.542608
    4       -6.792668
    5        1.215273
    6        2.016265
    7        2.366313
    8        3.291866
 
  0.1666667E+00  0.5555556E-01  0.0000000E+00  0.1543210E-02
    1      -21.316520
    2       -9.242872
    3       -8.777041
    4       -7.411439
    5        1.809377
    6        2.615622
    7        2.975658
    8        3.892942
 
  0.2222222E+00  0.5555556E-01  0.0000000E+00  0.1543210E-02
    1      -20.740669
    2      -10.169330
    3       -8.571340
    4       -8.012061
    5        2.599980
    6        3.401861
    7        3.787875
    8        4.394917
 
  0.2777778E+00  0.5555556E-01  0.0000000E+00  0.1543210E-02
    1      -20.027657
    2      -11.619517
    3       -8.536905
    4       -7.757281
    5        2.874341
    6        3.584203
    7        4.434162
    8        4.801371
 
  0.3333333E+00  0.5555556E-01  0.0000000E+00  0.1543210E-02
    1      -19.184621
    2      -13.058094
    3       -8.952114
    4       -6.834027
    5        1.376432
    6        4.740910
    7        5.208656
    8        5.616868
 
  0.3888889E+00  0.5555556E-01  0.0000000E+00  0.1543210E-02
    1      -18.227107
    2      -14.430434
    3       -9.238016
    4       -5.884630
    5        0.010299
    6        5.023778
    7        6.151700
    8        6.991859
 
  0.4444444E+00  0.5555556E-01  0.0000000E+00  0.1543210E-02
    1      -17.237537
    2      -15.632432
    3       -9.383626
    4       -5.154953
    5       -0.936833
    6        4.955077
    7        7.687497
    8        8.529967
 
  0.5000000E+00  0.5555556E-01  0.0000000E+00  0.1543210E-02
    1      -17.238878
    2      -15.630886
    3       -9.383979
    4       -5.155454
    5       -0.936361
    6        4.955545
    7        7.685008
    8        8.527917
 
 -0.4444444E+00  0.5555556E-01  0.0000000E+00  0.1543210E-02
    1      -18.228637
    2      -14.428429
    3       -9.239022
    4       -5.885663
    5        0.011189
    6        5.025130
    7        6.149621
    8        6.989915
 
 -0.3888889E+00  0.5555556E-01  0.0000000E+00  0.1543210E-02
    1      -19.185988
    2      -13.056021
    3       -8.953658
    4       -6.835152
    5        1.377216
    6        4.739337
    7        5.210695
    8        5.615136
 
 -0.3333333E+00  0.5555556E-01  0.0000000E+00  0.1543210E-02
    1      -20.028833
    2      -11.617609
    3       -8.538698
    4       -7.758339
    5        2.874728
    6        3.582694
    7        4.432663
    8        4.799879
 
 -0.2777778E+00  0.5555556E-01  0.0000000E+00  0.1543210E-02
    1      -20.741629
    2      -10.168090
    3       -8.572249
    4       -8.013499
    5        2.598743
    6        3.400733
    7        3.786641
    8        4.394622
 
 -0.2222222E+00  0.5555556E-01  0.0000000E+00  0.1543210E-02
    1      -21.317266
    2       -9.243603
    3       -8.777599
    4       -7.411228
    5        1.808416
    6        2.614693
    7        2.974697
    8        3.892012
 
 -0.1666667E+00  0.5555556E-01  0.0000000E+00  0.1543210E-02
    1      -21.751748
    2       -9.756327
    3       -7.547452
    4       -6.788099
    5        1.214586
    6        2.015596
    7        2.365627
    8        3.291188
 
 -0.1111111E+00  0.5555556E-01  0.0000000E+00  0.1543210E-02
    1      -22.042598
    2      -10.101825
    3       -6.609395
    4       -6.240869
    5        0.818463
    6        1.615057
    7        1.959607
    8        2.889475
 
 -0.5555556E-01  0.5555556E-01  0.0000000E+00  0.7716049E-03
    1      -22.188341
    2      -10.275536
    3       -6.083773
    4       -5.922135
    5        0.620486
    6        1.414620
    7        1.756677
    8        2.688492
 
  0.1111111E+00  0.1111111E+00  0.0000000E+00  0.7716049E-03
    1      -21.388696
    2       -9.327504
    3       -8.443654
    4       -7.496842
    5        1.710907
    6        2.516460
    7        2.874334
    8        3.793740
 
  0.1666667E+00  0.1111111E+00  0.0000000E+00  0.1543210E-02
    1      -20.884111
    2       -9.581959
    3       -8.736456
    4       -8.236787
    5        2.403811
    6        3.213517
    7        3.585394
    8        4.490865
 
  0.2222222E+00  0.1111111E+00  0.0000000E+00  0.1543210E-02
    1      -20.240691
    2      -10.895961
    3       -8.877367
    4       -7.993981
    5        3.292283
    6        3.409659
    7        4.124785
    8        4.499269
 
  0.2777778E+00  0.1111111E+00  0.0000000E+00  0.1543210E-02
    1      -19.464014
    2      -12.281271
    3       -9.387106
    4       -7.122165
    5        1.974951
    6        4.372798
    7        5.205492
    8        5.614426
 
  0.3333333E+00  0.1111111E+00  0.0000000E+00  0.1543210E-02
    1      -18.564376
    2      -13.655494
    3       -9.757311
    4       -6.170099
    5        0.573372
    6        5.622327
    7        6.035349
    8        6.476357
 
  0.3888889E+00  0.1111111E+00  0.0000000E+00  0.1543210E-02
    1      -17.573149
    2      -14.945311
    3       -9.982141
    4       -5.274355
    5       -0.609965
    6        5.888195
    7        7.112665
    8        7.902304
 
  0.4444444E+00  0.1111111E+00  0.0000000E+00  0.1543210E-02
    1      -16.829074
    2      -15.790844
    3      -10.057893
    4       -4.838155
    5       -1.145113
    6        5.854405
    7        8.631784
    8        8.802213
 
  0.5000000E+00  0.1111111E+00  0.0000000E+00  0.1543210E-02
    1      -17.576246
    2      -14.941606
    3       -9.983277
    4       -5.276069
    5       -0.608522
    6        5.889778
    7        7.108110
    8        7.898436
 
 -0.4444444E+00  0.1111111E+00  0.0000000E+00  0.1543210E-02
    1      -18.567295
    2      -13.651461
    3       -9.759376
    4       -6.172316
    5        0.574917
    6        5.618832
    7        6.038167
    8        6.472726
 
 -0.3888889E+00  0.1111111E+00  0.0000000E+00  0.1543210E-02
    1      -19.466546
    2      -12.277587
    3       -9.389642
    4       -7.124359
    5        1.975830
    6        4.369481
    7        5.202292
    8        5.611158
 
 -0.3333333E+00  0.1111111E+00  0.0000000E+00  0.1543210E-02
    1      -20.242811
    2      -10.893632
    3       -8.879142
    4       -7.995949
    5        3.289528
    6        3.409469
    7        4.122027
    8        4.496524
 
 -0.2777778E+00  0.1111111E+00  0.0000000E+00  0.1543210E-02
    1      -20.885807
    2       -9.583391
    3       -8.738097
    4       -8.235214
    5        2.401614
    6        3.211413
    7        3.583198
    8        4.488822
 
 -0.2222222E+00  0.1111111E+00  0.0000000E+00  0.1543210E-02
    1      -21.389974
    2       -9.328773
    3       -8.452040
    4       -7.488399
    5        1.709262
    6        2.514857
    7        2.872687
    8        3.792126
 
 -0.1666667E+00  0.1111111E+00  0.0000000E+00  0.1543210E-02
    1      -21.752068
    2       -9.756652
    3       -7.557217
    4       -6.777840
    5        1.214176
    6        2.015191
    7        2.365215
    8        3.290783
 
 -0.1111111E+00  0.1111111E+00  0.0000000E+00  0.7716049E-03
    1      -21.969974
    2      -10.015383
    3       -6.902403
    4       -6.337112
    5        0.917216
    6        1.715007
    7        2.060863
    8        2.989704
 
  0.1666667E+00  0.1666667E+00  0.0000000E+00  0.7716049E-03
    1      -20.311898
    2      -10.502492
    3       -9.156658
    4       -8.073409
    5        3.194661
    6        3.627038
    7        4.007451
    8        4.398134
 
  0.2222222E+00  0.1666667E+00  0.0000000E+00  0.1543210E-02
    1      -19.604565
    2      -11.615031
    3       -9.919633
    4       -7.268785
    5        2.342478
    6        4.179345
    7        4.991247
    8        5.413591
 
  0.2777778E+00  0.1666667E+00  0.0000000E+00  0.1543210E-02
    1      -18.770033
    2      -12.869769
    3      -10.452518
    4       -6.352377
    5        1.021467
    6        5.353034
    7        6.152182
    8        6.630717
 
  0.3333333E+00  0.1666667E+00  0.0000000E+00  0.1543210E-02
    1      -17.825486
    2      -14.144613
    3      -10.789796
    4       -5.396868
    5       -0.228402
    6        6.698246
    7        7.275471
    8        7.445461
 
  0.3888889E+00  0.1666667E+00  0.0000000E+00  0.1543210E-02
    1      -16.854727
    2      -15.292858
    3      -10.954961
    4       -4.634653
    5       -1.146120
    6        7.174782
    7        8.237489
    8        8.632772
 
  0.4444444E+00  0.1666667E+00  0.0000000E+00  0.1543210E-02
    1      -16.858686
    2      -15.288517
    3      -10.955590
    4       -4.636243
    5       -1.144847
    6        7.175690
    7        8.229988
    8        8.629448
 
  0.5000000E+00  0.1666667E+00  0.0000000E+00  0.1543210E-02
    1      -17.830020
    2      -14.139039
    3      -10.791488
    4       -5.399984
    5       -0.226359
    6        6.692035
    7        7.278264
    8        7.440212
 
 -0.4444444E+00  0.1666667E+00  0.0000000E+00  0.1543210E-02
    1      -18.774089
    2      -12.864803
    3      -10.454424
    4       -6.355715
    5        1.022702
    6        5.347596
    7        6.147202
    8        6.625369
 
 -0.3888889E+00  0.1666667E+00  0.0000000E+00  0.1543210E-02
    1      -19.608045
    2      -11.612899
    3       -9.919515
    4       -7.271905
    5        2.342131
    6        4.174786
    7        4.986913
    8        5.409058
 
 -0.3333333E+00  0.1666667E+00  0.0000000E+00  0.1543210E-02
    1      -20.314755
    2      -10.506619
    3       -9.150903
    4       -8.076105
    5        3.190952
    6        3.624734
    7        4.003895
    8        4.394429
 
 -0.2777778E+00  0.1666667E+00  0.0000000E+00  0.1543210E-02
    1      -20.886338
    2       -9.592435
    3       -8.738638
    4       -8.224960
    5        2.400938
    6        3.210695
    7        3.582514
    8        4.487897
 
 -0.2222222E+00  0.1666667E+00  0.0000000E+00  0.1543210E-02
    1      -21.318113
    2       -9.244467
    3       -8.791284
    4       -7.395895
    5        1.807330
    6        2.613601
    7        2.973602
    8        3.890900
 
 -0.1666667E+00  0.1666667E+00  0.0000000E+00  0.7716049E-03
    1      -21.607271
    2       -9.585345
    3       -8.077447
    4       -6.895622
    5        1.411631
    6        2.214694
    7        2.567842
    8        3.490858
 
  0.2222222E+00  0.2222222E+00  0.0000000E+00  0.7716049E-03
    1      -18.839061
    2      -12.415935
    3      -10.887544
    4       -6.414850
    5        1.196982
    6        5.256658
    7        6.039526
    8        6.530325
 
  0.2777778E+00  0.2222222E+00  0.0000000E+00  0.1543210E-02
    1      -17.956283
    2      -13.416660
    3      -11.545847
    4       -5.470705
    5        0.031065
    6        6.515347
    7        7.193139
    8        7.848281
 
  0.3333333E+00  0.2222222E+00  0.0000000E+00  0.1543210E-02
    1      -16.989912
    2      -14.528766
    3      -11.887113
    4       -4.543086
    5       -1.037511
    6        7.928567
    7        8.134497
    8        8.731864
 
  0.3888889E+00  0.2222222E+00  0.0000000E+00  0.1543210E-02
    1      -16.267509
    2      -15.311688
    3      -11.992336
    4       -4.045845
    5       -1.583788
    6        8.391020
    7        8.658619
    8        9.337716
 
  0.4444444E+00  0.2222222E+00  0.0000000E+00  0.1543210E-02
    1      -16.995941
    2      -14.522334
    3      -11.887704
    4       -4.546675
    5       -1.035290
    6        7.919276
    7        8.131165
    8        8.733598
 
  0.5000000E+00  0.2222222E+00  0.0000000E+00  0.1543210E-02
    1      -17.961992
    2      -13.411713
    3      -11.545394
    4       -5.475099
    5        0.032509
    6        6.507449
    7        7.187075
    8        7.840581
 
 -0.4444444E+00  0.2222222E+00  0.0000000E+00  0.1543210E-02
    1      -18.844076
    2      -12.416303
    3      -10.882637
    4       -6.419157
    5        1.196480
    6        5.249999
    7        6.033582
    8        6.523705
 
 -0.3888889E+00  0.2222222E+00  0.0000000E+00  0.1543210E-02
    1      -19.608769
    2      -11.621516
    3       -9.909294
    4       -7.272650
    5        2.339610
    6        4.173852
    7        4.986143
    8        5.408104
 
 -0.3333333E+00  0.2222222E+00  0.0000000E+00  0.1543210E-02
    1      -20.244065
    2      -10.906509
    3       -8.863462
    4       -7.997225
    5        3.287921
    6        3.404455
    7        4.120820
    8        4.494889
 
 -0.2777778E+00  0.2222222E+00  0.0000000E+00  0.1543210E-02
    1      -20.743206
    2      -10.182653
    3       -8.573849
    4       -7.995710
    5        2.596726
    6        3.398474
    7        3.784594
    8        4.388759
 
 -0.2222222E+00  0.2222222E+00  0.0000000E+00  0.7716049E-03
    1      -21.102068
    2       -9.451979
    3       -8.991713
    4       -7.489177
    5        2.102960
    6        2.910110
    7        3.277504
    8        4.186003
 
  0.2777778E+00  0.2777778E+00  0.0000000E+00  0.7716049E-03
    1      -17.044096
    2      -14.047219
    3      -12.423376
    4       -4.520256
    5       -0.975458
    6        7.837819
    7        7.938465
    8        9.264382
 
  0.3333333E+00  0.2777778E+00  0.0000000E+00  0.1543210E-02
    1      -16.110839
    2      -14.860518
    3      -12.853620
    4       -3.645529
    5       -1.873765
    6        8.016883
    7        9.235489
    8        9.999431
 
  0.3888889E+00  0.2777778E+00  0.0000000E+00  0.1543210E-02
    1      -16.117396
    2      -14.854848
    3      -12.852689
    4       -3.648881
    5       -1.871568
    6        8.016910
    7        9.222313
    8       10.003109
 
  0.4444444E+00  0.2777778E+00  0.0000000E+00  0.1543210E-02
    1      -17.051464
    2      -14.044489
    3      -12.418563
    4       -4.525490
    5       -0.973740
    6        7.827017
    7        7.936052
    8        9.254089
 
  0.5000000E+00  0.2777778E+00  0.0000000E+00  0.1543210E-02
    1      -17.962952
    2      -13.419498
    3      -11.535949
    4       -5.476118
    5        0.030556
    6        6.506285
    7        7.186564
    8        7.839385
 
 -0.4444444E+00  0.2777778E+00  0.0000000E+00  0.1543210E-02
    1      -18.775776
    2      -12.876524
    3      -10.439441
    4       -6.357435
    5        1.018358
    6        5.345507
    7        6.145525
    8        6.623244
 
 -0.3888889E+00  0.2777778E+00  0.0000000E+00  0.1543210E-02
    1      -19.468727
    2      -12.290931
    3       -9.371737
    4       -7.126573
    5        1.969432
    6        4.366743
    7        5.199829
    8        5.608423
 
 -0.3333333E+00  0.2777778E+00  0.0000000E+00  0.1543210E-02
    1      -20.031335
    2      -11.631569
    3       -8.519639
    4       -7.760850
    5        2.867090
    6        3.579551
    7        4.429763
    8        4.796741
 
 -0.2777778E+00  0.2777778E+00  0.0000000E+00  0.7716049E-03
    1      -20.457464
    2      -10.911774
    3       -8.246189
    4       -8.041888
    5        2.989271
    6        3.591409
    7        3.938192
    8        4.189293
 
  0.3333333E+00  0.3333333E+00  0.0000000E+00  0.7716049E-03
    1      -15.341183
    2      -15.334325
    3      -13.293788
    4       -2.749001
    5       -2.743981
    6        7.873624
    7       10.132668
    8       10.149375
 
  0.3888889E+00  0.3333333E+00  0.0000000E+00  0.1543210E-02
    1      -16.119272
    2      -14.859879
    3      -12.845331
    4       -3.651193
    5       -1.871489
    6        8.018593
    7        9.221477
    8       10.030201
 
  0.4444444E+00  0.3333333E+00  0.0000000E+00  0.1543210E-02
    1      -16.998198
    2      -14.531920
    3      -11.874699
    4       -4.549298
    5       -1.037820
    6        7.917201
    7        8.132840
    8        8.772079
 
  0.5000000E+00  0.3333333E+00  0.0000000E+00  0.1543210E-02
    1      -17.832847
    2      -14.150532
    3      -10.775046
    4       -5.402993
    5       -0.231412
    6        6.689491
    7        7.314822
    8        7.438122
 
 -0.4444444E+00  0.3333333E+00  0.0000000E+00  0.1543210E-02
    1      -18.570588
    2      -13.663819
    3       -9.740699
    4       -6.175682
    5        0.567909
    6        5.617025
    7        6.071152
    8        6.469090
 
 -0.3888889E+00  0.3333333E+00  0.0000000E+00  0.1543210E-02
    1      -19.189621
    2      -13.068675
    3       -8.933965
    4       -6.838762
    5        1.369103
    6        4.736907
    7        5.242324
    8        5.610837
 
 -0.3333333E+00  0.3333333E+00  0.0000000E+00  0.7716049E-03
    1      -19.678655
    2      -12.379916
    3       -8.506351
    4       -7.371759
    5        2.154400
    6        4.062828
    7        4.926457
    8        4.990629
 
  0.3888889E+00  0.3888889E+00  0.0000000E+00  0.7716049E-03
    1      -16.274361
    2      -15.317023
    3      -11.978849
    4       -4.051195
    5       -1.584748
    6        8.394798
    7        8.697732
    8        9.326667
 
  0.4444444E+00  0.3888889E+00  0.0000000E+00  0.1543210E-02
    1      -16.863472
    2      -15.297959
    3      -10.939087
    4       -4.641148
    5       -1.149128
    6        7.214648
    7        8.224937
    8        8.630583
 
  0.5000000E+00  0.3888889E+00  0.0000000E+00  0.1543210E-02
    1      -17.581009
    2      -14.952258
    3       -9.964573
    4       -5.280881
    5       -0.615119
    6        5.926777
    7        7.102350
    8        7.894064
 
 -0.4444444E+00  0.3888889E+00  0.0000000E+00  0.1543210E-02
    1      -18.233610
    2      -14.439439
    3       -9.219106
    4       -5.890525
    5        0.003338
    6        5.060456
    7        6.143558
    8        6.984201
 
 -0.3888889E+00  0.3888889E+00  0.0000000E+00  0.7716049E-03
    1      -18.775329
    2      -13.801607
    3       -8.853891
    4       -6.420293
    5        0.682121
    6        4.782790
    7        5.378012
    8        6.209094
 
  0.4444444E+00  0.4444444E+00  0.0000000E+00  0.7716049E-03
    1      -16.836973
    2      -15.798017
    3      -10.039613
    4       -4.844513
    5       -1.150571
    6        5.892731
    7        8.619987
    8        8.792843
 
  0.5000000E+00  0.4444444E+00  0.0000000E+00  0.1543210E-02
    1      -17.245671
    2      -15.639866
    3       -9.364143
    4       -5.161629
    5       -0.943377
    6        4.992286
    7        7.676501
    8        8.521257
 
 -0.4444444E+00  0.4444444E+00  0.0000000E+00  0.7716049E-03
    1      -17.777887
    2      -15.119430
    3       -9.068067
    4       -5.534497
    5       -0.535106
    6        4.690934
    7        6.816760
    8        7.677845
 
  0.5000000E+00  0.5000000E+00  0.0000000E+00  0.3858025E-03
    1      -17.024778
    2      -15.980777
    3       -9.140290
    4       -5.110771
    5       -1.072252
    6        4.654843
    7        8.365839
    8        8.520505
 
  0.0000000E+00  0.0000000E+00  0.1250000E+00  0.7716049E-03
    1      -22.261261
    2      -10.362613
    3       -5.785608
    4       -5.765899
    5        0.521954
    6        1.304016
    7        1.679658
    8        2.521615
 
  0.5555556E-01  0.3469447E-17  0.1250000E+00  0.3086420E-02
    1      -22.188241
    2      -10.275440
    3       -6.069236
    4       -5.936678
    5        0.620979
    6        1.404432
    7        1.781091
    8        2.622265
 
  0.1111111E+00  0.6938894E-17  0.1250000E+00  0.3086420E-02
    1      -21.969555
    2      -10.014959
    3       -6.887047
    4       -6.352776
    5        0.918109
    6        1.705468
    7        2.085395
    8        2.924089
 
  0.1666667E+00  0.1387779E-16  0.1250000E+00  0.3086420E-02
    1      -21.606302
    2       -9.584359
    3       -8.061977
    4       -6.912271
    5        1.413186
    6        2.206275
    7        2.592510
    8        3.426451
 
  0.2222222E+00  0.2775558E-16  0.1250000E+00  0.3086420E-02
    1      -21.100375
    2       -9.437015
    3       -8.990015
    4       -7.506804
    5        2.105431
    6        2.903462
    7        3.302075
    8        4.124912
 
  0.2777778E+00  0.2775558E-16  0.1250000E+00  0.3086420E-02
    1      -20.454832
    2      -10.897826
    3       -8.243572
    4       -8.060389
    5        2.992877
    6        3.597075
    7        3.931517
    8        4.218443
 
  0.3333333E+00  0.8326673E-16  0.1250000E+00  0.3086420E-02
    1      -19.674893
    2      -12.367340
    3       -8.525557
    4       -7.368078
    5        2.162623
    6        4.067312
    7        4.922622
    8        4.958892
 
  0.3888889E+00  0.2775558E-16  0.1250000E+00  0.3086420E-02
    1      -18.770241
    2      -13.790610
    3       -8.873637
    4       -6.415427
    5        0.690220
    6        4.749059
    7        5.383225
    8        6.208605
 
  0.4444444E+00  0.5551115E-16  0.1250000E+00  0.3086420E-02
    1      -17.771266
    2      -15.110186
    3       -9.088164
    4       -5.528443
    5       -0.527611
    6        4.654727
    7        6.825540
    8        7.680514
 
  0.5000000E+00  0.5551115E-16  0.1250000E+00  0.1543210E-02
    1      -17.016534
    2      -15.973191
    3       -9.160470
    4       -5.104076
    5       -1.065221
    6        4.618283
    7        8.378097
    8        8.530350
 
  0.5555556E-01  0.5555556E-01  0.1250000E+00  0.1543210E-02
    1      -22.042277
    2      -10.101504
    3       -6.596577
    4       -6.253585
    5        0.819224
    6        1.605299
    7        1.984102
    8        2.823650
 
  0.1111111E+00  0.5555556E-01  0.1250000E+00  0.3086420E-02
    1      -21.751213
    2       -9.755781
    3       -7.542620
    4       -6.792664
    5        1.215607
    6        2.006445
    7        2.389981
    8        3.226005
 
  0.1666667E+00  0.5555556E-01  0.1250000E+00  0.3086420E-02
    1      -21.316511
    2       -9.242864
    3       -8.777031
    4       -7.411455
    5        1.809691
    6        2.606379
    7        2.998593
    8        3.828048
 
  0.2222222E+00  0.5555556E-01  0.1250000E+00  0.3086420E-02
    1      -20.740666
    2      -10.169334
    3       -8.571336
    4       -8.012070
    5        2.600268
    6        3.393968
    7        3.808544
    8        4.394021
 
  0.2777778E+00  0.5555556E-01  0.1250000E+00  0.3086420E-02
    1      -20.027663
    2      -11.619519
    3       -8.536901
    4       -7.757282
    5        2.874341
    6        3.584457
    7        4.425693
    8        4.823404
 
  0.3333333E+00  0.5555556E-01  0.1250000E+00  0.3086420E-02
    1      -19.184619
    2      -13.058106
    3       -8.952127
    4       -6.834027
    5        1.376427
    6        4.741094
    7        5.208733
    8        5.609897
 
  0.3888889E+00  0.5555556E-01  0.1250000E+00  0.3086420E-02
    1      -18.227100
    2      -14.430444
    3       -9.238016
    4       -5.884627
    5        0.010300
    6        5.023785
    7        6.151890
    8        6.986435
 
  0.4444444E+00  0.5555556E-01  0.1250000E+00  0.3086420E-02
    1      -17.237535
    2      -15.632431
    3       -9.383627
    4       -5.154950
    5       -0.936828
    6        4.955087
    7        7.687635
    8        8.526524
 
  0.5000000E+00  0.5555556E-01  0.1250000E+00  0.3086420E-02
    1      -17.238882
    2      -15.630917
    3       -9.383976
    4       -5.155455
    5       -0.936360
    6        4.955550
    7        7.685146
    8        8.524469
 
 -0.4444444E+00  0.5555556E-01  0.1250000E+00  0.3086420E-02
    1      -18.228627
    2      -14.428442
    3       -9.239019
    4       -5.885663
    5        0.011193
    6        5.025138
    7        6.149811
    8        6.984487
 
 -0.3888889E+00  0.5555556E-01  0.1250000E+00  0.3086420E-02
    1      -19.185991
    2      -13.055994
    3       -8.953658
    4       -6.835149
    5        1.377213
    6        4.739522
    7        5.210772
    8        5.608163
 
 -0.3333333E+00  0.5555556E-01  0.1250000E+00  0.3086420E-02
    1      -20.028830
    2      -11.617616
    3       -8.538695
    4       -7.758334
    5        2.874729
    6        3.582947
    7        4.424193
    8        4.821914
 
 -0.2777778E+00  0.5555556E-01  0.1250000E+00  0.3086420E-02
    1      -20.741625
    2      -10.168093
    3       -8.572248
    4       -8.013508
    5        2.599031
    6        3.392834
    7        3.807320
    8        4.393705
 
 -0.2222222E+00  0.5555556E-01  0.1250000E+00  0.3086420E-02
    1      -21.317255
    2       -9.243596
    3       -8.777590
    4       -7.411227
    5        1.808730
    6        2.605449
    7        2.997635
    8        3.827110
 
 -0.1666667E+00  0.5555556E-01  0.1250000E+00  0.3086420E-02
    1      -21.751745
    2       -9.756311
    3       -7.547470
    4       -6.788094
    5        1.214920
    6        2.005775
    7        2.389296
    8        3.225330
 
 -0.1111111E+00  0.5555556E-01  0.1250000E+00  0.3086420E-02
    1      -22.042603
    2      -10.101830
    3       -6.609403
    4       -6.240870
    5        0.818811
    6        1.604896
    7        1.983691
    8        2.823243
 
 -0.5555556E-01  0.5555556E-01  0.1250000E+00  0.1543210E-02
    1      -22.188347
    2      -10.275550
    3       -6.083770
    4       -5.922119
    5        0.620841
    6        1.404297
    7        1.780953
    8        2.622129
 
  0.1111111E+00  0.1111111E+00  0.1250000E+00  0.1543210E-02
    1      -21.388696
    2       -9.327501
    3       -8.443643
    4       -7.496844
    5        1.711225
    6        2.507094
    7        2.897431
    8        3.728575
 
  0.1666667E+00  0.1111111E+00  0.1250000E+00  0.3086420E-02
    1      -20.884106
    2       -9.581948
    3       -8.736443
    4       -8.236797
    5        2.404106
    6        3.204892
    7        3.607501
    8        4.428291
 
  0.2222222E+00  0.1111111E+00  0.1250000E+00  0.3086420E-02
    1      -20.240690
    2      -10.895929
    3       -8.877369
    4       -7.993985
    5        3.292550
    6        3.409647
    7        4.116576
    8        4.520834
 
  0.2777778E+00  0.1111111E+00  0.1250000E+00  0.3086420E-02
    1      -19.464017
    2      -12.281298
    3       -9.387121
    4       -7.122182
    5        1.974949
    6        4.373028
    7        5.198654
    8        5.634148
 
  0.3333333E+00  0.1111111E+00  0.1250000E+00  0.3086420E-02
    1      -18.564377
    2      -13.655475
    3       -9.757293
    4       -6.170100
    5        0.573369
    6        5.622490
    7        6.035410
    8        6.471141
 
  0.3888889E+00  0.1111111E+00  0.1250000E+00  0.3086420E-02
    1      -17.573158
    2      -14.945337
    3       -9.982147
    4       -5.274357
    5       -0.609971
    6        5.888185
    7        7.112820
    8        7.899144
 
  0.4444444E+00  0.1111111E+00  0.1250000E+00  0.3086420E-02
    1      -16.829073
    2      -15.790844
    3      -10.057910
    4       -4.838151