16   
2    

1    
  0.0012239467254512   0.0000000000000000   0.0099248150820686
  -0.1186479600    0.0819334700   -0.1421706700
  -0.0296926500    0.0817468300   -0.0081221800
  -0.0422610700    0.0744121300   -0.0080025600
  -0.0423166800    0.0892501900   -0.0080950500
  -0.0812119200    0.0468554900    0.0000035300
  -0.0812120100    0.0468556100    0.0000028200
  -0.0812122400    0.0468556500    0.0000029600
  -0.0812117600    0.0468556900    0.0000033000
   0.0427719800   -0.0817830700    0.0125223600
   0.0524193800   -0.0825218300    0.0516389800
   0.0693685400   -0.0721345800    0.0514327000
   0.0683650200   -0.0909142400    0.0508607600
   0.0812103100   -0.0468526200   -0.0000192300
   0.0812104200   -0.0468529700   -0.0000192400
   0.0812104700   -0.0468529500   -0.0000192900
   0.0812101600   -0.0468527900   -0.0000191700

1    
 -0.0012239467254512   0.0000000000000000  -0.0099248150820686
  -0.0109157800    0.0312761900    0.1422100500
  -0.0998735000    0.0312681000    0.0080796600
  -0.0871132300    0.0386501800    0.0081337500
  -0.0872081600    0.0238545300    0.0080500000
  -0.0812100000    0.0468533400    0.0000180600
  -0.0812111300    0.0468539400    0.0000188500
  -0.0812111400    0.0468541000    0.0000188800
  -0.0812099700    0.0468534500    0.0000183400
   0.0866903300   -0.0313033000   -0.0125434500
   0.0770499000   -0.0318170100   -0.0514422800
   0.0611732300   -0.0403684200   -0.0514028800
   0.0602004700   -0.0215617400   -0.0511446400
   0.0812090000   -0.0468530000   -0.0000036100
   0.0812104900   -0.0468537100   -0.0000035900
   0.0812102800   -0.0468537500   -0.0000036300
   0.0812092100   -0.0468529000   -0.0000034900
