mesh: [     9,     9,     4 ]
nqpoint: 50     
reciprocal_lattice:
- [   0.40544310,   0.23450355,   0.00000000 ] # a*
- [   0.00000000,   0.46837594,   0.00000000 ] # b*
- [   0.00000000,   0.00000000,   0.05000000 ] # c*
natom:   2      
lattice:
- [     2.466437339800000,     0.000000000000000,     0.000000000000000 ] # a
- [    -1.234880477500000,     2.135037085700000,     0.000000000000000 ] # b
- [     0.000000000000000,     0.000000000000000,    20.000000000000000 ] # c
points:
- symbol: C  # 1
  coordinates: [  0.999346613946763,  0.000653437361507,  0.082896882299998 ]
  mass: 12.010700
- symbol: C  # 2
  coordinates: [  0.332584917812007,  0.667415082643778,  0.082896882299998 ]
  mass: 12.010700
phonon:
- q-position: [    0.0000000,    0.0000000,    0.1250000 ]
  weight: 2    
  band:
  - # 1
    frequency:  -133.6511760652
  - # 2
    frequency:   -18.4937868203
  - # 3
    frequency:    -0.4067937462
  - # 4
    frequency:    -0.2264851836
  - # 5
    frequency:     0.4397334254
  - # 6
    frequency:    26.1133518496

- q-position: [    0.1111111,    0.0000000,    0.1250000 ]
  weight: 8    
  band:
  - # 1
    frequency:  -125.2683530152
  - # 2
    frequency:   -11.6430525233
  - # 3
    frequency:     3.9469795903
  - # 4
    frequency:     8.8580776798
  - # 5
    frequency:    17.3747672137
  - # 6
    frequency:    25.5097791498

- q-position: [    0.2222222,    0.0000000,    0.1250000 ]
  weight: 8    
  band:
  - # 1
    frequency:  -100.9460804921
  - # 2
    frequency:     7.6735159995
  - # 3
    frequency:    14.1520454751
  - # 4
    frequency:    22.3739708818
  - # 5
    frequency:    23.8353817144
  - # 6
    frequency:    31.9918941196

- q-position: [    0.3333333,    0.0000000,    0.1250000 ]
  weight: 8    
  band:
  - # 1
    frequency:   -62.4689791456
  - # 2
    frequency:    10.9855977866
  - # 3
    frequency:    20.4265595510
  - # 4
    frequency:    21.4851752063
  - # 5
    frequency:    34.4607798862
  - # 6
    frequency:    42.0836281604

- q-position: [    0.4444444,    0.0000000,    0.1250000 ]
  weight: 8    
  band:
  - # 1
    frequency:    10.8600245966
  - # 2
    frequency:    13.5399712335
  - # 3
    frequency:    19.2297036796
  - # 4
    frequency:    29.5663450177
  - # 5
    frequency:    40.6272932973
  - # 6
    frequency:    44.8632251609

- q-position: [    0.1111111,    0.1111111,    0.1250000 ]
  weight: 4    
  band:
  - # 1
    frequency:  -106.9515162275
  - # 2
    frequency:     7.0190168376
  - # 3
    frequency:    11.7701426821
  - # 4
    frequency:    12.5476422338
  - # 5
    frequency:    23.8305122673
  - # 6
    frequency:    24.2850222455

- q-position: [    0.2222222,    0.1111111,    0.1250000 ]
  weight: 8    
  band:
  - # 1
    frequency:   -73.0021608432
  - # 2
    frequency:    10.2394299226
  - # 3
    frequency:    17.3762435473
  - # 4
    frequency:    22.1854834793
  - # 5
    frequency:    26.5869603148
  - # 6
    frequency:    34.7403656254

- q-position: [    0.3333333,    0.1111111,    0.1250000 ]
  weight: 8    
  band:
  - # 1
    frequency:   -14.6322415431
  - # 2
    frequency:    13.0292077994
  - # 3
    frequency:    19.7547879606
  - # 4
    frequency:    25.4922517566
  - # 5
    frequency:    35.6060704718
  - # 6
    frequency:    41.7292610699

- q-position: [   -0.5555556,    0.1111111,    0.1250000 ]
  weight: 8    
  band:
  - # 1
    frequency:    14.2720893391
  - # 2
    frequency:    18.4817174302
  - # 3
    frequency:    21.7071608666
  - # 4
    frequency:    34.4538170389
  - # 5
    frequency:    42.6724940584
  - # 6
    frequency:    50.5246283986

- q-position: [   -0.4444444,    0.1111111,    0.1250000 ]
  weight: 8    
  band:
  - # 1
    frequency:   -40.2579393804
  - # 2
    frequency:    12.3664702648
  - # 3
    frequency:    20.1686668933
  - # 4
    frequency:    26.6579907698
  - # 5
    frequency:    39.3623064050
  - # 6
    frequency:    52.8935889339

- q-position: [   -0.3333333,    0.1111111,    0.1250000 ]
  weight: 8    
  band:
  - # 1
    frequency:   -83.1022822304
  - # 2
    frequency:     9.4005896095
  - # 3
    frequency:    22.5432888375
  - # 4
    frequency:    23.8290766073
  - # 5
    frequency:    31.2831862024
  - # 6
    frequency:    47.2646244479

- q-position: [   -0.2222222,    0.1111111,    0.1250000 ]
  weight: 8    
  band:
  - # 1
    frequency:  -112.5679284577
  - # 2
    frequency:     6.1416305274
  - # 3
    frequency:    15.9587453259
  - # 4
    frequency:    21.0311816938
  - # 5
    frequency:    24.5131678569
  - # 6
    frequency:    37.2729820507

- q-position: [   -0.1111111,    0.1111111,    0.1250000 ]
  weight: 4    
  band:
  - # 1
    frequency:  -127.1247636107
  - # 2
    frequency:   -11.0422398703
  - # 3
    frequency:     3.3810369854
  - # 4
    frequency:    14.1258291197
  - # 5
    frequency:    25.1310781267
  - # 6
    frequency:    25.5877434627

- q-position: [    0.2222222,    0.2222222,    0.1250000 ]
  weight: 4    
  band:
  - # 1
    frequency:   -18.9555046106
  - # 2
    frequency:    12.8485418727
  - # 3
    frequency:    19.9412068693
  - # 4
    frequency:    25.4479343641
  - # 5
    frequency:    31.2631991637
  - # 6
    frequency:    41.2447669042

- q-position: [    0.3333333,    0.2222222,    0.1250000 ]
  weight: 8    
  band:
  - # 1
    frequency:    14.9451264912
  - # 2
    frequency:    17.7985547871
  - # 3
    frequency:    27.0440077058
  - # 4
    frequency:    35.8855932035
  - # 5
    frequency:    44.7547147054
  - # 6
    frequency:    53.9285416272

- q-position: [   -0.5555556,    0.2222222,    0.1250000 ]
  weight: 8    
  band:
  - # 1
    frequency:    14.1844800527
  - # 2
    frequency:    18.4021382397
  - # 3
    frequency:    23.4515986114
  - # 4
    frequency:    31.6880494862
  - # 5
    frequency:    43.1943157603
  - # 6
    frequency:    59.1841295003

- q-position: [   -0.4444444,    0.2222222,    0.1250000 ]
  weight: 8    
  band:
  - # 1
    frequency:   -52.6561548177
  - # 2
    frequency:    11.7466721221
  - # 3
    frequency:    20.5906438898
  - # 4
    frequency:    31.7349658136
  - # 5
    frequency:    38.4763377191
  - # 6
    frequency:    56.8522003994

- q-position: [   -0.3333333,    0.2222222,    0.1250000 ]
  weight: 8    
  band:
  - # 1
    frequency:   -87.8135612432
  - # 2
    frequency:     9.1119620896
  - # 3
    frequency:    22.6523558285
  - # 4
    frequency:    28.8285916548
  - # 5
    frequency:    31.7438771202
  - # 6
    frequency:    52.3102370820

- q-position: [   -0.2222222,    0.2222222,    0.1250000 ]
  weight: 4    
  band:
  - # 1
    frequency:  -108.0132965357
  - # 2
    frequency:     6.8339686654
  - # 3
    frequency:    20.9485572848
  - # 4
    frequency:    24.0775374382
  - # 5
    frequency:    26.4900111743
  - # 6
    frequency:    45.2314463567

- q-position: [   -0.6666667,    0.3333333,    0.1250000 ]
  weight: 4    
  band:
  - # 1
    frequency:    15.8425362411
  - # 2
    frequency:    16.7632425346
  - # 3
    frequency:    32.8409629536
  - # 4
    frequency:    38.4923374613
  - # 5
    frequency:    45.9680032026
  - # 6
    frequency:    60.2156556718

- q-position: [   -0.5555556,    0.3333333,    0.1250000 ]
  weight: 8    
  band:
  - # 1
    frequency:    14.0975020283
  - # 2
    frequency:    18.4561089341
  - # 3
    frequency:    27.6133010329
  - # 4
    frequency:    36.0435818688
  - # 5
    frequency:    42.6938909748
  - # 6
    frequency:    55.0114330896

- q-position: [   -0.4444444,    0.3333333,    0.1250000 ]
  weight: 8    
  band:
  - # 1
    frequency:   -50.1238182320
  - # 2
    frequency:    12.1782076217
  - # 3
    frequency:    20.2610820426
  - # 4
    frequency:    36.5449001329
  - # 5
    frequency:    38.7921777948
  - # 6
    frequency:    55.5574212604

- q-position: [   -0.3333333,    0.3333333,    0.1250000 ]
  weight: 4    
  band:
  - # 1
    frequency:   -77.1828242908
  - # 2
    frequency:    10.2871572900
  - # 3
    frequency:    21.8041860446
  - # 4
    frequency:    32.9818990603
  - # 5
    frequency:    35.5176664489
  - # 6
    frequency:    55.2693003048

- q-position: [   -0.5555556,    0.4444444,    0.1250000 ]
  weight: 4    
  band:
  - # 1
    frequency:    14.0165979129
  - # 2
    frequency:    18.6442934805
  - # 3
    frequency:    31.5349506243
  - # 4
    frequency:    39.5405737438
  - # 5
    frequency:    40.1581753816
  - # 6
    frequency:    42.7910484610

- q-position: [   -0.4444444,    0.4444444,    0.1250000 ]
  weight: 4    
  band:
  - # 1
    frequency:   -30.8770675209
  - # 2
    frequency:    13.2468939886
  - # 3
    frequency:    19.3978595181
  - # 4
    frequency:    39.1744703243
  - # 5
    frequency:    40.0452881447
  - # 6
    frequency:    49.3567331390

- q-position: [    0.0000000,    0.0000000,    0.3750000 ]
  weight: 2    
  band:
  - # 1
    frequency:  -133.6509899013
  - # 2
    frequency:   -18.3429619651
  - # 3
    frequency:    -0.9823226975
  - # 4
    frequency:    -0.5467836019
  - # 5
    frequency:     1.0622656359
  - # 6
    frequency:    26.1134889785

- q-position: [    0.1111111,    0.0000000,    0.3750000 ]
  weight: 8    
  band:
  - # 1
    frequency:  -125.2682023575
  - # 2
    frequency:   -11.4450689105
  - # 3
    frequency:     3.9189310742
  - # 4
    frequency:     8.8263249597
  - # 5
    frequency:    17.4041766455
  - # 6
    frequency:    25.5099364733

- q-position: [    0.2222222,    0.0000000,    0.3750000 ]
  weight: 8    
  band:
  - # 1
    frequency:  -100.9460411942
  - # 2
    frequency:     7.6635958120
  - # 3
    frequency:    14.1644491715
  - # 4
    frequency:    22.4231188754
  - # 5
    frequency:    23.8355962757
  - # 6
    frequency:    32.0045504054

- q-position: [    0.3333333,    0.0000000,    0.3750000 ]
  weight: 8    
  band:
  - # 1
    frequency:   -62.4691614832
  - # 2
    frequency:    10.9822899266
  - # 3
    frequency:    20.4262492272
  - # 4
    frequency:    21.4854340912
  - # 5
    frequency:    34.4766652641
  - # 6
    frequency:    42.0881283194

- q-position: [    0.4444444,    0.0000000,    0.3750000 ]
  weight: 8    
  band:
  - # 1
    frequency:    10.8591287265
  - # 2
    frequency:    13.5395064251
  - # 3
    frequency:    19.2297948535
  - # 4
    frequency:    29.5664069322
  - # 5
    frequency:    40.6285841696
  - # 6
    frequency:    44.8642065502

- q-position: [    0.1111111,    0.1111111,    0.3750000 ]
  weight: 4    
  band:
  - # 1
    frequency:  -106.9513555511
  - # 2
    frequency:     7.0070164939
  - # 3
    frequency:    11.7471391690
  - # 4
    frequency:    12.6428177715
  - # 5
    frequency:    23.8723305258
  - # 6
    frequency:    24.2851114792

- q-position: [    0.2222222,    0.1111111,    0.3750000 ]
  weight: 8    
  band:
  - # 1
    frequency:   -73.0020622873
  - # 2
    frequency:    10.2349545582
  - # 3
    frequency:    17.3722529340
  - # 4
    frequency:    22.1855515874
  - # 5
    frequency:    26.6029676543
  - # 6
    frequency:    34.7596886324

- q-position: [    0.3333333,    0.1111111,    0.3750000 ]
  weight: 8    
  band:
  - # 1
    frequency:   -14.6324687375
  - # 2
    frequency:    13.0283310682
  - # 3
    frequency:    19.7548158192
  - # 4
    frequency:    25.4919749591
  - # 5
    frequency:    35.6080214384
  - # 6
    frequency:    41.7335090128

- q-position: [   -0.5555556,    0.1111111,    0.3750000 ]
  weight: 8    
  band:
  - # 1
    frequency:    14.2721306402
  - # 2
    frequency:    18.4818294965
  - # 3
    frequency:    21.7066845288
  - # 4
    frequency:    34.4541106491
  - # 5
    frequency:    42.6704218217
  - # 6
    frequency:    50.5248099209

- q-position: [   -0.4444444,    0.1111111,    0.3750000 ]
  weight: 8    
  band:
  - # 1
    frequency:   -40.2589000237
  - # 2
    frequency:    12.3647771991
  - # 3
    frequency:    20.1692072531
  - # 4
    frequency:    26.6587691620
  - # 5
    frequency:    39.3669241529
  - # 6
    frequency:    52.8949400862

- q-position: [   -0.3333333,    0.1111111,    0.3750000 ]
  weight: 8    
  band:
  - # 1
    frequency:   -83.1026015878
  - # 2
    frequency:     9.3947663099
  - # 3
    frequency:    22.5438078650
  - # 4
    frequency:    23.8350381349
  - # 5
    frequency:    31.3061959539
  - # 6
    frequency:    47.2688100344

- q-position: [   -0.2222222,    0.1111111,    0.3750000 ]
  weight: 8    
  band:
  - # 1
    frequency:  -112.5679995671
  - # 2
    frequency:     6.1268933800
  - # 3
    frequency:    16.0736852750
  - # 4
    frequency:    21.0202221850
  - # 5
    frequency:    24.5135568297
  - # 6
    frequency:    37.2820762662

- q-position: [   -0.1111111,    0.1111111,    0.3750000 ]
  weight: 4    
  band:
  - # 1
    frequency:  -127.1246891654
  - # 2
    frequency:   -10.8095950409
  - # 3
    frequency:     3.3475777358
  - # 4
    frequency:    14.0945007657
  - # 5
    frequency:    25.1479929653
  - # 6
    frequency:    25.5880057456

- q-position: [    0.2222222,    0.2222222,    0.3750000 ]
  weight: 4    
  band:
  - # 1
    frequency:   -18.9555631727
  - # 2
    frequency:    12.8475043635
  - # 3
    frequency:    19.9412047006
  - # 4
    frequency:    25.4465078110
  - # 5
    frequency:    31.2665845087
  - # 6
    frequency:    41.2502531527

- q-position: [    0.3333333,    0.2222222,    0.3750000 ]
  weight: 8    
  band:
  - # 1
    frequency:    14.9456025107
  - # 2
    frequency:    17.7985686266
  - # 3
    frequency:    27.0446605003
  - # 4
    frequency:    35.8841702488
  - # 5
    frequency:    44.7512176739
  - # 6
    frequency:    53.9285554147

- q-position: [   -0.5555556,    0.2222222,    0.3750000 ]
  weight: 8    
  band:
  - # 1
    frequency:    14.1840952696
  - # 2
    frequency:    18.4028801787
  - # 3
    frequency:    23.4485476796
  - # 4
    frequency:    31.6899802453
  - # 5
    frequency:    43.1897327887
  - # 6
    frequency:    59.1844353585

- q-position: [   -0.4444444,    0.2222222,    0.3750000 ]
  weight: 8    
  band:
  - # 1
    frequency:   -52.6571352887
  - # 2
    frequency:    11.7443195169
  - # 3
    frequency:    20.5914390785
  - # 4
    frequency:    31.7377105485
  - # 5
    frequency:    38.4806036404
  - # 6
    frequency:    56.8538268249

- q-position: [   -0.3333333,    0.2222222,    0.3750000 ]
  weight: 8    
  band:
  - # 1
    frequency:   -87.8140253579
  - # 2
    frequency:     9.1056732174
  - # 3
    frequency:    22.6530349746
  - # 4
    frequency:    28.8641022691
  - # 5
    frequency:    31.7386991793
  - # 6
    frequency:    52.3143052753

- q-position: [   -0.2222222,    0.2222222,    0.3750000 ]
  weight: 4    
  band:
  - # 1
    frequency:  -108.0135267653
  - # 2
    frequency:     6.8218808978
  - # 3
    frequency:    21.0395327490
  - # 4
    frequency:    24.0780833525
  - # 5
    frequency:    26.4705601983
  - # 6
    frequency:    45.2383755769

- q-position: [   -0.6666667,    0.3333333,    0.3750000 ]
  weight: 4    
  band:
  - # 1
    frequency:    15.8425254886
  - # 2
    frequency:    16.7641711349
  - # 3
    frequency:    32.8424741236
  - # 4
    frequency:    38.4889186337
  - # 5
    frequency:    45.9620274924
  - # 6
    frequency:    60.2156287121

- q-position: [   -0.5555556,    0.3333333,    0.3750000 ]
  weight: 8    
  band:
  - # 1
    frequency:    14.0971887901
  - # 2
    frequency:    18.4568615624
  - # 3
    frequency:    27.6115784565
  - # 4
    frequency:    36.0443531087
  - # 5
    frequency:    42.6896665519
  - # 6
    frequency:    55.0115842426

- q-position: [   -0.4444444,    0.3333333,    0.3750000 ]
  weight: 8    
  band:
  - # 1
    frequency:   -50.1247722211
  - # 2
    frequency:    12.1764462556
  - # 3
    frequency:    20.2617639222
  - # 4
    frequency:    36.5526407092
  - # 5
    frequency:    38.7899600251
  - # 6
    frequency:    55.5589199983

- q-position: [   -0.3333333,    0.3333333,    0.3750000 ]
  weight: 4    
  band:
  - # 1
    frequency:   -77.1834512583
  - # 2
    frequency:    10.2829407558
  - # 3
    frequency:    21.8048943792
  - # 4
    frequency:    33.0145808686
  - # 5
    frequency:    35.5040033413
  - # 6
    frequency:    55.2723906189

- q-position: [   -0.5555556,    0.4444444,    0.3750000 ]
  weight: 4    
  band:
  - # 1
    frequency:    14.0166775619
  - # 2
    frequency:    18.6445500578
  - # 3
    frequency:    31.5349533859
  - # 4
    frequency:    39.5408717908
  - # 5
    frequency:    40.1568786015
  - # 6
    frequency:    42.7900364021

- q-position: [   -0.4444444,    0.4444444,    0.3750000 ]
  weight: 4    
  band:
  - # 1
    frequency:   -30.8779722609
  - # 2
    frequency:    13.2463660211
  - # 3
    frequency:    19.3981759158
  - # 4
    frequency:    39.1814342578
  - # 5
    frequency:    40.0402235502
  - # 6
    frequency:    49.3575819452

