mesh: [     9,     9,     4 ]
nqpoint: 50     
reciprocal_lattice:
- [   0.40544310,   0.23450355,   0.00000000 ] # a*
- [   0.00000000,   0.46837594,   0.00000000 ] # b*
- [   0.00000000,   0.00000000,   0.05000000 ] # c*
natom:   2      
lattice:
- [     2.466437339800000,     0.000000000000000,     0.000000000000000 ] # a
- [    -1.234880477500000,     2.135037085700000,     0.000000000000000 ] # b
- [     0.000000000000000,     0.000000000000000,    20.000000000000000 ] # c
points:
- symbol: C  # 1
  coordinates: [  0.999346613946763,  0.000653437361507,  0.082896882299998 ]
  mass: 12.010700
- symbol: C  # 2
  coordinates: [  0.332584917812007,  0.667415082643778,  0.082896882299998 ]
  mass: 12.010700
phonon:
- q-position: [    0.0000000,    0.0000000,    0.1250000 ]
  weight: 2    
  band:
  - # 1
    frequency:  -133.6511748417
  - # 2
    frequency:   -18.4937987481
  - # 3
    frequency:    -0.4068094461
  - # 4
    frequency:    -0.2264851836
  - # 5
    frequency:     0.4401554617
  - # 6
    frequency:    26.1133518496

- q-position: [    0.1111111,    0.0000000,    0.1250000 ]
  weight: 8    
  band:
  - # 1
    frequency:  -125.2683519340
  - # 2
    frequency:   -11.6430648888
  - # 3
    frequency:     3.9469795903
  - # 4
    frequency:     8.8580769739
  - # 5
    frequency:    17.3747747482
  - # 6
    frequency:    25.5097791498

- q-position: [    0.2222222,    0.0000000,    0.1250000 ]
  weight: 8    
  band:
  - # 1
    frequency:  -100.9460798424
  - # 2
    frequency:     7.6735159995
  - # 3
    frequency:    14.1520457200
  - # 4
    frequency:    22.3739690749
  - # 5
    frequency:    23.8353817144
  - # 6
    frequency:    31.9918963719

- q-position: [    0.3333333,    0.0000000,    0.1250000 ]
  weight: 8    
  band:
  - # 1
    frequency:   -62.4689792476
  - # 2
    frequency:    10.9855977866
  - # 3
    frequency:    20.4265601505
  - # 4
    frequency:    21.4851752063
  - # 5
    frequency:    34.4607815585
  - # 6
    frequency:    42.0836286266

- q-position: [    0.4444444,    0.0000000,    0.1250000 ]
  weight: 8    
  band:
  - # 1
    frequency:    10.8600269669
  - # 2
    frequency:    13.5399712335
  - # 3
    frequency:    19.2297036796
  - # 4
    frequency:    29.5663434899
  - # 5
    frequency:    40.6272963650
  - # 6
    frequency:    44.8632244134

- q-position: [    0.1111111,    0.1111111,    0.1250000 ]
  weight: 4    
  band:
  - # 1
    frequency:  -106.9515153841
  - # 2
    frequency:     7.0190168376
  - # 3
    frequency:    11.7701421767
  - # 4
    frequency:    12.5476454680
  - # 5
    frequency:    23.8305127004
  - # 6
    frequency:    24.2850222455

- q-position: [    0.2222222,    0.1111111,    0.1250000 ]
  weight: 8    
  band:
  - # 1
    frequency:   -73.0021605578
  - # 2
    frequency:    10.2394299226
  - # 3
    frequency:    17.3762439599
  - # 4
    frequency:    22.1854834793
  - # 5
    frequency:    26.5869636707
  - # 6
    frequency:    34.7403658609

- q-position: [    0.3333333,    0.1111111,    0.1250000 ]
  weight: 8    
  band:
  - # 1
    frequency:   -14.6322411975
  - # 2
    frequency:    13.0292077994
  - # 3
    frequency:    19.7547879606
  - # 4
    frequency:    25.4922505684
  - # 5
    frequency:    35.6060728029
  - # 6
    frequency:    41.7292618771

- q-position: [   -0.5555556,    0.1111111,    0.1250000 ]
  weight: 8    
  band:
  - # 1
    frequency:    14.2720893391
  - # 2
    frequency:    18.4817174302
  - # 3
    frequency:    21.7071621913
  - # 4
    frequency:    34.4538164681
  - # 5
    frequency:    42.6724963807
  - # 6
    frequency:    50.5246272305

- q-position: [   -0.4444444,    0.1111111,    0.1250000 ]
  weight: 8    
  band:
  - # 1
    frequency:   -40.2579404953
  - # 2
    frequency:    12.3664702648
  - # 3
    frequency:    20.1686668933
  - # 4
    frequency:    26.6579911392
  - # 5
    frequency:    39.3623082414
  - # 6
    frequency:    52.8935885766

- q-position: [   -0.3333333,    0.1111111,    0.1250000 ]
  weight: 8    
  band:
  - # 1
    frequency:   -83.1022821861
  - # 2
    frequency:     9.4005896095
  - # 3
    frequency:    22.5432888375
  - # 4
    frequency:    23.8290765420
  - # 5
    frequency:    31.2831855102
  - # 6
    frequency:    47.2646251448

- q-position: [   -0.2222222,    0.1111111,    0.1250000 ]
  weight: 8    
  band:
  - # 1
    frequency:  -112.5679277609
  - # 2
    frequency:     6.1416305274
  - # 3
    frequency:    15.9587373286
  - # 4
    frequency:    21.0311811943
  - # 5
    frequency:    24.5131678569
  - # 6
    frequency:    37.2729846357

- q-position: [   -0.1111111,    0.1111111,    0.1250000 ]
  weight: 4    
  band:
  - # 1
    frequency:  -127.1247625788
  - # 2
    frequency:   -11.0422582116
  - # 3
    frequency:     3.3810369854
  - # 4
    frequency:    14.1258289773
  - # 5
    frequency:    25.1310841188
  - # 6
    frequency:    25.5877434627

- q-position: [    0.2222222,    0.2222222,    0.1250000 ]
  weight: 4    
  band:
  - # 1
    frequency:   -18.9555049327
  - # 2
    frequency:    12.8485418727
  - # 3
    frequency:    19.9412068693
  - # 4
    frequency:    25.4479330084
  - # 5
    frequency:    31.2632020905
  - # 6
    frequency:    41.2447680769

- q-position: [    0.3333333,    0.2222222,    0.1250000 ]
  weight: 8    
  band:
  - # 1
    frequency:    14.9451264912
  - # 2
    frequency:    17.7985547871
  - # 3
    frequency:    27.0440083251
  - # 4
    frequency:    35.8855942058
  - # 5
    frequency:    44.7547161584
  - # 6
    frequency:    53.9285400833

- q-position: [   -0.5555556,    0.2222222,    0.1250000 ]
  weight: 8    
  band:
  - # 1
    frequency:    14.1844800527
  - # 2
    frequency:    18.4021382397
  - # 3
    frequency:    23.4515961942
  - # 4
    frequency:    31.6880495793
  - # 5
    frequency:    43.1943176588
  - # 6
    frequency:    59.1841283702

- q-position: [   -0.4444444,    0.2222222,    0.1250000 ]
  weight: 8    
  band:
  - # 1
    frequency:   -52.6561560601
  - # 2
    frequency:    11.7466721221
  - # 3
    frequency:    20.5906438898
  - # 4
    frequency:    31.7349659468
  - # 5
    frequency:    38.4763381361
  - # 6
    frequency:    56.8521996837

- q-position: [   -0.3333333,    0.2222222,    0.1250000 ]
  weight: 8    
  band:
  - # 1
    frequency:   -87.8135613292
  - # 2
    frequency:     9.1119620896
  - # 3
    frequency:    22.6523558285
  - # 4
    frequency:    28.8285892685
  - # 5
    frequency:    31.7438767110
  - # 6
    frequency:    52.3102371634

- q-position: [   -0.2222222,    0.2222222,    0.1250000 ]
  weight: 4    
  band:
  - # 1
    frequency:  -108.0132960722
  - # 2
    frequency:     6.8339686654
  - # 3
    frequency:    20.9485499215
  - # 4
    frequency:    24.0775374382
  - # 5
    frequency:    26.4900114205
  - # 6
    frequency:    45.2314477046

- q-position: [   -0.6666667,    0.3333333,    0.1250000 ]
  weight: 4    
  band:
  - # 1
    frequency:    15.8425362411
  - # 2
    frequency:    16.7632425346
  - # 3
    frequency:    32.8409632930
  - # 4
    frequency:    38.4923373162
  - # 5
    frequency:    45.9680037038
  - # 6
    frequency:    60.2156541818

- q-position: [   -0.5555556,    0.3333333,    0.1250000 ]
  weight: 8    
  band:
  - # 1
    frequency:    14.0975020283
  - # 2
    frequency:    18.4561089341
  - # 3
    frequency:    27.6132973228
  - # 4
    frequency:    36.0435821105
  - # 5
    frequency:    42.6938917058
  - # 6
    frequency:    55.0114314883

- q-position: [   -0.4444444,    0.3333333,    0.1250000 ]
  weight: 8    
  band:
  - # 1
    frequency:   -50.1238197907
  - # 2
    frequency:    12.1782076217
  - # 3
    frequency:    20.2610820426
  - # 4
    frequency:    36.5448997629
  - # 5
    frequency:    38.7921773804
  - # 6
    frequency:    55.5574197411

- q-position: [   -0.3333333,    0.3333333,    0.1250000 ]
  weight: 4    
  band:
  - # 1
    frequency:   -77.1828247926
  - # 2
    frequency:    10.2871572900
  - # 3
    frequency:    21.8041860446
  - # 4
    frequency:    32.9818963144
  - # 5
    frequency:    35.5176666583
  - # 6
    frequency:    55.2692995015

- q-position: [   -0.5555556,    0.4444444,    0.1250000 ]
  weight: 4    
  band:
  - # 1
    frequency:    14.0165979129
  - # 2
    frequency:    18.6442934805
  - # 3
    frequency:    31.5349493144
  - # 4
    frequency:    39.5405736846
  - # 5
    frequency:    40.1581736723
  - # 6
    frequency:    42.7910456069

- q-position: [   -0.4444444,    0.4444444,    0.1250000 ]
  weight: 4    
  band:
  - # 1
    frequency:   -30.8770700496
  - # 2
    frequency:    13.2468939886
  - # 3
    frequency:    19.3978595181
  - # 4
    frequency:    39.1744697001
  - # 5
    frequency:    40.0452877326
  - # 6
    frequency:    49.3567304691

- q-position: [    0.0000000,    0.0000000,    0.3750000 ]
  weight: 2    
  band:
  - # 1
    frequency:  -133.6509886777
  - # 2
    frequency:   -18.3429739909
  - # 3
    frequency:    -0.9823291991
  - # 4
    frequency:    -0.5467836019
  - # 5
    frequency:     1.0624404107
  - # 6
    frequency:    26.1134889785

- q-position: [    0.1111111,    0.0000000,    0.3750000 ]
  weight: 8    
  band:
  - # 1
    frequency:  -125.2682012763
  - # 2
    frequency:   -11.4450814264
  - # 3
    frequency:     3.9189310742
  - # 4
    frequency:     8.8263242087
  - # 5
    frequency:    17.4041841470
  - # 6
    frequency:    25.5099364733

- q-position: [    0.2222222,    0.0000000,    0.3750000 ]
  weight: 8    
  band:
  - # 1
    frequency:  -100.9460405444
  - # 2
    frequency:     7.6635958120
  - # 3
    frequency:    14.1644494316
  - # 4
    frequency:    22.4231170724
  - # 5
    frequency:    23.8355962757
  - # 6
    frequency:    32.0045526500

- q-position: [    0.3333333,    0.0000000,    0.3750000 ]
  weight: 8    
  band:
  - # 1
    frequency:   -62.4691615851
  - # 2
    frequency:    10.9822899266
  - # 3
    frequency:    20.4262498263
  - # 4
    frequency:    21.4854340912
  - # 5
    frequency:    34.4766669371
  - # 6
    frequency:    42.0881287846

- q-position: [    0.4444444,    0.0000000,    0.3750000 ]
  weight: 8    
  band:
  - # 1
    frequency:    10.8591310973
  - # 2
    frequency:    13.5395064251
  - # 3
    frequency:    19.2297948535
  - # 4
    frequency:    29.5664054039
  - # 5
    frequency:    40.6285872375
  - # 6
    frequency:    44.8642058027

- q-position: [    0.1111111,    0.1111111,    0.3750000 ]
  weight: 4    
  band:
  - # 1
    frequency:  -106.9513547078
  - # 2
    frequency:     7.0070164939
  - # 3
    frequency:    11.7471386626
  - # 4
    frequency:    12.6428210530
  - # 5
    frequency:    23.8723309201
  - # 6
    frequency:    24.2851114792

- q-position: [    0.2222222,    0.1111111,    0.3750000 ]
  weight: 8    
  band:
  - # 1
    frequency:   -73.0020620019
  - # 2
    frequency:    10.2349545582
  - # 3
    frequency:    17.3722533430
  - # 4
    frequency:    22.1855515874
  - # 5
    frequency:    26.6029710133
  - # 6
    frequency:    34.7596888657

- q-position: [    0.3333333,    0.1111111,    0.3750000 ]
  weight: 8    
  band:
  - # 1
    frequency:   -14.6324683918
  - # 2
    frequency:    13.0283310682
  - # 3
    frequency:    19.7548158192
  - # 4
    frequency:    25.4919737702
  - # 5
    frequency:    35.6080237688
  - # 6
    frequency:    41.7335098208

- q-position: [   -0.5555556,    0.1111111,    0.3750000 ]
  weight: 8    
  band:
  - # 1
    frequency:    14.2721306402
  - # 2
    frequency:    18.4818294965
  - # 3
    frequency:    21.7066858540
  - # 4
    frequency:    34.4541100778
  - # 5
    frequency:    42.6704241445
  - # 6
    frequency:    50.5248087526

- q-position: [   -0.4444444,    0.1111111,    0.3750000 ]
  weight: 8    
  band:
  - # 1
    frequency:   -40.2589011385
  - # 2
    frequency:    12.3647771991
  - # 3
    frequency:    20.1692072531
  - # 4
    frequency:    26.6587695320
  - # 5
    frequency:    39.3669259887
  - # 6
    frequency:    52.8949397288

- q-position: [   -0.3333333,    0.1111111,    0.3750000 ]
  weight: 8    
  band:
  - # 1
    frequency:   -83.1026015434
  - # 2
    frequency:     9.3947663099
  - # 3
    frequency:    22.5438078650
  - # 4
    frequency:    23.8350380796
  - # 5
    frequency:    31.3061952547
  - # 6
    frequency:    47.2688107312

- q-position: [   -0.2222222,    0.1111111,    0.3750000 ]
  weight: 8    
  band:
  - # 1
    frequency:  -112.5679988702
  - # 2
    frequency:     6.1268933800
  - # 3
    frequency:    16.0736773833
  - # 4
    frequency:    21.0202216487
  - # 5
    frequency:    24.5135568297
  - # 6
    frequency:    37.2820788503

- q-position: [   -0.1111111,    0.1111111,    0.3750000 ]
  weight: 4    
  band:
  - # 1
    frequency:  -127.1246881335
  - # 2
    frequency:   -10.8096137762
  - # 3
    frequency:     3.3475777358
  - # 4
    frequency:    14.0945006224
  - # 5
    frequency:    25.1479989534
  - # 6
    frequency:    25.5880057456

- q-position: [    0.2222222,    0.2222222,    0.3750000 ]
  weight: 4    
  band:
  - # 1
    frequency:   -18.9555634948
  - # 2
    frequency:    12.8475043635
  - # 3
    frequency:    19.9412047006
  - # 4
    frequency:    25.4465064551
  - # 5
    frequency:    31.2665874342
  - # 6
    frequency:    41.2502543260

- q-position: [    0.3333333,    0.2222222,    0.3750000 ]
  weight: 8    
  band:
  - # 1
    frequency:    14.9456025107
  - # 2
    frequency:    17.7985686266
  - # 3
    frequency:    27.0446611198
  - # 4
    frequency:    35.8841712518
  - # 5
    frequency:    44.7512191264
  - # 6
    frequency:    53.9285538708

- q-position: [   -0.5555556,    0.2222222,    0.3750000 ]
  weight: 8    
  band:
  - # 1
    frequency:    14.1840952696
  - # 2
    frequency:    18.4028801787
  - # 3
    frequency:    23.4485452629
  - # 4
    frequency:    31.6899803380
  - # 5
    frequency:    43.1897346873
  - # 6
    frequency:    59.1844342284

- q-position: [   -0.4444444,    0.2222222,    0.3750000 ]
  weight: 8    
  band:
  - # 1
    frequency:   -52.6571365310
  - # 2
    frequency:    11.7443195169
  - # 3
    frequency:    20.5914390785
  - # 4
    frequency:    31.7377106856
  - # 5
    frequency:    38.4806040543
  - # 6
    frequency:    56.8538261091

- q-position: [   -0.3333333,    0.2222222,    0.3750000 ]
  weight: 8    
  band:
  - # 1
    frequency:   -87.8140254439
  - # 2
    frequency:     9.1056732174
  - # 3
    frequency:    22.6530349746
  - # 4
    frequency:    28.8640999151
  - # 5
    frequency:    31.7386987432
  - # 6
    frequency:    52.3143053567

- q-position: [   -0.2222222,    0.2222222,    0.3750000 ]
  weight: 4    
  band:
  - # 1
    frequency:  -108.0135263018
  - # 2
    frequency:     6.8218808978
  - # 3
    frequency:    21.0395254192
  - # 4
    frequency:    24.0780833525
  - # 5
    frequency:    26.4705604433
  - # 6
    frequency:    45.2383769245

- q-position: [   -0.6666667,    0.3333333,    0.3750000 ]
  weight: 4    
  band:
  - # 1
    frequency:    15.8425254886
  - # 2
    frequency:    16.7641711349
  - # 3
    frequency:    32.8424744630
  - # 4
    frequency:    38.4889184909
  - # 5
    frequency:    45.9620279919
  - # 6
    frequency:    60.2156272222

- q-position: [   -0.5555556,    0.3333333,    0.3750000 ]
  weight: 8    
  band:
  - # 1
    frequency:    14.0971887901
  - # 2
    frequency:    18.4568615624
  - # 3
    frequency:    27.6115747461
  - # 4
    frequency:    36.0443533512
  - # 5
    frequency:    42.6896672823
  - # 6
    frequency:    55.0115826414

- q-position: [   -0.4444444,    0.3333333,    0.3750000 ]
  weight: 8    
  band:
  - # 1
    frequency:   -50.1247737799
  - # 2
    frequency:    12.1764462556
  - # 3
    frequency:    20.2617639222
  - # 4
    frequency:    36.5526403492
  - # 5
    frequency:    38.7899596014
  - # 6
    frequency:    55.5589184790

- q-position: [   -0.3333333,    0.3333333,    0.3750000 ]
  weight: 4    
  band:
  - # 1
    frequency:   -77.1834517601
  - # 2
    frequency:    10.2829407558
  - # 3
    frequency:    21.8048943792
  - # 4
    frequency:    33.0145781283
  - # 5
    frequency:    35.5040035481
  - # 6
    frequency:    55.2723898157

- q-position: [   -0.5555556,    0.4444444,    0.3750000 ]
  weight: 4    
  band:
  - # 1
    frequency:    14.0166775619
  - # 2
    frequency:    18.6445500578
  - # 3
    frequency:    31.5349520761
  - # 4
    frequency:    39.5408717316
  - # 5
    frequency:    40.1568768933
  - # 6
    frequency:    42.7900335468

- q-position: [   -0.4444444,    0.4444444,    0.3750000 ]
  weight: 4    
  band:
  - # 1
    frequency:   -30.8779747896
  - # 2
    frequency:    13.2463660211
  - # 3
    frequency:    19.3981759158
  - # 4
    frequency:    39.1814336399
  - # 5
    frequency:    40.0402231319
  - # 6
    frequency:    49.3575792754

