 vasp.5.3.5 31Mar14 (build Nov 02 2014 15:17:37) complex                        
  
 executed on        ion-Intel-MKL date 2016.10.10  23:43:40
 running on    6 total cores
 distrk:  each k-point on    6 cores,    1 groups
 distr:  one band on NCORES_PER_BAND=   3 cores,    2 groups


--------------------------------------------------------------------------------------------------------


 INCAR:
 POTCAR:   PAW_PBE C 08Apr2002                    
 POTCAR:   PAW_PBE C 08Apr2002                    
   VRHFIN =C: s2p2                                                              
   LEXCH  = PE                                                                  
   EATOM  =   147.1560 eV,   10.8157 Ry                                         
                                                                                
   TITEL  = PAW_PBE C 08Apr2002                                                 
   LULTRA =        F    use ultrasoft PP ?                                      
   IUNSCR =        0    unscreen: 0-lin 1-nonlin 2-no                           
   RPACOR =     .000    partial core radius                                     
   POMASS =   12.011; ZVAL   =    4.000    mass and valenz                      
   RCORE  =    1.500    outmost cutoff radius                                   
   RWIGS  =    1.630; RWIGS  =     .863    wigner-seitz radius (au A)           
   ENMAX  =  400.000; ENMIN  =  300.000 eV                                      
   ICORE  =        2    local potential                                         
   LCOR   =        T    correct aug charges                                     
   LPAW   =        T    paw PP                                                  
   EAUG   =  644.873                                                            
   DEXC   =     .000                                                            
   RMAX   =    2.266    core radius for proj-oper                               
   RAUG   =    1.300    factor for augmentation sphere                          
   RDEP   =    1.501    radius for radial grids                                 
   RDEPT  =    1.300    core radius for aug-charge                              
   QCUT   =   -5.516; QGAM   =   11.032    optimization parameters              
                                                                                
   Description                                                                  
     l     E      TYP  RCUT    TYP  RCUT                                        
     0   .000     23  1.200                                                     
     0   .000     23  1.200                                                     
     1   .000     23  1.500                                                     
     1  2.500     23  1.500                                                     
     2   .000      7  1.500                                                     
  local pseudopotential read in
  atomic valenz-charges read in
  non local Contribution for L=           0  read in
    real space projection operators read in
  non local Contribution for L=           0  read in
    real space projection operators read in
  non local Contribution for L=           1  read in
    real space projection operators read in
  non local Contribution for L=           1  read in
    real space projection operators read in
    PAW grid and wavefunctions read in
 
   number of l-projection  operators is LMAX  =           4
   number of lm-projection operators is LMMAX =           8
 
 PAW_PBE C 08Apr2002                    :
 energy of atom  1       EATOM= -147.1560
 kinetic energy error for atom=    0.0057 (will be added to EATOM!!)
 
 
 POSCAR: CIF file                                
  positions in cartesian coordinates
  No initial velocities read in
 exchange correlation table for  LEXCH =        8
   RHO(1)=    0.500       N(1)  =     2000
   RHO(2)=  100.500       N(2)  =     4000
 


--------------------------------------------------------------------------------------------------------


 ion  position               nearest neighbor table
   1  0.999  0.001  0.083-   2 1.42   2 1.42   2 1.42
   2  0.333  0.667  0.083-   1 1.42   1 1.42   1 1.42
 
  LATTYP: Found a base centered orthorhombic cell.
 ALAT       =     2.4647749720
 B/A-ratio  =     1.7336082085
 C/A-ratio  =     8.1143310150
  
  Lattice vectors:
  
 A1 = (   2.4664373398,   0.0000000000,   0.0000000000)
 A2 = (  -1.2348804775,   2.1350370857,   0.0000000000)
 A3 = (   0.0000000000,   0.0000000000,  20.0000000000)


Analysis of symmetry for initial positions (statically):
=====================================================================
 Subroutine PRICEL returns:
 Original cell was already a primitive cell.
 

 Routine SETGRP: Setting up the symmetry group for a 
 base centered orthorhombic supercell.


 Subroutine GETGRP returns: Found  8 space group operations
 (whereof  2 operations were pure point group operations)
 out of a pool of  8 trial point group operations.


The static configuration has the point symmetry C_1h.
 The point group associated with its full space group is D_2h.


Analysis of symmetry for dynamics (positions and initial velocities):
=====================================================================
 Subroutine PRICEL returns:
 Original cell was already a primitive cell.
 

 Routine SETGRP: Setting up the symmetry group for a 
 base centered orthorhombic supercell.


 Subroutine GETGRP returns: Found  8 space group operations
 (whereof  2 operations were pure point group operations)
 out of a pool of  8 trial point group operations.


The dynamic configuration has the point symmetry C_1h.
 The point group associated with its full space group is D_2h.
 
 
 KPOINTS: B4C B11C-CBC                            

Automatic generation of k-mesh.
Space group operators:
 irot       det(A)        alpha          n_x          n_y          n_z        tau_x        tau_y        tau_z
    1     1.000000     0.000000     1.000000     0.000000     0.000000     0.000000     0.000000     0.000000
    2    -1.000000   180.000000    -0.499663    -0.866220     0.000000     0.000000     0.000000     0.000000
    3    -1.000000     0.000000     1.000000     0.000000     0.000000     0.331932     0.668069     0.165794
    4     1.000000   180.000000     0.000000     0.000000     1.000000     0.331932     0.668069     0.000000
    5    -1.000000   180.000000     0.000000     0.000000     1.000000     0.000000     0.000000     0.165794
    6     1.000000   180.000000     0.866220    -0.499663     0.000000     0.000000     0.000000     0.165794
    7    -1.000000   180.000000     0.866220    -0.499663     0.000000     0.331932     0.668069     0.000000
    8     1.000000   180.000000    -0.499663    -0.866220     0.000000     0.331932     0.668069     0.165794
 
 Subroutine IBZKPT returns following result:
 ===========================================
 
 Found    455 irreducible k-points:
 
 Following reciprocal coordinates:
            Coordinates               Weight
  0.000000  0.000000  0.000000      1.000000
  0.055556  0.000000  0.000000      4.000000
  0.111111  0.000000  0.000000      4.000000
  0.166667  0.000000  0.000000      4.000000
  0.222222  0.000000  0.000000      4.000000
  0.277778  0.000000  0.000000      4.000000
  0.333333  0.000000  0.000000      4.000000
  0.388889  0.000000  0.000000      4.000000
  0.444444  0.000000  0.000000      4.000000
  0.500000  0.000000  0.000000      2.000000
  0.055556  0.055556  0.000000      2.000000
  0.111111  0.055556  0.000000      4.000000
  0.166667  0.055556  0.000000      4.000000
  0.222222  0.055556  0.000000      4.000000
  0.277778  0.055556  0.000000      4.000000
  0.333333  0.055556  0.000000      4.000000
  0.388889  0.055556  0.000000      4.000000
  0.444444  0.055556  0.000000      4.000000
  0.500000  0.055556  0.000000      4.000000
 -0.444444  0.055556  0.000000      4.000000
 -0.388889  0.055556  0.000000      4.000000
 -0.333333  0.055556  0.000000      4.000000
 -0.277778  0.055556  0.000000      4.000000
 -0.222222  0.055556  0.000000      4.000000
 -0.166667  0.055556  0.000000      4.000000
 -0.111111  0.055556  0.000000      4.000000
 -0.055556  0.055556  0.000000      2.000000
  0.111111  0.111111  0.000000      2.000000
  0.166667  0.111111  0.000000      4.000000
  0.222222  0.111111  0.000000      4.000000
  0.277778  0.111111  0.000000      4.000000
  0.333333  0.111111  0.000000      4.000000
  0.388889  0.111111  0.000000      4.000000
  0.444444  0.111111  0.000000      4.000000
  0.500000  0.111111  0.000000      4.000000
 -0.444444  0.111111  0.000000      4.000000
 -0.388889  0.111111  0.000000      4.000000
 -0.333333  0.111111  0.000000      4.000000
 -0.277778  0.111111  0.000000      4.000000
 -0.222222  0.111111  0.000000      4.000000
 -0.166667  0.111111  0.000000      4.000000
 -0.111111  0.111111  0.000000      2.000000
  0.166667  0.166667  0.000000      2.000000
  0.222222  0.166667  0.000000      4.000000
  0.277778  0.166667  0.000000      4.000000
  0.333333  0.166667  0.000000      4.000000
  0.388889  0.166667  0.000000      4.000000
  0.444444  0.166667  0.000000      4.000000
  0.500000  0.166667  0.000000      4.000000
 -0.444444  0.166667  0.000000      4.000000
 -0.388889  0.166667  0.000000      4.000000
 -0.333333  0.166667  0.000000      4.000000
 -0.277778  0.166667  0.000000      4.000000
 -0.222222  0.166667  0.000000      4.000000
 -0.166667  0.166667  0.000000      2.000000
  0.222222  0.222222  0.000000      2.000000
  0.277778  0.222222  0.000000      4.000000
  0.333333  0.222222  0.000000      4.000000
  0.388889  0.222222  0.000000      4.000000
  0.444444  0.222222  0.000000      4.000000
  0.500000  0.222222  0.000000      4.000000
 -0.444444  0.222222  0.000000      4.000000
 -0.388889  0.222222  0.000000      4.000000
 -0.333333  0.222222  0.000000      4.000000
 -0.277778  0.222222  0.000000      4.000000
 -0.222222  0.222222  0.000000      2.000000
  0.277778  0.277778  0.000000      2.000000
  0.333333  0.277778  0.000000      4.000000
  0.388889  0.277778  0.000000      4.000000
  0.444444  0.277778  0.000000      4.000000
  0.500000  0.277778  0.000000      4.000000
 -0.444444  0.277778  0.000000      4.000000
 -0.388889  0.277778  0.000000      4.000000
 -0.333333  0.277778  0.000000      4.000000
 -0.277778  0.277778  0.000000      2.000000
  0.333333  0.333333  0.000000      2.000000
  0.388889  0.333333  0.000000      4.000000
  0.444444  0.333333  0.000000      4.000000
  0.500000  0.333333  0.000000      4.000000
 -0.444444  0.333333  0.000000      4.000000
 -0.388889  0.333333  0.000000      4.000000
 -0.333333  0.333333  0.000000      2.000000
  0.388889  0.388889  0.000000      2.000000
  0.444444  0.388889  0.000000      4.000000
  0.500000  0.388889  0.000000      4.000000
 -0.444444  0.388889  0.000000      4.000000
 -0.388889  0.388889  0.000000      2.000000
  0.444444  0.444444  0.000000      2.000000
  0.500000  0.444444  0.000000      4.000000
 -0.444444  0.444444  0.000000      2.000000
  0.500000  0.500000  0.000000      1.000000
  0.000000  0.000000  0.125000      2.000000
  0.055556  0.000000  0.125000      8.000000
  0.111111  0.000000  0.125000      8.000000
  0.166667  0.000000  0.125000      8.000000
  0.222222  0.000000  0.125000      8.000000
  0.277778  0.000000  0.125000      8.000000
  0.333333  0.000000  0.125000      8.000000
  0.388889  0.000000  0.125000      8.000000
  0.444444  0.000000  0.125000      8.000000
  0.500000  0.000000  0.125000      4.000000
  0.055556  0.055556  0.125000      4.000000
  0.111111  0.055556  0.125000      8.000000
  0.166667  0.055556  0.125000      8.000000
  0.222222  0.055556  0.125000      8.000000
  0.277778  0.055556  0.125000      8.000000
  0.333333  0.055556  0.125000      8.000000
  0.388889  0.055556  0.125000      8.000000
  0.444444  0.055556  0.125000      8.000000
  0.500000  0.055556  0.125000      8.000000
 -0.444444  0.055556  0.125000      8.000000
 -0.388889  0.055556  0.125000      8.000000
 -0.333333  0.055556  0.125000      8.000000
 -0.277778  0.055556  0.125000      8.000000
 -0.222222  0.055556  0.125000      8.000000
 -0.166667  0.055556  0.125000      8.000000
 -0.111111  0.055556  0.125000      8.000000
 -0.055556  0.055556  0.125000      4.000000
  0.111111  0.111111  0.125000      4.000000
  0.166667  0.111111  0.125000      8.000000
  0.222222  0.111111  0.125000      8.000000
  0.277778  0.111111  0.125000      8.000000
  0.333333  0.111111  0.125000      8.000000
  0.388889  0.111111  0.125000      8.000000
  0.444444  0.111111  0.125000      8.000000
  0.500000  0.111111  0.125000      8.000000
 -0.444444  0.111111  0.125000      8.000000
 -0.388889  0.111111  0.125000      8.000000
 -0.333333  0.111111  0.125000      8.000000
 -0.277778  0.111111  0.125000      8.000000
 -0.222222  0.111111  0.125000      8.000000
 -0.166667  0.111111  0.125000      8.000000
 -0.111111  0.111111  0.125000      4.000000
  0.166667  0.166667  0.125000      4.000000
  0.222222  0.166667  0.125000      8.000000
  0.277778  0.166667  0.125000      8.000000
  0.333333  0.166667  0.125000      8.000000
  0.388889  0.166667  0.125000      8.000000
  0.444444  0.166667  0.125000      8.000000
  0.500000  0.166667  0.125000      8.000000
 -0.444444  0.166667  0.125000      8.000000
 -0.388889  0.166667  0.125000      8.000000
 -0.333333  0.166667  0.125000      8.000000
 -0.277778  0.166667  0.125000      8.000000
 -0.222222  0.166667  0.125000      8.000000
 -0.166667  0.166667  0.125000      4.000000
  0.222222  0.222222  0.125000      4.000000
  0.277778  0.222222  0.125000      8.000000
  0.333333  0.222222  0.125000      8.000000
  0.388889  0.222222  0.125000      8.000000
  0.444444  0.222222  0.125000      8.000000
  0.500000  0.222222  0.125000      8.000000
 -0.444444  0.222222  0.125000      8.000000
 -0.388889  0.222222  0.125000      8.000000
 -0.333333  0.222222  0.125000      8.000000
 -0.277778  0.222222  0.125000      8.000000
 -0.222222  0.222222  0.125000      4.000000
  0.277778  0.277778  0.125000      4.000000
  0.333333  0.277778  0.125000      8.000000
  0.388889  0.277778  0.125000      8.000000
  0.444444  0.277778  0.125000      8.000000
  0.500000  0.277778  0.125000      8.000000
 -0.444444  0.277778  0.125000      8.000000
 -0.388889  0.277778  0.125000      8.000000
 -0.333333  0.277778  0.125000      8.000000
 -0.277778  0.277778  0.125000      4.000000
  0.333333  0.333333  0.125000      4.000000
  0.388889  0.333333  0.125000      8.000000
  0.444444  0.333333  0.125000      8.000000
  0.500000  0.333333  0.125000      8.000000
 -0.444444  0.333333  0.125000      8.000000
 -0.388889  0.333333  0.125000      8.000000
 -0.333333  0.333333  0.125000      4.000000
  0.388889  0.388889  0.125000      4.000000
  0.444444  0.388889  0.125000      8.000000
  0.500000  0.388889  0.125000      8.000000
 -0.444444  0.388889  0.125000      8.000000
 -0.388889  0.388889  0.125000      4.000000
  0.444444  0.444444  0.125000      4.000000
  0.500000  0.444444  0.125000      8.000000
 -0.444444  0.444444  0.125000      4.000000
  0.500000  0.500000  0.125000      2.000000
  0.000000  0.000000  0.250000      2.000000
  0.055556  0.000000  0.250000      8.000000
  0.111111  0.000000  0.250000      8.000000
  0.166667  0.000000  0.250000      8.000000
  0.222222  0.000000  0.250000      8.000000
  0.277778  0.000000  0.250000      8.000000
  0.333333  0.000000  0.250000      8.000000
  0.388889  0.000000  0.250000      8.000000
  0.444444  0.000000  0.250000      8.000000
  0.500000  0.000000  0.250000      4.000000
  0.055556  0.055556  0.250000      4.000000
  0.111111  0.055556  0.250000      8.000000
  0.166667  0.055556  0.250000      8.000000
  0.222222  0.055556  0.250000      8.000000
  0.277778  0.055556  0.250000      8.000000
  0.333333  0.055556  0.250000      8.000000
  0.388889  0.055556  0.250000      8.000000
  0.444444  0.055556  0.250000      8.000000
  0.500000  0.055556  0.250000      8.000000
 -0.444444  0.055556  0.250000      8.000000
 -0.388889  0.055556  0.250000      8.000000
 -0.333333  0.055556  0.250000      8.000000
 -0.277778  0.055556  0.250000      8.000000
 -0.222222  0.055556  0.250000      8.000000
 -0.166667  0.055556  0.250000      8.000000
 -0.111111  0.055556  0.250000      8.000000
 -0.055556  0.055556  0.250000      4.000000
  0.111111  0.111111  0.250000      4.000000
  0.166667  0.111111  0.250000      8.000000
  0.222222  0.111111  0.250000      8.000000
  0.277778  0.111111  0.250000      8.000000
  0.333333  0.111111  0.250000      8.000000
  0.388889  0.111111  0.250000      8.000000
  0.444444  0.111111  0.250000      8.000000
  0.500000  0.111111  0.250000      8.000000
 -0.444444  0.111111  0.250000      8.000000
 -0.388889  0.111111  0.250000      8.000000
 -0.333333  0.111111  0.250000      8.000000
 -0.277778  0.111111  0.250000      8.000000
 -0.222222  0.111111  0.250000      8.000000
 -0.166667  0.111111  0.250000      8.000000
 -0.111111  0.111111  0.250000      4.000000
  0.166667  0.166667  0.250000      4.000000
  0.222222  0.166667  0.250000      8.000000
  0.277778  0.166667  0.250000      8.000000
  0.333333  0.166667  0.250000      8.000000
  0.388889  0.166667  0.250000      8.000000
  0.444444  0.166667  0.250000      8.000000
  0.500000  0.166667  0.250000      8.000000
 -0.444444  0.166667  0.250000      8.000000
 -0.388889  0.166667  0.250000      8.000000
 -0.333333  0.166667  0.250000      8.000000
 -0.277778  0.166667  0.250000      8.000000
 -0.222222  0.166667  0.250000      8.000000
 -0.166667  0.166667  0.250000      4.000000
  0.222222  0.222222  0.250000      4.000000
  0.277778  0.222222  0.250000      8.000000
  0.333333  0.222222  0.250000      8.000000
  0.388889  0.222222  0.250000      8.000000
  0.444444  0.222222  0.250000      8.000000
  0.500000  0.222222  0.250000      8.000000
 -0.444444  0.222222  0.250000      8.000000
 -0.388889  0.222222  0.250000      8.000000
 -0.333333  0.222222  0.250000      8.000000
 -0.277778  0.222222  0.250000      8.000000
 -0.222222  0.222222  0.250000      4.000000
  0.277778  0.277778  0.250000      4.000000
  0.333333  0.277778  0.250000      8.000000
  0.388889  0.277778  0.250000      8.000000
  0.444444  0.277778  0.250000      8.000000
  0.500000  0.277778  0.250000      8.000000
 -0.444444  0.277778  0.250000      8.000000
 -0.388889  0.277778  0.250000      8.000000
 -0.333333  0.277778  0.250000      8.000000
 -0.277778  0.277778  0.250000      4.000000
  0.333333  0.333333  0.250000      4.000000
  0.388889  0.333333  0.250000      8.000000
  0.444444  0.333333  0.250000      8.000000
  0.500000  0.333333  0.250000      8.000000
 -0.444444  0.333333  0.250000      8.000000
 -0.388889  0.333333  0.250000      8.000000
 -0.333333  0.333333  0.250000      4.000000
  0.388889  0.388889  0.250000      4.000000
  0.444444  0.388889  0.250000      8.000000
  0.500000  0.388889  0.250000      8.000000
 -0.444444  0.388889  0.250000      8.000000
 -0.388889  0.388889  0.250000      4.000000
  0.444444  0.444444  0.250000      4.000000
  0.500000  0.444444  0.250000      8.000000
 -0.444444  0.444444  0.250000      4.000000
  0.500000  0.500000  0.250000      2.000000
  0.000000  0.000000  0.375000      2.000000
  0.055556  0.000000  0.375000      8.000000
  0.111111  0.000000  0.375000      8.000000
  0.166667  0.000000  0.375000      8.000000
  0.222222  0.000000  0.375000      8.000000
  0.277778  0.000000  0.375000      8.000000
  0.333333  0.000000  0.375000      8.000000
  0.388889  0.000000  0.375000      8.000000
  0.444444  0.000000  0.375000      8.000000
  0.500000  0.000000  0.375000      4.000000
  0.055556  0.055556  0.375000      4.000000
  0.111111  0.055556  0.375000      8.000000
  0.166667  0.055556  0.375000      8.000000
  0.222222  0.055556  0.375000      8.000000
  0.277778  0.055556  0.375000      8.000000
  0.333333  0.055556  0.375000      8.000000
  0.388889  0.055556  0.375000      8.000000
  0.444444  0.055556  0.375000      8.000000
  0.500000  0.055556  0.375000      8.000000
 -0.444444  0.055556  0.375000      8.000000
 -0.388889  0.055556  0.375000      8.000000
 -0.333333  0.055556  0.375000      8.000000
 -0.277778  0.055556  0.375000      8.000000
 -0.222222  0.055556  0.375000      8.000000
 -0.166667  0.055556  0.375000      8.000000
 -0.111111  0.055556  0.375000      8.000000
 -0.055556  0.055556  0.375000      4.000000
  0.111111  0.111111  0.375000      4.000000
  0.166667  0.111111  0.375000      8.000000
  0.222222  0.111111  0.375000      8.000000
  0.277778  0.111111  0.375000      8.000000
  0.333333  0.111111  0.375000      8.000000
  0.388889  0.111111  0.375000      8.000000
  0.444444  0.111111  0.375000      8.000000
  0.500000  0.111111  0.375000      8.000000
 -0.444444  0.111111  0.375000      8.000000
 -0.388889  0.111111  0.375000      8.000000
 -0.333333  0.111111  0.375000      8.000000
 -0.277778  0.111111  0.375000      8.000000
 -0.222222  0.111111  0.375000      8.000000
 -0.166667  0.111111  0.375000      8.000000
 -0.111111  0.111111  0.375000      4.000000
  0.166667  0.166667  0.375000      4.000000
  0.222222  0.166667  0.375000      8.000000
  0.277778  0.166667  0.375000      8.000000
  0.333333  0.166667  0.375000      8.000000
  0.388889  0.166667  0.375000      8.000000
  0.444444  0.166667  0.375000      8.000000
  0.500000  0.166667  0.375000      8.000000
 -0.444444  0.166667  0.375000      8.000000
 -0.388889  0.166667  0.375000      8.000000
 -0.333333  0.166667  0.375000      8.000000
 -0.277778  0.166667  0.375000      8.000000
 -0.222222  0.166667  0.375000      8.000000
 -0.166667  0.166667  0.375000      4.000000
  0.222222  0.222222  0.375000      4.000000
  0.277778  0.222222  0.375000      8.000000
  0.333333  0.222222  0.375000      8.000000
  0.388889  0.222222  0.375000      8.000000
  0.444444  0.222222  0.375000      8.000000
  0.500000  0.222222  0.375000      8.000000
 -0.444444  0.222222  0.375000      8.000000
 -0.388889  0.222222  0.375000      8.000000
 -0.333333  0.222222  0.375000      8.000000
 -0.277778  0.222222  0.375000      8.000000
 -0.222222  0.222222  0.375000      4.000000
  0.277778  0.277778  0.375000      4.000000
  0.333333  0.277778  0.375000      8.000000
  0.388889  0.277778  0.375000      8.000000
  0.444444  0.277778  0.375000      8.000000
  0.500000  0.277778  0.375000      8.000000
 -0.444444  0.277778  0.375000      8.000000
 -0.388889  0.277778  0.375000      8.000000
 -0.333333  0.277778  0.375000      8.000000
 -0.277778  0.277778  0.375000      4.000000
  0.333333  0.333333  0.375000      4.000000
  0.388889  0.333333  0.375000      8.000000
  0.444444  0.333333  0.375000      8.000000
  0.500000  0.333333  0.375000      8.000000
 -0.444444  0.333333  0.375000      8.000000
 -0.388889  0.333333  0.375000      8.000000
 -0.333333  0.333333  0.375000      4.000000
  0.388889  0.388889  0.375000      4.000000
  0.444444  0.388889  0.375000      8.000000
  0.500000  0.388889  0.375000      8.000000
 -0.444444  0.388889  0.375000      8.000000
 -0.388889  0.388889  0.375000      4.000000
  0.444444  0.444444  0.375000      4.000000
  0.500000  0.444444  0.375000      8.000000
 -0.444444  0.444444  0.375000      4.000000
  0.500000  0.500000  0.375000      2.000000
  0.000000  0.000000  0.500000      1.000000
  0.055556  0.000000  0.500000      4.000000
  0.111111  0.000000  0.500000      4.000000
  0.166667  0.000000  0.500000      4.000000
  0.222222  0.000000  0.500000      4.000000
  0.277778  0.000000  0.500000      4.000000
  0.333333  0.000000  0.500000      4.000000
  0.388889  0.000000  0.500000      4.000000
  0.444444  0.000000  0.500000      4.000000
  0.500000  0.000000  0.500000      2.000000
  0.055556  0.055556  0.500000      2.000000
  0.111111  0.055556  0.500000      4.000000
  0.166667  0.055556  0.500000      4.000000
  0.222222  0.055556  0.500000      4.000000
  0.277778  0.055556  0.500000      4.000000
  0.333333  0.055556  0.500000      4.000000
  0.388889  0.055556  0.500000      4.000000
  0.444444  0.055556  0.500000      4.000000
  0.500000  0.055556  0.500000      4.000000
 -0.444444  0.055556  0.500000      4.000000
 -0.388889  0.055556  0.500000      4.000000
 -0.333333  0.055556  0.500000      4.000000
 -0.277778  0.055556  0.500000      4.000000
 -0.222222  0.055556  0.500000      4.000000
 -0.166667  0.055556  0.500000      4.000000
 -0.111111  0.055556  0.500000      4.000000
 -0.055556  0.055556  0.500000      2.000000
  0.111111  0.111111  0.500000      2.000000
  0.166667  0.111111  0.500000      4.000000
  0.222222  0.111111  0.500000      4.000000
  0.277778  0.111111  0.500000      4.000000
  0.333333  0.111111  0.500000      4.000000
  0.388889  0.111111  0.500000      4.000000
  0.444444  0.111111  0.500000      4.000000
  0.500000  0.111111  0.500000      4.000000
 -0.444444  0.111111  0.500000      4.000000
 -0.388889  0.111111  0.500000      4.000000
 -0.333333  0.111111  0.500000      4.000000
 -0.277778  0.111111  0.500000      4.000000
 -0.222222  0.111111  0.500000      4.000000
 -0.166667  0.111111  0.500000      4.000000
 -0.111111  0.111111  0.500000      2.000000
  0.166667  0.166667  0.500000      2.000000
  0.222222  0.166667  0.500000      4.000000
  0.277778  0.166667  0.500000      4.000000
  0.333333  0.166667  0.500000      4.000000
  0.388889  0.166667  0.500000      4.000000
  0.444444  0.166667  0.500000      4.000000
  0.500000  0.166667  0.500000      4.000000
 -0.444444  0.166667  0.500000      4.000000
 -0.388889  0.166667  0.500000      4.000000
 -0.333333  0.166667  0.500000      4.000000
 -0.277778  0.166667  0.500000      4.000000
 -0.222222  0.166667  0.500000      4.000000
 -0.166667  0.166667  0.500000      2.000000
  0.222222  0.222222  0.500000      2.000000
  0.277778  0.222222  0.500000      4.000000
  0.333333  0.222222  0.500000      4.000000
  0.388889  0.222222  0.500000      4.000000
  0.444444  0.222222  0.500000      4.000000
  0.500000  0.222222  0.500000      4.000000
 -0.444444  0.222222  0.500000      4.000000
 -0.388889  0.222222  0.500000      4.000000
 -0.333333  0.222222  0.500000      4.000000
 -0.277778  0.222222  0.500000      4.000000
 -0.222222  0.222222  0.500000      2.000000
  0.277778  0.277778  0.500000      2.000000
  0.333333  0.277778  0.500000      4.000000
  0.388889  0.277778  0.500000      4.000000
  0.444444  0.277778  0.500000      4.000000
  0.500000  0.277778  0.500000      4.000000
 -0.444444  0.277778  0.500000      4.000000
 -0.388889  0.277778  0.500000      4.000000
 -0.333333  0.277778  0.500000      4.000000
 -0.277778  0.277778  0.500000      2.000000
  0.333333  0.333333  0.500000      2.000000
  0.388889  0.333333  0.500000      4.000000
  0.444444  0.333333  0.500000      4.000000
  0.500000  0.333333  0.500000      4.000000
 -0.444444  0.333333  0.500000      4.000000
 -0.388889  0.333333  0.500000      4.000000
 -0.333333  0.333333  0.500000      2.000000
  0.388889  0.388889  0.500000      2.000000
  0.444444  0.388889  0.500000      4.000000
  0.500000  0.388889  0.500000      4.000000
 -0.444444  0.388889  0.500000      4.000000
 -0.388889  0.388889  0.500000      2.000000
  0.444444  0.444444  0.500000      2.000000
  0.500000  0.444444  0.500000      4.000000
 -0.444444  0.444444  0.500000      2.000000
  0.500000  0.500000  0.500000      1.000000
 
 Following cartesian coordinates:
            Coordinates               Weight
  0.000000  0.000000  0.000000      1.000000
  0.022525  0.013028  0.000000      4.000000
  0.045049  0.026056  0.000000      4.000000
  0.067574  0.039084  0.000000      4.000000
  0.090098  0.052112  0.000000      4.000000
  0.112623  0.065140  0.000000      4.000000
  0.135148  0.078168  0.000000      4.000000
  0.157672  0.091196  0.000000      4.000000
  0.180197  0.104224  0.000000      4.000000
  0.202722  0.117252  0.000000      2.000000
  0.022525  0.039049  0.000000      2.000000
  0.045049  0.052077  0.000000      4.000000
  0.067574  0.065105  0.000000      4.000000
  0.090098  0.078133  0.000000      4.000000
  0.112623  0.091161  0.000000      4.000000
  0.135148  0.104189  0.000000      4.000000
  0.157672  0.117217  0.000000      4.000000
  0.180197  0.130245  0.000000      4.000000
  0.202722  0.143273  0.000000      4.000000
 -0.180197 -0.078203  0.000000      4.000000
 -0.157672 -0.065175  0.000000      4.000000
 -0.135148 -0.052147  0.000000      4.000000
 -0.112623 -0.039119  0.000000      4.000000
 -0.090098 -0.026091  0.000000      4.000000
 -0.067574 -0.013063  0.000000      4.000000
 -0.045049 -0.000035  0.000000      4.000000
 -0.022525  0.012993  0.000000      2.000000
  0.045049  0.078098  0.000000      2.000000
  0.067574  0.091126  0.000000      4.000000
  0.090098  0.104154  0.000000      4.000000
  0.112623  0.117182  0.000000      4.000000
  0.135148  0.130210  0.000000      4.000000
  0.157672  0.143238  0.000000      4.000000
  0.180197  0.156266  0.000000      4.000000
  0.202722  0.169294  0.000000      4.000000
 -0.180197 -0.052182  0.000000      4.000000
 -0.157672 -0.039154  0.000000      4.000000
 -0.135148 -0.026126  0.000000      4.000000
 -0.112623 -0.013098  0.000000      4.000000
 -0.090098 -0.000070  0.000000      4.000000
 -0.067574  0.012958  0.000000      4.000000
 -0.045049  0.025986  0.000000      2.000000
  0.067574  0.117147  0.000000      2.000000
  0.090098  0.130175  0.000000      4.000000
  0.112623  0.143203  0.000000      4.000000
  0.135148  0.156231  0.000000      4.000000
  0.157672  0.169258  0.000000      4.000000
  0.180197  0.182286  0.000000      4.000000
  0.202722  0.195314  0.000000      4.000000
 -0.180197 -0.026161  0.000000      4.000000
 -0.157672 -0.013133  0.000000      4.000000
 -0.135148 -0.000105  0.000000      4.000000
 -0.112623  0.012923  0.000000      4.000000
 -0.090098  0.025951  0.000000      4.000000
 -0.067574  0.038979  0.000000      2.000000
  0.090098  0.156195  0.000000      2.000000
  0.112623  0.169223  0.000000      4.000000
  0.135148  0.182251  0.000000      4.000000
  0.157672  0.195279  0.000000      4.000000
  0.180197  0.208307  0.000000      4.000000
  0.202722  0.221335  0.000000      4.000000
 -0.180197 -0.000140  0.000000      4.000000
 -0.157672  0.012888  0.000000      4.000000
 -0.135148  0.025916  0.000000      4.000000
 -0.112623  0.038944  0.000000      4.000000
 -0.090098  0.051972  0.000000      2.000000
  0.112623  0.195244  0.000000      2.000000
  0.135148  0.208272  0.000000      4.000000
  0.157672  0.221300  0.000000      4.000000
  0.180197  0.234328  0.000000      4.000000
  0.202722  0.247356  0.000000      4.000000
 -0.180197  0.025881  0.000000      4.000000
 -0.157672  0.038909  0.000000      4.000000
 -0.135148  0.051937  0.000000      4.000000
 -0.112623  0.064965  0.000000      2.000000
  0.135148  0.234293  0.000000      2.000000
  0.157672  0.247321  0.000000      4.000000
  0.180197  0.260349  0.000000      4.000000
  0.202722  0.273377  0.000000      4.000000
 -0.180197  0.051902  0.000000      4.000000
 -0.157672  0.064929  0.000000      4.000000
 -0.135148  0.077957  0.000000      2.000000
  0.157672  0.273342  0.000000      2.000000
  0.180197  0.286370  0.000000      4.000000
  0.202722  0.299398  0.000000      4.000000
 -0.180197  0.077922  0.000000      4.000000
 -0.157672  0.090950  0.000000      2.000000
  0.180197  0.312391  0.000000      2.000000
  0.202722  0.325419  0.000000      4.000000
 -0.180197  0.103943  0.000000      2.000000
  0.202722  0.351440  0.000000      1.000000
  0.000000  0.000000  0.006250      2.000000
  0.022525  0.013028  0.006250      8.000000
  0.045049  0.026056  0.006250      8.000000
  0.067574  0.039084  0.006250      8.000000
  0.090098  0.052112  0.006250      8.000000
  0.112623  0.065140  0.006250      8.000000
  0.135148  0.078168  0.006250      8.000000
  0.157672  0.091196  0.006250      8.000000
  0.180197  0.104224  0.006250      8.000000
  0.202722  0.117252  0.006250      4.000000
  0.022525  0.039049  0.006250      4.000000
  0.045049  0.052077  0.006250      8.000000
  0.067574  0.065105  0.006250      8.000000
  0.090098  0.078133  0.006250      8.000000
  0.112623  0.091161  0.006250      8.000000
  0.135148  0.104189  0.006250      8.000000
  0.157672  0.117217  0.006250      8.000000
  0.180197  0.130245  0.006250      8.000000
  0.202722  0.143273  0.006250      8.000000
 -0.180197 -0.078203  0.006250      8.000000
 -0.157672 -0.065175  0.006250      8.000000
 -0.135148 -0.052147  0.006250      8.000000
 -0.112623 -0.039119  0.006250      8.000000
 -0.090098 -0.026091  0.006250      8.000000
 -0.067574 -0.013063  0.006250      8.000000
 -0.045049 -0.000035  0.006250      8.000000
 -0.022525  0.012993  0.006250      4.000000
  0.045049  0.078098  0.006250      4.000000
  0.067574  0.091126  0.006250      8.000000
  0.090098  0.104154  0.006250      8.000000
  0.112623  0.117182  0.006250      8.000000
  0.135148  0.130210  0.006250      8.000000
  0.157672  0.143238  0.006250      8.000000
  0.180197  0.156266  0.006250      8.000000
  0.202722  0.169294  0.006250      8.000000
 -0.180197 -0.052182  0.006250      8.000000
 -0.157672 -0.039154  0.006250      8.000000
 -0.135148 -0.026126  0.006250      8.000000
 -0.112623 -0.013098  0.006250      8.000000
 -0.090098 -0.000070  0.006250      8.000000
 -0.067574  0.012958  0.006250      8.000000
 -0.045049  0.025986  0.006250      4.000000
  0.067574  0.117147  0.006250      4.000000
  0.090098  0.130175  0.006250      8.000000
  0.112623  0.143203  0.006250      8.000000
  0.135148  0.156231  0.006250      8.000000
  0.157672  0.169258  0.006250      8.000000
  0.180197  0.182286  0.006250      8.000000
  0.202722  0.195314  0.006250      8.000000
 -0.180197 -0.026161  0.006250      8.000000
 -0.157672 -0.013133  0.006250      8.000000
 -0.135148 -0.000105  0.006250      8.000000
 -0.112623  0.012923  0.006250      8.000000
 -0.090098  0.025951  0.006250      8.000000
 -0.067574  0.038979  0.006250      4.000000
  0.090098  0.156195  0.006250      4.000000
  0.112623  0.169223  0.006250      8.000000
  0.135148  0.182251  0.006250      8.000000
  0.157672  0.195279  0.006250      8.000000
  0.180197  0.208307  0.006250      8.000000
  0.202722  0.221335  0.006250      8.000000
 -0.180197 -0.000140  0.006250      8.000000
 -0.157672  0.012888  0.006250      8.000000
 -0.135148  0.025916  0.006250      8.000000
 -0.112623  0.038944  0.006250      8.000000
 -0.090098  0.051972  0.006250      4.000000
  0.112623  0.195244  0.006250      4.000000
  0.135148  0.208272  0.006250      8.000000
  0.157672  0.221300  0.006250      8.000000
  0.180197  0.234328  0.006250      8.000000
  0.202722  0.247356  0.006250      8.000000
 -0.180197  0.025881  0.006250      8.000000
 -0.157672  0.038909  0.006250      8.000000
 -0.135148  0.051937  0.006250      8.000000
 -0.112623  0.064965  0.006250      4.000000
  0.135148  0.234293  0.006250      4.000000
  0.157672  0.247321  0.006250      8.000000
  0.180197  0.260349  0.006250      8.000000
  0.202722  0.273377  0.006250      8.000000
 -0.180197  0.051902  0.006250      8.000000
 -0.157672  0.064929  0.006250      8.000000
 -0.135148  0.077957  0.006250      4.000000
  0.157672  0.273342  0.006250      4.000000
  0.180197  0.286370  0.006250      8.000000
  0.202722  0.299398  0.006250      8.000000
 -0.180197  0.077922  0.006250      8.000000
 -0.157672  0.090950  0.006250      4.000000
  0.180197  0.312391  0.006250      4.000000
  0.202722  0.325419  0.006250      8.000000
 -0.180197  0.103943  0.006250      4.000000
  0.202722  0.351440  0.006250      2.000000
  0.000000  0.000000  0.012500      2.000000
  0.022525  0.013028  0.012500      8.000000
  0.045049  0.026056  0.012500      8.000000
  0.067574  0.039084  0.012500      8.000000
  0.090098  0.052112  0.012500      8.000000
  0.112623  0.065140  0.012500      8.000000
  0.135148  0.078168  0.012500      8.000000
  0.157672  0.091196  0.012500      8.000000
  0.180197  0.104224  0.012500      8.000000
  0.202722  0.117252  0.012500      4.000000
  0.022525  0.039049  0.012500      4.000000
  0.045049  0.052077  0.012500      8.000000
  0.067574  0.065105  0.012500      8.000000
  0.090098  0.078133  0.012500      8.000000
  0.112623  0.091161  0.012500      8.000000
  0.135148  0.104189  0.012500      8.000000
  0.157672  0.117217  0.012500      8.000000
  0.180197  0.130245  0.012500      8.000000
  0.202722  0.143273  0.012500      8.000000
 -0.180197 -0.078203  0.012500      8.000000
 -0.157672 -0.065175  0.012500      8.000000
 -0.135148 -0.052147  0.012500      8.000000
 -0.112623 -0.039119  0.012500      8.000000
 -0.090098 -0.026091  0.012500      8.000000
 -0.067574 -0.013063  0.012500      8.000000
 -0.045049 -0.000035  0.012500      8.000000
 -0.022525  0.012993  0.012500      4.000000
  0.045049  0.078098  0.012500      4.000000
  0.067574  0.091126  0.012500      8.000000
  0.090098  0.104154  0.012500      8.000000
  0.112623  0.117182  0.012500      8.000000
  0.135148  0.130210  0.012500      8.000000
  0.157672  0.143238  0.012500      8.000000
  0.180197  0.156266  0.012500      8.000000
  0.202722  0.169294  0.012500      8.000000
 -0.180197 -0.052182  0.012500      8.000000
 -0.157672 -0.039154  0.012500      8.000000
 -0.135148 -0.026126  0.012500      8.000000
 -0.112623 -0.013098  0.012500      8.000000
 -0.090098 -0.000070  0.012500      8.000000
 -0.067574  0.012958  0.012500      8.000000
 -0.045049  0.025986  0.012500      4.000000
  0.067574  0.117147  0.012500      4.000000
  0.090098  0.130175  0.012500      8.000000
  0.112623  0.143203  0.012500      8.000000
  0.135148  0.156231  0.012500      8.000000
  0.157672  0.169258  0.012500      8.000000
  0.180197  0.182286  0.012500      8.000000
  0.202722  0.195314  0.012500      8.000000
 -0.180197 -0.026161  0.012500      8.000000
 -0.157672 -0.013133  0.012500      8.000000
 -0.135148 -0.000105  0.012500      8.000000
 -0.112623  0.012923  0.012500      8.000000
 -0.090098  0.025951  0.012500      8.000000
 -0.067574  0.038979  0.012500      4.000000
  0.090098  0.156195  0.012500      4.000000
  0.112623  0.169223  0.012500      8.000000
  0.135148  0.182251  0.012500      8.000000
  0.157672  0.195279  0.012500      8.000000
  0.180197  0.208307  0.012500      8.000000
  0.202722  0.221335  0.012500      8.000000
 -0.180197 -0.000140  0.012500      8.000000
 -0.157672  0.012888  0.012500      8.000000
 -0.135148  0.025916  0.012500      8.000000
 -0.112623  0.038944  0.012500      8.000000
 -0.090098  0.051972  0.012500      4.000000
  0.112623  0.195244  0.012500      4.000000
  0.135148  0.208272  0.012500      8.000000
  0.157672  0.221300  0.012500      8.000000
  0.180197  0.234328  0.012500      8.000000
  0.202722  0.247356  0.012500      8.000000
 -0.180197  0.025881  0.012500      8.000000
 -0.157672  0.038909  0.012500      8.000000
 -0.135148  0.051937  0.012500      8.000000
 -0.112623  0.064965  0.012500      4.000000
  0.135148  0.234293  0.012500      4.000000
  0.157672  0.247321  0.012500      8.000000
  0.180197  0.260349  0.012500      8.000000
  0.202722  0.273377  0.012500      8.000000
 -0.180197  0.051902  0.012500      8.000000
 -0.157672  0.064929  0.012500      8.000000
 -0.135148  0.077957  0.012500      4.000000
  0.157672  0.273342  0.012500      4.000000
  0.180197  0.286370  0.012500      8.000000
  0.202722  0.299398  0.012500      8.000000
 -0.180197  0.077922  0.012500      8.000000
 -0.157672  0.090950  0.012500      4.000000
  0.180197  0.312391  0.012500      4.000000
  0.202722  0.325419  0.012500      8.000000
 -0.180197  0.103943  0.012500      4.000000
  0.202722  0.351440  0.012500      2.000000
  0.000000  0.000000  0.018750      2.000000
  0.022525  0.013028  0.018750      8.000000
  0.045049  0.026056  0.018750      8.000000
  0.067574  0.039084  0.018750      8.000000
  0.090098  0.052112  0.018750      8.000000
  0.112623  0.065140  0.018750      8.000000
  0.135148  0.078168  0.018750      8.000000
  0.157672  0.091196  0.018750      8.000000
  0.180197  0.104224  0.018750      8.000000
  0.202722  0.117252  0.018750      4.000000
  0.022525  0.039049  0.018750      4.000000
  0.045049  0.052077  0.018750      8.000000
  0.067574  0.065105  0.018750      8.000000
  0.090098  0.078133  0.018750      8.000000
  0.112623  0.091161  0.018750      8.000000
  0.135148  0.104189  0.018750      8.000000
  0.157672  0.117217  0.018750      8.000000
  0.180197  0.130245  0.018750      8.000000
  0.202722  0.143273  0.018750      8.000000
 -0.180197 -0.078203  0.018750      8.000000
 -0.157672 -0.065175  0.018750      8.000000
 -0.135148 -0.052147  0.018750      8.000000
 -0.112623 -0.039119  0.018750      8.000000
 -0.090098 -0.026091  0.018750      8.000000
 -0.067574 -0.013063  0.018750      8.000000
 -0.045049 -0.000035  0.018750      8.000000
 -0.022525  0.012993  0.018750      4.000000
  0.045049  0.078098  0.018750      4.000000
  0.067574  0.091126  0.018750      8.000000
  0.090098  0.104154  0.018750      8.000000
  0.112623  0.117182  0.018750      8.000000
  0.135148  0.130210  0.018750      8.000000
  0.157672  0.143238  0.018750      8.000000
  0.180197  0.156266  0.018750      8.000000
  0.202722  0.169294  0.018750      8.000000
 -0.180197 -0.052182  0.018750      8.000000
 -0.157672 -0.039154  0.018750      8.000000
 -0.135148 -0.026126  0.018750      8.000000
 -0.112623 -0.013098  0.018750      8.000000
 -0.090098 -0.000070  0.018750      8.000000
 -0.067574  0.012958  0.018750      8.000000
 -0.045049  0.025986  0.018750      4.000000
  0.067574  0.117147  0.018750      4.000000
  0.090098  0.130175  0.018750      8.000000
  0.112623  0.143203  0.018750      8.000000
  0.135148  0.156231  0.018750      8.000000
  0.157672  0.169258  0.018750      8.000000
  0.180197  0.182286  0.018750      8.000000
  0.202722  0.195314  0.018750      8.000000
 -0.180197 -0.026161  0.018750      8.000000
 -0.157672 -0.013133  0.018750      8.000000
 -0.135148 -0.000105  0.018750      8.000000
 -0.112623  0.012923  0.018750      8.000000
 -0.090098  0.025951  0.018750      8.000000
 -0.067574  0.038979  0.018750      4.000000
  0.090098  0.156195  0.018750      4.000000
  0.112623  0.169223  0.018750      8.000000
  0.135148  0.182251  0.018750      8.000000
  0.157672  0.195279  0.018750      8.000000
  0.180197  0.208307  0.018750      8.000000
  0.202722  0.221335  0.018750      8.000000
 -0.180197 -0.000140  0.018750      8.000000
 -0.157672  0.012888  0.018750      8.000000
 -0.135148  0.025916  0.018750      8.000000
 -0.112623  0.038944  0.018750      8.000000
 -0.090098  0.051972  0.018750      4.000000
  0.112623  0.195244  0.018750      4.000000
  0.135148  0.208272  0.018750      8.000000
  0.157672  0.221300  0.018750      8.000000
  0.180197  0.234328  0.018750      8.000000
  0.202722  0.247356  0.018750      8.000000
 -0.180197  0.025881  0.018750      8.000000
 -0.157672  0.038909  0.018750      8.000000
 -0.135148  0.051937  0.018750      8.000000
 -0.112623  0.064965  0.018750      4.000000
  0.135148  0.234293  0.018750      4.000000
  0.157672  0.247321  0.018750      8.000000
  0.180197  0.260349  0.018750      8.000000
  0.202722  0.273377  0.018750      8.000000
 -0.180197  0.051902  0.018750      8.000000
 -0.157672  0.064929  0.018750      8.000000
 -0.135148  0.077957  0.018750      4.000000
  0.157672  0.273342  0.018750      4.000000
  0.180197  0.286370  0.018750      8.000000
  0.202722  0.299398  0.018750      8.000000
 -0.180197  0.077922  0.018750      8.000000
 -0.157672  0.090950  0.018750      4.000000
  0.180197  0.312391  0.018750      4.000000
  0.202722  0.325419  0.018750      8.000000
 -0.180197  0.103943  0.018750      4.000000
  0.202722  0.351440  0.018750      2.000000
  0.000000  0.000000  0.025000      1.000000
  0.022525  0.013028  0.025000      4.000000
  0.045049  0.026056  0.025000      4.000000
  0.067574  0.039084  0.025000      4.000000
  0.090098  0.052112  0.025000      4.000000
  0.112623  0.065140  0.025000      4.000000
  0.135148  0.078168  0.025000      4.000000
  0.157672  0.091196  0.025000      4.000000
  0.180197  0.104224  0.025000      4.000000
  0.202722  0.117252  0.025000      2.000000
  0.022525  0.039049  0.025000      2.000000
  0.045049  0.052077  0.025000      4.000000
  0.067574  0.065105  0.025000      4.000000
  0.090098  0.078133  0.025000      4.000000
  0.112623  0.091161  0.025000      4.000000
  0.135148  0.104189  0.025000      4.000000
  0.157672  0.117217  0.025000      4.000000
  0.180197  0.130245  0.025000      4.000000
  0.202722  0.143273  0.025000      4.000000
 -0.180197 -0.078203  0.025000      4.000000
 -0.157672 -0.065175  0.025000      4.000000
 -0.135148 -0.052147  0.025000      4.000000
 -0.112623 -0.039119  0.025000      4.000000
 -0.090098 -0.026091  0.025000      4.000000
 -0.067574 -0.013063  0.025000      4.000000
 -0.045049 -0.000035  0.025000      4.000000
 -0.022525  0.012993  0.025000      2.000000
  0.045049  0.078098  0.025000      2.000000
  0.067574  0.091126  0.025000      4.000000
  0.090098  0.104154  0.025000      4.000000
  0.112623  0.117182  0.025000      4.000000
  0.135148  0.130210  0.025000      4.000000
  0.157672  0.143238  0.025000      4.000000
  0.180197  0.156266  0.025000      4.000000
  0.202722  0.169294  0.025000      4.000000
 -0.180197 -0.052182  0.025000      4.000000
 -0.157672 -0.039154  0.025000      4.000000
 -0.135148 -0.026126  0.025000      4.000000
 -0.112623 -0.013098  0.025000      4.000000
 -0.090098 -0.000070  0.025000      4.000000
 -0.067574  0.012958  0.025000      4.000000
 -0.045049  0.025986  0.025000      2.000000
  0.067574  0.117147  0.025000      2.000000
  0.090098  0.130175  0.025000      4.000000
  0.112623  0.143203  0.025000      4.000000
  0.135148  0.156231  0.025000      4.000000
  0.157672  0.169258  0.025000      4.000000
  0.180197  0.182286  0.025000      4.000000
  0.202722  0.195314  0.025000      4.000000
 -0.180197 -0.026161  0.025000      4.000000
 -0.157672 -0.013133  0.025000      4.000000
 -0.135148 -0.000105  0.025000      4.000000
 -0.112623  0.012923  0.025000      4.000000
 -0.090098  0.025951  0.025000      4.000000
 -0.067574  0.038979  0.025000      2.000000
  0.090098  0.156195  0.025000      2.000000
  0.112623  0.169223  0.025000      4.000000
  0.135148  0.182251  0.025000      4.000000
  0.157672  0.195279  0.025000      4.000000
  0.180197  0.208307  0.025000      4.000000
  0.202722  0.221335  0.025000      4.000000
 -0.180197 -0.000140  0.025000      4.000000
 -0.157672  0.012888  0.025000      4.000000
 -0.135148  0.025916  0.025000      4.000000
 -0.112623  0.038944  0.025000      4.000000
 -0.090098  0.051972  0.025000      2.000000
  0.112623  0.195244  0.025000      2.000000
  0.135148  0.208272  0.025000      4.000000
  0.157672  0.221300  0.025000      4.000000
  0.180197  0.234328  0.025000      4.000000
  0.202722  0.247356  0.025000      4.000000
 -0.180197  0.025881  0.025000      4.000000
 -0.157672  0.038909  0.025000      4.000000
 -0.135148  0.051937  0.025000      4.000000
 -0.112623  0.064965  0.025000      2.000000
  0.135148  0.234293  0.025000      2.000000
  0.157672  0.247321  0.025000      4.000000
  0.180197  0.260349  0.025000      4.000000
  0.202722  0.273377  0.025000      4.000000
 -0.180197  0.051902  0.025000      4.000000
 -0.157672  0.064929  0.025000      4.000000
 -0.135148  0.077957  0.025000      2.000000
  0.157672  0.273342  0.025000      2.000000
  0.180197  0.286370  0.025000      4.000000
  0.202722  0.299398  0.025000      4.000000
 -0.180197  0.077922  0.025000      4.000000
 -0.157672  0.090950  0.025000      2.000000
  0.180197  0.312391  0.025000      2.000000
  0.202722  0.325419  0.025000      4.000000
 -0.180197  0.103943  0.025000      2.000000
  0.202722  0.351440  0.025000      1.000000
 
 TETIRR: Found   3888 inequivalent tetrahedra from    15552


--------------------------------------------------------------------------------------------------------




 Dimension of arrays:
   k-points           NKPTS =    455   k-points in BZ     NKDIM =    455   number of bands    NBANDS=      8
   number of dos      NEDOS =    301   number of ions     NIONS =      2
   non local maximal  LDIM  =      4   non local SUM 2l+1 LMDIM =      8
   total plane-waves  NPLWV =  64000
   max r-space proj   IRMAX =      1   max aug-charges    IRDMAX=   7370
   dimension x,y,z NGX =    20 NGY =   20 NGZ =  160
   dimension x,y,z NGXF=    40 NGYF=   40 NGZF=  320
   support grid    NGXF=    40 NGYF=   40 NGZF=  320
   ions per type =               2
 NGX,Y,Z   is equivalent  to a cutoff of  13.48, 13.48, 13.30 a.u.
 NGXF,Y,Z  is equivalent  to a cutoff of  26.96, 26.96, 26.60 a.u.


 I would recommend the setting:
   dimension x,y,z NGX =    20 NGY =   20 NGZ =  160
 SYSTEM =  graphite                                
 POSCAR =  CIF file                                

 Startparameter for this run:
   NWRITE =      2    write-flag & timer
   PREC   = accura    normal or accurate (medium, high low for compatibility)
   ISTART =      0    job   : 0-new  1-cont  2-samecut
   ICHARG =      2    charge: 1-file 2-atom 10-const
   ISPIN  =      1    spin polarized calculation?
   LNONCOLLINEAR =      F non collinear calculations
   LSORBIT =      F    spin-orbit coupling
   INIWAV =      1    electr: 0-lowe 1-rand  2-diag
   LASPH  =      F    aspherical Exc in radial PAW
   METAGGA=      F    non-selfconsistent MetaGGA calc.

 Electronic Relaxation 1
   ENCUT  =  600.0 eV  44.10 Ry    6.64 a.u.   4.93  4.93 39.94*2*pi/ulx,y,z
   ENINI  =  600.0     initial cutoff
   ENAUG  =  644.9 eV  augmentation charge cutoff
   NELM   =    200;   NELMIN=  2; NELMDL=  0     # of ELM steps 
   EDIFF  = 0.1E-05   stopping-criterion for ELM
   LREAL  =      F    real-space projection
   NLSPLINE    = F    spline interpolate recip. space projectors
   LCOMPAT=      F    compatible to vasp.4.4
   GGA_COMPAT  = T    GGA compatible to vasp.4.4-vasp.4.6
   LMAXPAW     = -100 max onsite density
   LMAXMIX     =    2 max onsite mixed and CHGCAR
   VOSKOWN=      0    Vosko Wilk Nusair interpolation
   ROPT   =    0.00000
 Ionic relaxation
   EDIFFG = 0.1E-02   stopping-criterion for IOM
   NSW    =      0    number of steps for IOM
   NBLOCK =      1;   KBLOCK =      1    inner block; outer block 
   IBRION =     -1    ionic relax: 0-MD 1-quasi-New 2-CG
   NFREE  =      0    steps in history (QN), initial steepest desc. (CG)
   ISIF   =      2    stress and relaxation
   IWAVPR =     10    prediction:  0-non 1-charg 2-wave 3-comb
   ISYM   =      2    0-nonsym 1-usesym 2-fastsym
   LCORR  =      T    Harris-Foulkes like correction to forces

   POTIM  = 0.5000    time-step for ionic-motion
   TEIN   =    0.0    initial temperature
   TEBEG  =    0.0;   TEEND  =   0.0 temperature during run
   SMASS  =  -3.00    Nose mass-parameter (am)
   estimated Nose-frequenzy (Omega)   =  0.10E-29 period in steps =****** mass=  -0.139E-27a.u.
   SCALEE = 1.0000    scale energy and forces
   NPACO  =    256;   APACO  = 16.0  distance and # of slots for P.C.
   PSTRESS=    0.0 pullay stress

  Mass of Ions in am
   POMASS =  12.01
  Ionic Valenz
   ZVAL   =   4.00
  Atomic Wigner-Seitz radii
   RWIGS  =  -1.00
  virtual crystal weights 
   VCA    =   1.00
   NELECT =       8.0000    total number of electrons
   NUPDOWN=      -1.0000    fix difference up-down

 DOS related values:
   EMIN   =  10.00;   EMAX   =-10.00  energy-range for DOS
   EFERMI =   0.00
   ISMEAR =    -5;   SIGMA  =   0.20  broadening in eV -4-tet -1-fermi 0-gaus

 Electronic relaxation 2 (details)
   IALGO  =     38    algorithm
   LDIAG  =      T    sub-space diagonalisation (order eigenvalues)
   LSUBROT=      F    optimize rotation matrix (better conditioning)
   TURBO    =      0    0=normal 1=particle mesh
   IRESTART =      0    0=no restart 2=restart with 2 vectors
   NREBOOT  =      0    no. of reboots
   NMIN     =      0    reboot dimension
   EREF     =   0.00    reference energy to select bands
   IMIX   =      4    mixing-type and parameters
     AMIX     =   0.40;   BMIX     =  1.00
     AMIX_MAG =   1.60;   BMIX_MAG =  1.00
     AMIN     =   0.10
     WC   =   100.;   INIMIX=   1;  MIXPRE=   1;  MAXMIX= -45

 Intra band minimization:
   WEIMIN = 0.0000     energy-eigenvalue tresh-hold
   EBREAK =  0.31E-07  absolut break condition
   DEPER  =   0.30     relativ break condition  

   TIME   =   0.40     timestep for ELM

  volume/ion in A,a.u.               =      52.66       355.36
  Fermi-wavevector in a.u.,A,eV,Ry     =   0.693324  1.310193  6.540298  0.480698
  Thomas-Fermi vector in A             =   1.775506
 
 Write flags
   LWAVE  =      F    write WAVECAR
   LCHARG =      F    write CHGCAR
   LVTOT  =      F    write LOCPOT, total local potential
   LVHAR  =      F    write LOCPOT, Hartree potential only
   LELF   =      F    write electronic localiz. function (ELF)
   LORBIT =      0    0 simple, 1 ext, 2 COOP (PROOUT)


 Dipole corrections
   LMONO  =      F    monopole corrections only (constant potential shift)
   LDIPOL =      F    correct potential (dipole corrections)
   IDIPOL =      0    1-x, 2-y, 3-z, 4-all directions 
   EPSILON=  1.0000000 bulk dielectric constant

 Exchange correlation treatment:
   GGA     =    PE    GGA type
   LEXCH   =     8    internal setting for exchange type
   VOSKOWN=      0    Vosko Wilk Nusair interpolation
   LHFCALC =     F    Hartree Fock is set to
   LHFONE  =     F    Hartree Fock one center treatment
   AEXX    =    0.0000 exact exchange contribution

 Linear response parameters
   LEPSILON=     F    determine dielectric tensor
   LRPA    =     F    only Hartree local field effects (RPA)
   LNABLA  =     F    use nabla operator in PAW spheres
   LVEL    =     F    velocity operator in full k-point grid
   LINTERFAST=   F  fast interpolation
   KINTER  =     0    interpolate to denser k-point grid
   CSHIFT  =0.1000    complex shift for real part using Kramers Kronig
   OMEGAMAX=  -1.0    maximum frequency
   DEG_THRESHOLD= 0.2000000E-02 threshold for treating states as degnerate
   RTIME   =    0.100 relaxation time in fs

 Orbital magnetization related:
   ORBITALMAG=     F  switch on orbital magnetization
   LCHIMAG   =     F  perturbation theory with respect to B field
   DQ        =  0.001000  dq finite difference perturbation B field



--------------------------------------------------------------------------------------------------------


 Static calculation
 charge density and potential will be updated during run
 non-spin polarized calculation
 Variant of blocked Davidson
 Davidson routine will perform the subspace rotation
 perform sub-space diagonalisation
    after iterative eigenvector-optimisation
 modified Broyden-mixing scheme, WC =      100.0
 initial mixing is a Kerker type mixing with AMIX =  0.4000 and BMIX =      1.0000
 Hartree-type preconditioning will be used
 using additional bands            4
 reciprocal scheme for non local part
 calculate Harris-corrections to forces 
   (improved forces if not selfconsistent)
 use gradient corrections 
 use of overlap-Matrix (Vanderbilt PP)
 Fermi weights with tetrahedron method with Bloechl corrections


--------------------------------------------------------------------------------------------------------


  energy-cutoff  :      600.00
  volume of cell :      105.32
      direct lattice vectors                 reciprocal lattice vectors
     2.466437340  0.000000000  0.000000000     0.405443100  0.234503546  0.000000000
    -1.234880477  2.135037086  0.000000000     0.000000000  0.468375939  0.000000000
     0.000000000  0.000000000 20.000000000     0.000000000  0.000000000  0.050000000

  length of vectors
     2.466437340  2.466437340 20.000000000     0.468375939  0.468375939  0.050000000


 
 k-points in units of 2pi/SCALE and weight: B4C B11C-CBC                            
   0.00000000  0.00000000  0.00000000       0.000
   0.02252462  0.01302797  0.00000000       0.002
   0.04504923  0.02605595  0.00000000       0.002
   0.06757385  0.03908392  0.00000000       0.002
   0.09009847  0.05211190  0.00000000       0.002
   0.11262308  0.06513987  0.00000000       0.002
   0.13514770  0.07816785  0.00000000       0.002
   0.15767232  0.09119582  0.00000000       0.002
   0.18019693  0.10422380  0.00000000       0.002
   0.20272155  0.11725177  0.00000000       0.001
   0.02252462  0.03904886  0.00000000       0.001
   0.04504923  0.05207684  0.00000000       0.002
   0.06757385  0.06510481  0.00000000       0.002
   0.09009847  0.07813278  0.00000000       0.002
   0.11262308  0.09116076  0.00000000       0.002
   0.13514770  0.10418873  0.00000000       0.002
   0.15767232  0.11721671  0.00000000       0.002
   0.18019693  0.13024468  0.00000000       0.002
   0.20272155  0.14327266  0.00000000       0.002
  -0.18019693 -0.07820291  0.00000000       0.002
  -0.15767232 -0.06517494  0.00000000       0.002
  -0.13514770 -0.05214696  0.00000000       0.002
  -0.11262308 -0.03911899  0.00000000       0.002
  -0.09009847 -0.02609101  0.00000000       0.002
  -0.06757385 -0.01306304  0.00000000       0.002
  -0.04504923 -0.00003506  0.00000000       0.002
  -0.02252462  0.01299291  0.00000000       0.001
   0.04504923  0.07809772  0.00000000       0.001
   0.06757385  0.09112570  0.00000000       0.002
   0.09009847  0.10415367  0.00000000       0.002
   0.11262308  0.11718165  0.00000000       0.002
   0.13514770  0.13020962  0.00000000       0.002
   0.15767232  0.14323759  0.00000000       0.002
   0.18019693  0.15626557  0.00000000       0.002
   0.20272155  0.16929354  0.00000000       0.002
  -0.18019693 -0.05218203  0.00000000       0.002
  -0.15767232 -0.03915405  0.00000000       0.002
  -0.13514770 -0.02612608  0.00000000       0.002
  -0.11262308 -0.01309810  0.00000000       0.002
  -0.09009847 -0.00007013  0.00000000       0.002
  -0.06757385  0.01295785  0.00000000       0.002
  -0.04504923  0.02598582  0.00000000       0.001
   0.06757385  0.11714658  0.00000000       0.001
   0.09009847  0.13017456  0.00000000       0.002
   0.11262308  0.14320253  0.00000000       0.002
   0.13514770  0.15623051  0.00000000       0.002
   0.15767232  0.16925848  0.00000000       0.002
   0.18019693  0.18228645  0.00000000       0.002
   0.20272155  0.19531443  0.00000000       0.002
  -0.18019693 -0.02616114  0.00000000       0.002
  -0.15767232 -0.01313317  0.00000000       0.002
  -0.13514770 -0.00010519  0.00000000       0.002
  -0.11262308  0.01292278  0.00000000       0.002
  -0.09009847  0.02595076  0.00000000       0.002
  -0.06757385  0.03897873  0.00000000       0.001
   0.09009847  0.15619544  0.00000000       0.001
   0.11262308  0.16922342  0.00000000       0.002
   0.13514770  0.18225139  0.00000000       0.002
   0.15767232  0.19527937  0.00000000       0.002
   0.18019693  0.20830734  0.00000000       0.002
   0.20272155  0.22133532  0.00000000       0.002
  -0.18019693 -0.00014026  0.00000000       0.002
  -0.15767232  0.01288772  0.00000000       0.002
  -0.13514770  0.02591569  0.00000000       0.002
  -0.11262308  0.03894367  0.00000000       0.002
  -0.09009847  0.05197164  0.00000000       0.001
   0.11262308  0.19524430  0.00000000       0.001
   0.13514770  0.20827228  0.00000000       0.002
   0.15767232  0.22130025  0.00000000       0.002
   0.18019693  0.23432823  0.00000000       0.002
   0.20272155  0.24735620  0.00000000       0.002
  -0.18019693  0.02588063  0.00000000       0.002
  -0.15767232  0.03890860  0.00000000       0.002
  -0.13514770  0.05193658  0.00000000       0.002
  -0.11262308  0.06496455  0.00000000       0.001
   0.13514770  0.23429316  0.00000000       0.001
   0.15767232  0.24732114  0.00000000       0.002
   0.18019693  0.26034911  0.00000000       0.002
   0.20272155  0.27337709  0.00000000       0.002
  -0.18019693  0.05190151  0.00000000       0.002
  -0.15767232  0.06492949  0.00000000       0.002
  -0.13514770  0.07795746  0.00000000       0.001
   0.15767232  0.27334202  0.00000000       0.001
   0.18019693  0.28637000  0.00000000       0.002
   0.20272155  0.29939797  0.00000000       0.002
  -0.18019693  0.07792240  0.00000000       0.002
  -0.15767232  0.09095037  0.00000000       0.001
   0.18019693  0.31239088  0.00000000       0.001
   0.20272155  0.32541886  0.00000000       0.002
  -0.18019693  0.10394329  0.00000000       0.001
   0.20272155  0.35143974  0.00000000       0.000
   0.00000000  0.00000000  0.00625000       0.001
   0.02252462  0.01302797  0.00625000       0.003
   0.04504923  0.02605595  0.00625000       0.003
   0.06757385  0.03908392  0.00625000       0.003
   0.09009847  0.05211190  0.00625000       0.003
   0.11262308  0.06513987  0.00625000       0.003
   0.13514770  0.07816785  0.00625000       0.003
   0.15767232  0.09119582  0.00625000       0.003
   0.18019693  0.10422380  0.00625000       0.003
   0.20272155  0.11725177  0.00625000       0.002
   0.02252462  0.03904886  0.00625000       0.002
   0.04504923  0.05207684  0.00625000       0.003
   0.06757385  0.06510481  0.00625000       0.003
   0.09009847  0.07813278  0.00625000       0.003
   0.11262308  0.09116076  0.00625000       0.003
   0.13514770  0.10418873  0.00625000       0.003
   0.15767232  0.11721671  0.00625000       0.003
   0.18019693  0.13024468  0.00625000       0.003
   0.20272155  0.14327266  0.00625000       0.003
  -0.18019693 -0.07820291  0.00625000       0.003
  -0.15767232 -0.06517494  0.00625000       0.003
  -0.13514770 -0.05214696  0.00625000       0.003
  -0.11262308 -0.03911899  0.00625000       0.003
  -0.09009847 -0.02609101  0.00625000       0.003
  -0.06757385 -0.01306304  0.00625000       0.003
  -0.04504923 -0.00003506  0.00625000       0.003
  -0.02252462  0.01299291  0.00625000       0.002
   0.04504923  0.07809772  0.00625000       0.002
   0.06757385  0.09112570  0.00625000       0.003
   0.09009847  0.10415367  0.00625000       0.003
   0.11262308  0.11718165  0.00625000       0.003
   0.13514770  0.13020962  0.00625000       0.003
   0.15767232  0.14323759  0.00625000       0.003
   0.18019693  0.15626557  0.00625000       0.003
   0.20272155  0.16929354  0.00625000       0.003
  -0.18019693 -0.05218203  0.00625000       0.003
  -0.15767232 -0.03915405  0.00625000       0.003
  -0.13514770 -0.02612608  0.00625000       0.003
  -0.11262308 -0.01309810  0.00625000       0.003
  -0.09009847 -0.00007013  0.00625000       0.003
  -0.06757385  0.01295785  0.00625000       0.003
  -0.04504923  0.02598582  0.00625000       0.002
   0.06757385  0.11714658  0.00625000       0.002
   0.09009847  0.13017456  0.00625000       0.003
   0.11262308  0.14320253  0.00625000       0.003
   0.13514770  0.15623051  0.00625000       0.003
   0.15767232  0.16925848  0.00625000       0.003
   0.18019693  0.18228645  0.00625000       0.003
   0.20272155  0.19531443  0.00625000       0.003
  -0.18019693 -0.02616114  0.00625000       0.003
  -0.15767232 -0.01313317  0.00625000       0.003
  -0.13514770 -0.00010519  0.00625000       0.003
  -0.11262308  0.01292278  0.00625000       0.003
  -0.09009847  0.02595076  0.00625000       0.003
  -0.06757385  0.03897873  0.00625000       0.002
   0.09009847  0.15619544  0.00625000       0.002
   0.11262308  0.16922342  0.00625000       0.003
   0.13514770  0.18225139  0.00625000       0.003
   0.15767232  0.19527937  0.00625000       0.003
   0.18019693  0.20830734  0.00625000       0.003
   0.20272155  0.22133532  0.00625000       0.003
  -0.18019693 -0.00014026  0.00625000       0.003
  -0.15767232  0.01288772  0.00625000       0.003
  -0.13514770  0.02591569  0.00625000       0.003
  -0.11262308  0.03894367  0.00625000       0.003
  -0.09009847  0.05197164  0.00625000       0.002
   0.11262308  0.19524430  0.00625000       0.002
   0.13514770  0.20827228  0.00625000       0.003
   0.15767232  0.22130025  0.00625000       0.003
   0.18019693  0.23432823  0.00625000       0.003
   0.20272155  0.24735620  0.00625000       0.003
  -0.18019693  0.02588063  0.00625000       0.003
  -0.15767232  0.03890860  0.00625000       0.003
  -0.13514770  0.05193658  0.00625000       0.003
  -0.11262308  0.06496455  0.00625000       0.002
   0.13514770  0.23429316  0.00625000       0.002
   0.15767232  0.24732114  0.00625000       0.003
   0.18019693  0.26034911  0.00625000       0.003
   0.20272155  0.27337709  0.00625000       0.003
  -0.18019693  0.05190151  0.00625000       0.003
  -0.15767232  0.06492949  0.00625000       0.003
  -0.13514770  0.07795746  0.00625000       0.002
   0.15767232  0.27334202  0.00625000       0.002
   0.18019693  0.28637000  0.00625000       0.003
   0.20272155  0.29939797  0.00625000       0.003
  -0.18019693  0.07792240  0.00625000       0.003
  -0.15767232  0.09095037  0.00625000       0.002
   0.18019693  0.31239088  0.00625000       0.002
   0.20272155  0.32541886  0.00625000       0.003
  -0.18019693  0.10394329  0.00625000       0.002
   0.20272155  0.35143974  0.00625000       0.001
   0.00000000  0.00000000  0.01250000       0.001
   0.02252462  0.01302797  0.01250000       0.003
   0.04504923  0.02605595  0.01250000       0.003
   0.06757385  0.03908392  0.01250000       0.003
   0.09009847  0.05211190  0.01250000       0.003
   0.11262308  0.06513987  0.01250000       0.003
   0.13514770  0.07816785  0.01250000       0.003
   0.15767232  0.09119582  0.01250000       0.003
   0.18019693  0.10422380  0.01250000       0.003
   0.20272155  0.11725177  0.01250000       0.002
   0.02252462  0.03904886  0.01250000       0.002
   0.04504923  0.05207684  0.01250000       0.003
   0.06757385  0.06510481  0.01250000       0.003
   0.09009847  0.07813278  0.01250000       0.003
   0.11262308  0.09116076  0.01250000       0.003
   0.13514770  0.10418873  0.01250000       0.003
   0.15767232  0.11721671  0.01250000       0.003
   0.18019693  0.13024468  0.01250000       0.003
   0.20272155  0.14327266  0.01250000       0.003
  -0.18019693 -0.07820291  0.01250000       0.003
  -0.15767232 -0.06517494  0.01250000       0.003
  -0.13514770 -0.05214696  0.01250000       0.003
  -0.11262308 -0.03911899  0.01250000       0.003
  -0.09009847 -0.02609101  0.01250000       0.003
  -0.06757385 -0.01306304  0.01250000       0.003
  -0.04504923 -0.00003506  0.01250000       0.003
  -0.02252462  0.01299291  0.01250000       0.002
   0.04504923  0.07809772  0.01250000       0.002
   0.06757385  0.09112570  0.01250000       0.003
   0.09009847  0.10415367  0.01250000       0.003
   0.11262308  0.11718165  0.01250000       0.003
   0.13514770  0.13020962  0.01250000       0.003
   0.15767232  0.14323759  0.01250000       0.003
   0.18019693  0.15626557  0.01250000       0.003
   0.20272155  0.16929354  0.01250000       0.003
  -0.18019693 -0.05218203  0.01250000       0.003
  -0.15767232 -0.03915405  0.01250000       0.003
  -0.13514770 -0.02612608  0.01250000       0.003
  -0.11262308 -0.01309810  0.01250000       0.003
  -0.09009847 -0.00007013  0.01250000       0.003
  -0.06757385  0.01295785  0.01250000       0.003
  -0.04504923  0.02598582  0.01250000       0.002
   0.06757385  0.11714658  0.01250000       0.002
   0.09009847  0.13017456  0.01250000       0.003
   0.11262308  0.14320253  0.01250000       0.003
   0.13514770  0.15623051  0.01250000       0.003
   0.15767232  0.16925848  0.01250000       0.003
   0.18019693  0.18228645  0.01250000       0.003
   0.20272155  0.19531443  0.01250000       0.003
  -0.18019693 -0.02616114  0.01250000       0.003
  -0.15767232 -0.01313317  0.01250000       0.003
  -0.13514770 -0.00010519  0.01250000       0.003
  -0.11262308  0.01292278  0.01250000       0.003
  -0.09009847  0.02595076  0.01250000       0.003
  -0.06757385  0.03897873  0.01250000       0.002
   0.09009847  0.15619544  0.01250000       0.002
   0.11262308  0.16922342  0.01250000       0.003
   0.13514770  0.18225139  0.01250000       0.003
   0.15767232  0.19527937  0.01250000       0.003
   0.18019693  0.20830734  0.01250000       0.003
   0.20272155  0.22133532  0.01250000       0.003
  -0.18019693 -0.00014026  0.01250000       0.003
  -0.15767232  0.01288772  0.01250000       0.003
  -0.13514770  0.02591569  0.01250000       0.003
  -0.11262308  0.03894367  0.01250000       0.003
  -0.09009847  0.05197164  0.01250000       0.002
   0.11262308  0.19524430  0.01250000       0.002
   0.13514770  0.20827228  0.01250000       0.003
   0.15767232  0.22130025  0.01250000       0.003
   0.18019693  0.23432823  0.01250000       0.003
   0.20272155  0.24735620  0.01250000       0.003
  -0.18019693  0.02588063  0.01250000       0.003
  -0.15767232  0.03890860  0.01250000       0.003
  -0.13514770  0.05193658  0.01250000       0.003
  -0.11262308  0.06496455  0.01250000       0.002
   0.13514770  0.23429316  0.01250000       0.002
   0.15767232  0.24732114  0.01250000       0.003
   0.18019693  0.26034911  0.01250000       0.003
   0.20272155  0.27337709  0.01250000       0.003
  -0.18019693  0.05190151  0.01250000       0.003
  -0.15767232  0.06492949  0.01250000       0.003
  -0.13514770  0.07795746  0.01250000       0.002
   0.15767232  0.27334202  0.01250000       0.002
   0.18019693  0.28637000  0.01250000       0.003
   0.20272155  0.29939797  0.01250000       0.003
  -0.18019693  0.07792240  0.01250000       0.003
  -0.15767232  0.09095037  0.01250000       0.002
   0.18019693  0.31239088  0.01250000       0.002
   0.20272155  0.32541886  0.01250000       0.003
  -0.18019693  0.10394329  0.01250000       0.002
   0.20272155  0.35143974  0.01250000       0.001
   0.00000000  0.00000000  0.01875000       0.001
   0.02252462  0.01302797  0.01875000       0.003
   0.04504923  0.02605595  0.01875000       0.003
   0.06757385  0.03908392  0.01875000       0.003
   0.09009847  0.05211190  0.01875000       0.003
   0.11262308  0.06513987  0.01875000       0.003
   0.13514770  0.07816785  0.01875000       0.003
   0.15767232  0.09119582  0.01875000       0.003
   0.18019693  0.10422380  0.01875000       0.003
   0.20272155  0.11725177  0.01875000       0.002
   0.02252462  0.03904886  0.01875000       0.002
   0.04504923  0.05207684  0.01875000       0.003
   0.06757385  0.06510481  0.01875000       0.003
   0.09009847  0.07813278  0.01875000       0.003
   0.11262308  0.09116076  0.01875000       0.003
   0.13514770  0.10418873  0.01875000       0.003
   0.15767232  0.11721671  0.01875000       0.003
   0.18019693  0.13024468  0.01875000       0.003
   0.20272155  0.14327266  0.01875000       0.003
  -0.18019693 -0.07820291  0.01875000       0.003
  -0.15767232 -0.06517494  0.01875000       0.003
  -0.13514770 -0.05214696  0.01875000       0.003
  -0.11262308 -0.03911899  0.01875000       0.003
  -0.09009847 -0.02609101  0.01875000       0.003
  -0.06757385 -0.01306304  0.01875000       0.003
  -0.04504923 -0.00003506  0.01875000       0.003
  -0.02252462  0.01299291  0.01875000       0.002
   0.04504923  0.07809772  0.01875000       0.002
   0.06757385  0.09112570  0.01875000       0.003
   0.09009847  0.10415367  0.01875000       0.003
   0.11262308  0.11718165  0.01875000       0.003
   0.13514770  0.13020962  0.01875000       0.003
   0.15767232  0.14323759  0.01875000       0.003
   0.18019693  0.15626557  0.01875000       0.003
   0.20272155  0.16929354  0.01875000       0.003
  -0.18019693 -0.05218203  0.01875000       0.003
  -0.15767232 -0.03915405  0.01875000       0.003
  -0.13514770 -0.02612608  0.01875000       0.003
  -0.11262308 -0.01309810  0.01875000       0.003
  -0.09009847 -0.00007013  0.01875000       0.003
  -0.06757385  0.01295785  0.01875000       0.003
  -0.04504923  0.02598582  0.01875000       0.002
   0.06757385  0.11714658  0.01875000       0.002
   0.09009847  0.13017456  0.01875000       0.003
   0.11262308  0.14320253  0.01875000       0.003
   0.13514770  0.15623051  0.01875000       0.003
   0.15767232  0.16925848  0.01875000       0.003
   0.18019693  0.18228645  0.01875000       0.003
   0.20272155  0.19531443  0.01875000       0.003
  -0.18019693 -0.02616114  0.01875000       0.003
  -0.15767232 -0.01313317  0.01875000       0.003
  -0.13514770 -0.00010519  0.01875000       0.003
  -0.11262308  0.01292278  0.01875000       0.003
  -0.09009847  0.02595076  0.01875000       0.003
  -0.06757385  0.03897873  0.01875000       0.002
   0.09009847  0.15619544  0.01875000       0.002
   0.11262308  0.16922342  0.01875000       0.003
   0.13514770  0.18225139  0.01875000       0.003
   0.15767232  0.19527937  0.01875000       0.003
   0.18019693  0.20830734  0.01875000       0.003
   0.20272155  0.22133532  0.01875000       0.003
  -0.18019693 -0.00014026  0.01875000       0.003
  -0.15767232  0.01288772  0.01875000       0.003
  -0.13514770  0.02591569  0.01875000       0.003
  -0.11262308  0.03894367  0.01875000       0.003
  -0.09009847  0.05197164  0.01875000       0.002
   0.11262308  0.19524430  0.01875000       0.002
   0.13514770  0.20827228  0.01875000       0.003
   0.15767232  0.22130025  0.01875000       0.003
   0.18019693  0.23432823  0.01875000       0.003
   0.20272155  0.24735620  0.01875000       0.003
  -0.18019693  0.02588063  0.01875000       0.003
  -0.15767232  0.03890860  0.01875000       0.003
  -0.13514770  0.05193658  0.01875000       0.003
  -0.11262308  0.06496455  0.01875000       0.002
   0.13514770  0.23429316  0.01875000       0.002
   0.15767232  0.24732114  0.01875000       0.003
   0.18019693  0.26034911  0.01875000       0.003
   0.20272155  0.27337709  0.01875000       0.003
  -0.18019693  0.05190151  0.01875000       0.003
  -0.15767232  0.06492949  0.01875000       0.003
  -0.13514770  0.07795746  0.01875000       0.002
   0.15767232  0.27334202  0.01875000       0.002
   0.18019693  0.28637000  0.01875000       0.003
   0.20272155  0.29939797  0.01875000       0.003
  -0.18019693  0.07792240  0.01875000       0.003
  -0.15767232  0.09095037  0.01875000       0.002
   0.18019693  0.31239088  0.01875000       0.002
   0.20272155  0.32541886  0.01875000       0.003
  -0.18019693  0.10394329  0.01875000       0.002
   0.20272155  0.35143974  0.01875000       0.001
   0.00000000  0.00000000  0.02500000       0.000
   0.02252462  0.01302797  0.02500000       0.002
   0.04504923  0.02605595  0.02500000       0.002
   0.06757385  0.03908392  0.02500000       0.002
   0.09009847  0.05211190  0.02500000       0.002
   0.11262308  0.06513987  0.02500000       0.002
   0.13514770  0.07816785  0.02500000       0.002
   0.15767232  0.09119582  0.02500000       0.002
   0.18019693  0.10422380  0.02500000       0.002
   0.20272155  0.11725177  0.02500000       0.001
   0.02252462  0.03904886  0.02500000       0.001
   0.04504923  0.05207684  0.02500000       0.002
   0.06757385  0.06510481  0.02500000       0.002
   0.09009847  0.07813278  0.02500000       0.002
   0.11262308  0.09116076  0.02500000       0.002
   0.13514770  0.10418873  0.02500000       0.002
   0.15767232  0.11721671  0.02500000       0.002
   0.18019693  0.13024468  0.02500000       0.002
   0.20272155  0.14327266  0.02500000       0.002
  -0.18019693 -0.07820291  0.02500000       0.002
  -0.15767232 -0.06517494  0.02500000       0.002
  -0.13514770 -0.05214696  0.02500000       0.002
  -0.11262308 -0.03911899  0.02500000       0.002
  -0.09009847 -0.02609101  0.02500000       0.002
  -0.06757385 -0.01306304  0.02500000       0.002
  -0.04504923 -0.00003506  0.02500000       0.002
  -0.02252462  0.01299291  0.02500000       0.001
   0.04504923  0.07809772  0.02500000       0.001
   0.06757385  0.09112570  0.02500000       0.002
   0.09009847  0.10415367  0.02500000       0.002
   0.11262308  0.11718165  0.02500000       0.002
   0.13514770  0.13020962  0.02500000       0.002
   0.15767232  0.14323759  0.02500000       0.002
   0.18019693  0.15626557  0.02500000       0.002
   0.20272155  0.16929354  0.02500000       0.002
  -0.18019693 -0.05218203  0.02500000       0.002
  -0.15767232 -0.03915405  0.02500000       0.002
  -0.13514770 -0.02612608  0.02500000       0.002
  -0.11262308 -0.01309810  0.02500000       0.002
  -0.09009847 -0.00007013  0.02500000       0.002
  -0.06757385  0.01295785  0.02500000       0.002
  -0.04504923  0.02598582  0.02500000       0.001
   0.06757385  0.11714658  0.02500000       0.001
   0.09009847  0.13017456  0.02500000       0.002
   0.11262308  0.14320253  0.02500000       0.002
   0.13514770  0.15623051  0.02500000       0.002
   0.15767232  0.16925848  0.02500000       0.002
   0.18019693  0.18228645  0.02500000       0.002
   0.20272155  0.19531443  0.02500000       0.002
  -0.18019693 -0.02616114  0.02500000       0.002
  -0.15767232 -0.01313317  0.02500000       0.002
  -0.13514770 -0.00010519  0.02500000       0.002
  -0.11262308  0.01292278  0.02500000       0.002
  -0.09009847  0.02595076  0.02500000       0.002
  -0.06757385  0.03897873  0.02500000       0.001
   0.09009847  0.15619544  0.02500000       0.001
   0.11262308  0.16922342  0.02500000       0.002
   0.13514770  0.18225139  0.02500000       0.002
   0.15767232  0.19527937  0.02500000       0.002
   0.18019693  0.20830734  0.02500000       0.002
   0.20272155  0.22133532  0.02500000       0.002
  -0.18019693 -0.00014026  0.02500000       0.002
  -0.15767232  0.01288772  0.02500000       0.002
  -0.13514770  0.02591569  0.02500000       0.002
  -0.11262308  0.03894367  0.02500000       0.002
  -0.09009847  0.05197164  0.02500000       0.001
   0.11262308  0.19524430  0.02500000       0.001
   0.13514770  0.20827228  0.02500000       0.002
   0.15767232  0.22130025  0.02500000       0.002
   0.18019693  0.23432823  0.02500000       0.002
   0.20272155  0.24735620  0.02500000       0.002
  -0.18019693  0.02588063  0.02500000       0.002
  -0.15767232  0.03890860  0.02500000       0.002
  -0.13514770  0.05193658  0.02500000       0.002
  -0.11262308  0.06496455  0.02500000       0.001
   0.13514770  0.23429316  0.02500000       0.001
   0.15767232  0.24732114  0.02500000       0.002
   0.18019693  0.26034911  0.02500000       0.002
   0.20272155  0.27337709  0.02500000       0.002
  -0.18019693  0.05190151  0.02500000       0.002
  -0.15767232  0.06492949  0.02500000       0.002
  -0.13514770  0.07795746  0.02500000       0.001
   0.15767232  0.27334202  0.02500000       0.001
   0.18019693  0.28637000  0.02500000       0.002
   0.20272155  0.29939797  0.02500000       0.002
  -0.18019693  0.07792240  0.02500000       0.002
  -0.15767232  0.09095037  0.02500000       0.001
   0.18019693  0.31239088  0.02500000       0.001
   0.20272155  0.32541886  0.02500000       0.002
  -0.18019693  0.10394329  0.02500000       0.001
   0.20272155  0.35143974  0.02500000       0.000
 
 k-points in reciprocal lattice and weights: B4C B11C-CBC                            
   0.00000000  0.00000000  0.00000000       0.000
   0.05555556  0.00000000  0.00000000       0.002
   0.11111111  0.00000000  0.00000000       0.002
   0.16666667  0.00000000  0.00000000       0.002
   0.22222222  0.00000000  0.00000000       0.002
   0.27777778  0.00000000  0.00000000       0.002
   0.33333333  0.00000000  0.00000000       0.002
   0.38888889  0.00000000  0.00000000       0.002
   0.44444444  0.00000000  0.00000000       0.002
   0.50000000  0.00000000  0.00000000       0.001
   0.05555556  0.05555556  0.00000000       0.001
   0.11111111  0.05555556  0.00000000       0.002
   0.16666667  0.05555556  0.00000000       0.002
   0.22222222  0.05555556  0.00000000       0.002
   0.27777778  0.05555556  0.00000000       0.002
   0.33333333  0.05555556  0.00000000       0.002
   0.38888889  0.05555556  0.00000000       0.002
   0.44444444  0.05555556  0.00000000       0.002
   0.50000000  0.05555556  0.00000000       0.002
[...]
 k-point ** :   0.1111 0.0000 0.3750  plane waves:    3466
 k-point ** :   0.1667 0.0000 0.3750  plane waves:    3492
 k-point ** :   0.2222 0.0000 0.3750  plane waves:    3498
 k-point ** :   0.2778 0.0000 0.3750  plane waves:    3500
 k-point ** :   0.3333 0.0000 0.3750  plane waves:    3505
 k-point ** :   0.3889 0.0000 0.3750  plane waves:    3519
 k-point ** :   0.4444 0.0000 0.3750  plane waves:    3520
 k-point ** :   0.5000 0.0000 0.3750  plane waves:    3500
 k-point ** :   0.0556 0.0556 0.3750  plane waves:    3461
 k-point ** :   0.1111 0.0556 0.3750  plane waves:    3475
 k-point ** :   0.1667 0.0556 0.3750  plane waves:    3499
 k-point ** :   0.2222 0.0556 0.3750  plane waves:    3497
 k-point ** :   0.2778 0.0556 0.3750  plane waves:    3490
 k-point ** :   0.3333 0.0556 0.3750  plane waves:    3511
 k-point ** :   0.3889 0.0556 0.3750  plane waves:    3516
 k-point ** :   0.4444 0.0556 0.3750  plane waves:    3516
 k-point ** :   0.5000 0.0556 0.3750  plane waves:    3518
 k-point ** :  -0.4444 0.0556 0.3750  plane waves:    3521
 k-point ** :  -0.3889 0.0556 0.3750  plane waves:    3512
 k-point ** :  -0.3333 0.0556 0.3750  plane waves:    3492
 k-point ** :  -0.2778 0.0556 0.3750  plane waves:    3498
 k-point ** :  -0.2222 0.0556 0.3750  plane waves:    3499
 k-point ** :  -0.1667 0.0556 0.3750  plane waves:    3475
 k-point ** :  -0.1111 0.0556 0.3750  plane waves:    3464
 k-point ** :  -0.0556 0.0556 0.3750  plane waves:    3462
 k-point ** :   0.1111 0.1111 0.3750  plane waves:    3492
 k-point ** :   0.1667 0.1111 0.3750  plane waves:    3497
 k-point ** :   0.2222 0.1111 0.3750  plane waves:    3493
 k-point ** :   0.2778 0.1111 0.3750  plane waves:    3507
 k-point ** :   0.3333 0.1111 0.3750  plane waves:    3526
 k-point ** :   0.3889 0.1111 0.3750  plane waves:    3536
 k-point ** :   0.4444 0.1111 0.3750  plane waves:    3539
 k-point ** :   0.5000 0.1111 0.3750  plane waves:    3538
 k-point ** :  -0.4444 0.1111 0.3750  plane waves:    3528
 k-point ** :  -0.3889 0.1111 0.3750  plane waves:    3509
 k-point ** :  -0.3333 0.1111 0.3750  plane waves:    3495
 k-point ** :  -0.2778 0.1111 0.3750  plane waves:    3496
 k-point ** :  -0.2222 0.1111 0.3750  plane waves:    3492
 k-point ** :  -0.1667 0.1111 0.3750  plane waves:    3476
 k-point ** :  -0.1111 0.1111 0.3750  plane waves:    3469
 k-point ** :   0.1667 0.1667 0.3750  plane waves:    3499
 k-point ** :   0.2222 0.1667 0.3750  plane waves:    3504
 k-point ** :   0.2778 0.1667 0.3750  plane waves:    3522
 k-point ** :   0.3333 0.1667 0.3750  plane waves:    3541
 k-point ** :   0.3889 0.1667 0.3750  plane waves:    3547
 k-point ** :   0.4444 0.1667 0.3750  plane waves:    3546
 k-point ** :   0.5000 0.1667 0.3750  plane waves:    3541
 k-point ** :  -0.4444 0.1667 0.3750  plane waves:    3523
 k-point ** :  -0.3889 0.1667 0.3750  plane waves:    3502
 k-point ** :  -0.3333 0.1667 0.3750  plane waves:    3497
 k-point ** :  -0.2778 0.1667 0.3750  plane waves:    3497
 k-point ** :  -0.2222 0.1667 0.3750  plane waves:    3499
 k-point ** :  -0.1667 0.1667 0.3750  plane waves:    3494
 k-point ** :   0.2222 0.2222 0.3750  plane waves:    3528
 k-point ** :   0.2778 0.2222 0.3750  plane waves:    3544
 k-point ** :   0.3333 0.2222 0.3750  plane waves:    3554
 k-point ** :   0.3889 0.2222 0.3750  plane waves:    3563
 k-point ** :   0.4444 0.2222 0.3750  plane waves:    3554
 k-point ** :   0.5000 0.2222 0.3750  plane waves:    3545
 k-point ** :  -0.4444 0.2222 0.3750  plane waves:    3524
 k-point ** :  -0.3889 0.2222 0.3750  plane waves:    3503
 k-point ** :  -0.3333 0.2222 0.3750  plane waves:    3492
 k-point ** :  -0.2778 0.2222 0.3750  plane waves:    3498
 k-point ** :  -0.2222 0.2222 0.3750  plane waves:    3499
 k-point ** :   0.2778 0.2778 0.3750  plane waves:    3559
 k-point ** :   0.3333 0.2778 0.3750  plane waves:    3567
 k-point ** :   0.3889 0.2778 0.3750  plane waves:    3569
 k-point ** :   0.4444 0.2778 0.3750  plane waves:    3558
 k-point ** :   0.5000 0.2778 0.3750  plane waves:    3545
 k-point ** :  -0.4444 0.2778 0.3750  plane waves:    3524
 k-point ** :  -0.3889 0.2778 0.3750  plane waves:    3509
 k-point ** :  -0.3333 0.2778 0.3750  plane waves:    3491
 k-point ** :  -0.2778 0.2778 0.3750  plane waves:    3499
 k-point ** :   0.3333 0.3333 0.3750  plane waves:    3578
 k-point ** :   0.3889 0.3333 0.3750  plane waves:    3568
 k-point ** :   0.4444 0.3333 0.3750  plane waves:    3555
 k-point ** :   0.5000 0.3333 0.3750  plane waves:    3543
 k-point ** :  -0.4444 0.3333 0.3750  plane waves:    3528
 k-point ** :  -0.3889 0.3333 0.3750  plane waves:    3515
 k-point ** :  -0.3333 0.3333 0.3750  plane waves:    3507
 k-point ** :   0.3889 0.3889 0.3750  plane waves:    3560
 k-point ** :   0.4444 0.3889 0.3750  plane waves:    3544
 k-point ** :   0.5000 0.3889 0.3750  plane waves:    3537
 k-point ** :  -0.4444 0.3889 0.3750  plane waves:    3518
 k-point ** :  -0.3889 0.3889 0.3750  plane waves:    3518
 k-point ** :   0.4444 0.4444 0.3750  plane waves:    3538
 k-point ** :   0.5000 0.4444 0.3750  plane waves:    3518
 k-point ** :  -0.4444 0.4444 0.3750  plane waves:    3521
 k-point ** :   0.5000 0.5000 0.3750  plane waves:    3502
 k-point ** :   0.0000 0.0000 0.5000  plane waves:    3436
 k-point ** :   0.0556 0.0000 0.5000  plane waves:    3464
 k-point ** :   0.1111 0.0000 0.5000  plane waves:    3464
 k-point ** :   0.1667 0.0000 0.5000  plane waves:    3492
 k-point ** :   0.2222 0.0000 0.5000  plane waves:    3502
 k-point ** :   0.2778 0.0000 0.5000  plane waves:    3496
 k-point ** :   0.3333 0.0000 0.5000  plane waves:    3500
 k-point ** :   0.3889 0.0000 0.5000  plane waves:    3522
 k-point ** :   0.4444 0.0000 0.5000  plane waves:    3526
 k-point ** :   0.5000 0.0000 0.5000  plane waves:    3508
 k-point ** :   0.0556 0.0556 0.5000  plane waves:    3466
 k-point ** :   0.1111 0.0556 0.5000  plane waves:    3474
 k-point ** :   0.1667 0.0556 0.5000  plane waves:    3502
 k-point ** :   0.2222 0.0556 0.5000  plane waves:    3500
 k-point ** :   0.2778 0.0556 0.5000  plane waves:    3490
 k-point ** :   0.3333 0.0556 0.5000  plane waves:    3514
 k-point ** :   0.3889 0.0556 0.5000  plane waves:    3522
 k-point ** :   0.4444 0.0556 0.5000  plane waves:    3520
 k-point ** :   0.5000 0.0556 0.5000  plane waves:    3522
 k-point ** :  -0.4444 0.0556 0.5000  plane waves:    3522
 k-point ** :  -0.3889 0.0556 0.5000  plane waves:    3510
 k-point ** :  -0.3333 0.0556 0.5000  plane waves:    3490
 k-point ** :  -0.2778 0.0556 0.5000  plane waves:    3496
 k-point ** :  -0.2222 0.0556 0.5000  plane waves:    3502
 k-point ** :  -0.1667 0.0556 0.5000  plane waves:    3472
 k-point ** :  -0.1111 0.0556 0.5000  plane waves:    3474
 k-point ** :  -0.0556 0.0556 0.5000  plane waves:    3462
 k-point ** :   0.1111 0.1111 0.5000  plane waves:    3484
 k-point ** :   0.1667 0.1111 0.5000  plane waves:    3492
 k-point ** :   0.2222 0.1111 0.5000  plane waves:    3494
 k-point ** :   0.2778 0.1111 0.5000  plane waves:    3502
 k-point ** :   0.3333 0.1111 0.5000  plane waves:    3530
 k-point ** :   0.3889 0.1111 0.5000  plane waves:    3536
 k-point ** :   0.4444 0.1111 0.5000  plane waves:    3538
 k-point ** :   0.5000 0.1111 0.5000  plane waves:    3534
 k-point ** :  -0.4444 0.1111 0.5000  plane waves:    3530
 k-point ** :  -0.3889 0.1111 0.5000  plane waves:    3502
 k-point ** :  -0.3333 0.1111 0.5000  plane waves:    3494
 k-point ** :  -0.2778 0.1111 0.5000  plane waves:    3492
 k-point ** :  -0.2222 0.1111 0.5000  plane waves:    3490
 k-point ** :  -0.1667 0.1111 0.5000  plane waves:    3470
 k-point ** :  -0.1111 0.1111 0.5000  plane waves:    3468
 k-point ** :   0.1667 0.1667 0.5000  plane waves:    3498
 k-point ** :   0.2222 0.1667 0.5000  plane waves:    3500
 k-point ** :   0.2778 0.1667 0.5000  plane waves:    3532
 k-point ** :   0.3333 0.1667 0.5000  plane waves:    3546
 k-point ** :   0.3889 0.1667 0.5000  plane waves:    3550
 k-point ** :   0.4444 0.1667 0.5000  plane waves:    3548
 k-point ** :   0.5000 0.1667 0.5000  plane waves:    3546
 k-point ** :  -0.4444 0.1667 0.5000  plane waves:    3530
 k-point ** :  -0.3889 0.1667 0.5000  plane waves:    3504
 k-point ** :  -0.3333 0.1667 0.5000  plane waves:    3502
 k-point ** :  -0.2778 0.1667 0.5000  plane waves:    3492
 k-point ** :  -0.2222 0.1667 0.5000  plane waves:    3504
 k-point ** :  -0.1667 0.1667 0.5000  plane waves:    3494
 k-point ** :   0.2222 0.2222 0.5000  plane waves:    3520
 k-point ** :   0.2778 0.2222 0.5000  plane waves:    3542
 k-point ** :   0.3333 0.2222 0.5000  plane waves:    3552
 k-point ** :   0.3889 0.2222 0.5000  plane waves:    3564
 k-point ** :   0.4444 0.2222 0.5000  plane waves:    3552
 k-point ** :   0.5000 0.2222 0.5000  plane waves:    3540
 k-point ** :  -0.4444 0.2222 0.5000  plane waves:    3518
 k-point ** :  -0.3889 0.2222 0.5000  plane waves:    3502
 k-point ** :  -0.3333 0.2222 0.5000  plane waves:    3496
 k-point ** :  -0.2778 0.2222 0.5000  plane waves:    3502
 k-point ** :  -0.2222 0.2222 0.5000  plane waves:    3500
 k-point ** :   0.2778 0.2778 0.5000  plane waves:    3572
 k-point ** :   0.3333 0.2778 0.5000  plane waves:    3568
 k-point ** :   0.3889 0.2778 0.5000  plane waves:    3566
 k-point ** :   0.4444 0.2778 0.5000  plane waves:    3572
 k-point ** :   0.5000 0.2778 0.5000  plane waves:    3540
 k-point ** :  -0.4444 0.2778 0.5000  plane waves:    3528
 k-point ** :  -0.3889 0.2778 0.5000  plane waves:    3502
 k-point ** :  -0.3333 0.2778 0.5000  plane waves:    3490
 k-point ** :  -0.2778 0.2778 0.5000  plane waves:    3498
 k-point ** :   0.3333 0.3333 0.5000  plane waves:    3576
 k-point ** :   0.3889 0.3333 0.5000  plane waves:    3568
 k-point ** :   0.4444 0.3333 0.5000  plane waves:    3552
 k-point ** :   0.5000 0.3333 0.5000  plane waves:    3546
 k-point ** :  -0.4444 0.3333 0.5000  plane waves:    3530
 k-point ** :  -0.3889 0.3333 0.5000  plane waves:    3516
 k-point ** :  -0.3333 0.3333 0.5000  plane waves:    3506
 k-point ** :   0.3889 0.3889 0.5000  plane waves:    3562
 k-point ** :   0.4444 0.3889 0.5000  plane waves:    3550
 k-point ** :   0.5000 0.3889 0.5000  plane waves:    3536
 k-point ** :  -0.4444 0.3889 0.5000  plane waves:    3522
 k-point ** :  -0.3889 0.3889 0.5000  plane waves:    3518
 k-point ** :   0.4444 0.4444 0.5000  plane waves:    3540
 k-point ** :   0.5000 0.4444 0.5000  plane waves:    3518
 k-point ** :  -0.4444 0.4444 0.5000  plane waves:    3524
 k-point ** :   0.5000 0.5000 0.5000  plane waves:    3508

 maximum and minimum number of plane-waves per node :      1209     1137

 maximum number of plane-waves:      3579
 maximum index in each direction: 
   IXMAX=    5   IYMAX=    4   IZMAX=   39
   IXMIN=   -5   IYMIN=   -5   IZMIN=  -40

 WARNING: aliasing errors must be expected set NGX to  22 to avoid them
 NGY is ok and might be reduce to  20
 NGZ is ok and might be reduce to 160
 aliasing errors are usually negligible using standard VASP settings
 and one can safely disregard these warnings

 parallel 3D FFT for wavefunctions:
    minimum data exchange during FFTs selected (reduces bandwidth)
 parallel 3D FFT for charge:
    minimum data exchange during FFTs selected (reduces bandwidth)


 total amount of memory used by VASP on root node   109615. kBytes
========================================================================

   base      :      30000. kBytes
   nonl-proj :      35273. kBytes
   fftplans  :       3655. kBytes
   grid      :       5216. kBytes
   one-center:          3. kBytes
   wavefun   :      35468. kBytes
 
     INWAV:  cpu time    0.00: real time    0.00
 Broyden mixing: mesh for mixing (old mesh)
   NGX =  9   NGY =  9   NGZ = 79
  (NGX  = 40   NGY  = 40   NGZ  =320)
  gives a total of   6399 points

 initial charge density was supplied:
 charge density of overlapping atoms calculated
 number of electron       8.0000000 magnetization 
 keeping initial charge density in first step


--------------------------------------------------------------------------------------------------------


 Maximum index for augmentation-charges         1300 (set IRDMAX)


--------------------------------------------------------------------------------------------------------


 First call to EWALD:  gamma=   0.375
 Maximum number of real-space cells 5x 5x 1
 Maximum number of reciprocal cells 2x 2x10

 FEWALD executed in parallel
    FEWALD:  cpu time    0.00: real time    0.01


----------------------------------------- Iteration    1(   1)  ---------------------------------------


    POTLOK:  cpu time    0.07: real time    0.13
    SETDIJ:  cpu time    0.00: real time    0.00
     EDDAV:  cpu time   14.85: real time   22.74
 BZINTS: Fermi energy:  4.340440;  8.000000 electrons
         Band energy: -50.258608;  BLOECHL correction: -0.254575
       DOS:  cpu time    0.08: real time    0.09
    --------------------------------------------
      LOOP:  cpu time   15.01: real time   22.98

 eigenvalue-minimisations  :  7288
 total energy-change (2. order) : 0.5977940E+02  (-0.3516487E+03)
 number of electron       8.0000000 magnetization 
 augmentation part        8.0000000 magnetization 

 Free energy of the ion-electron system (eV)
  ---------------------------------------------------
  alpha Z        PSCENC =         3.09461325
  Ewald energy   TEWEN  =      1294.91951791
  -Hartree energ DENC   =     -1507.53105140
  -exchange      EXHF   =         0.00000000
  -V(xc)+E(xc)   XCENC  =        27.55531207
  PAW double counting   =        75.66288619      -77.96384553
  entropy T*S    EENTRO =         0.00000000
  eigenvalues    EBANDS =       -50.25860755
  atomic energy  EATOM  =       294.30057552
  ---------------------------------------------------
  free energy    TOTEN  =        59.77940045 eV

  energy without entropy =       59.77940045  energy(sigma->0) =       59.77940045


--------------------------------------------------------------------------------------------------------




----------------------------------------- Iteration    1(   2)  ---------------------------------------


     EDDAV:  cpu time   18.56: real time   28.50
 BZINTS: Fermi energy: -4.420650;  8.000000 electrons
         Band energy:-125.113002;  BLOECHL correction: -0.021132
       DOS:  cpu time    0.08: real time    0.10
    --------------------------------------------
      LOOP:  cpu time   18.64: real time   28.61

 eigenvalue-minimisations  : 10392
 total energy-change (2. order) :-0.7485439E+02  (-0.6336002E+02)
 number of electron       8.0000000 magnetization 
 augmentation part        8.0000000 magnetization 

 Free energy of the ion-electron system (eV)
  ---------------------------------------------------
  alpha Z        PSCENC =         3.09461325
  Ewald energy   TEWEN  =      1294.91951791
  -Hartree energ DENC   =     -1507.53105140
  -exchange      EXHF   =         0.00000000
  -V(xc)+E(xc)   XCENC  =        27.55531207
  PAW double counting   =        75.66288619      -77.96384553
  entropy T*S    EENTRO =         0.00000000
  eigenvalues    EBANDS =      -125.11300184
  atomic energy  EATOM  =       294.30057552
  ---------------------------------------------------
  free energy    TOTEN  =       -15.07499384 eV

  energy without entropy =      -15.07499384  energy(sigma->0) =      -15.07499384


--------------------------------------------------------------------------------------------------------




----------------------------------------- Iteration    1(   3)  ---------------------------------------


     EDDAV:  cpu time   20.84: real time   30.31
 BZINTS: Fermi energy: -6.350085;  8.000000 electrons
         Band energy:-129.728442;  BLOECHL correction:  0.000000
       DOS:  cpu time    0.03: real time    0.03
    --------------------------------------------
      LOOP:  cpu time   20.92: real time   30.40

 eigenvalue-minimisations  : 10720
 total energy-change (2. order) :-0.4615440E+01  (-0.4600239E+01)
 number of electron       8.0000000 magnetization 
 augmentation part        8.0000000 magnetization 

 Free energy of the ion-electron system (eV)
  ---------------------------------------------------
  alpha Z        PSCENC =         3.09461325
  Ewald energy   TEWEN  =      1294.91951791
  -Hartree energ DENC   =     -1507.53105140
  -exchange      EXHF   =         0.00000000
  -V(xc)+E(xc)   XCENC  =        27.55531207
  PAW double counting   =        75.66288619      -77.96384553
  entropy T*S    EENTRO =         0.00000000
  eigenvalues    EBANDS =      -129.72844193
  atomic energy  EATOM  =       294.30057552
  ---------------------------------------------------
  free energy    TOTEN  =       -19.69043393 eV

  energy without entropy =      -19.69043393  energy(sigma->0) =      -19.69043393


--------------------------------------------------------------------------------------------------------




----------------------------------------- Iteration    1(   4)  ---------------------------------------


     EDDAV:  cpu time   20.74: real time   31.28
 BZINTS: Fermi energy: -6.349355;  8.000000 electrons
         Band energy:-129.763600;  BLOECHL correction:  0.000000
       DOS:  cpu time    0.03: real time    0.03
    --------------------------------------------
      LOOP:  cpu time   20.77: real time   31.32

 eigenvalue-minimisations  : 11472
 total energy-change (2. order) :-0.3515835E-01  (-0.3515835E-01)
 number of electron       8.0000000 magnetization 
 augmentation part        8.0000000 magnetization 

 Free energy of the ion-electron system (eV)
  ---------------------------------------------------
  alpha Z        PSCENC =         3.09461325
  Ewald energy   TEWEN  =      1294.91951791
  -Hartree energ DENC   =     -1507.53105140
  -exchange      EXHF   =         0.00000000
  -V(xc)+E(xc)   XCENC  =        27.55531207
  PAW double counting   =        75.66288619      -77.96384553
  entropy T*S    EENTRO =         0.00000000
  eigenvalues    EBANDS =      -129.76360029
  atomic energy  EATOM  =       294.30057552
  ---------------------------------------------------
  free energy    TOTEN  =       -19.72559229 eV

  energy without entropy =      -19.72559229  energy(sigma->0) =      -19.72559229


--------------------------------------------------------------------------------------------------------




----------------------------------------- Iteration    1(   5)  ---------------------------------------


     EDDAV:  cpu time   20.73: real time   31.47
 BZINTS: Fermi energy: -6.349673;  8.000000 electrons
         Band energy:-129.763760;  BLOECHL correction:  0.000000
       DOS:  cpu time    0.03: real time    0.05
    CHARGE:  cpu time    0.83: real time    1.25
    MIXING:  cpu time    0.00: real time    0.00
    --------------------------------------------
      LOOP:  cpu time   21.62: real time   32.81

 eigenvalue-minimisations  : 10920
 total energy-change (2. order) :-0.1596846E-03  (-0.1596846E-03)
 number of electron       7.9999999 magnetization 
 augmentation part        0.2136165 magnetization 

 Broyden mixing:
  rms(total) = 0.55268E+00    rms(broyden)= 0.55262E+00
  rms(prec ) = 0.60233E+00
  weight for this iteration     100.00

 Free energy of the ion-electron system (eV)
  ---------------------------------------------------
  alpha Z        PSCENC =         3.09461325
  Ewald energy   TEWEN  =      1294.91951791
  -Hartree energ DENC   =     -1507.53105140
  -exchange      EXHF   =         0.00000000
  -V(xc)+E(xc)   XCENC  =        27.55531207
  PAW double counting   =        75.66288619      -77.96384553
  entropy T*S    EENTRO =         0.00000000
  eigenvalues    EBANDS =      -129.76375997
  atomic energy  EATOM  =       294.30057552
  ---------------------------------------------------
  free energy    TOTEN  =       -19.72575197 eV

  energy without entropy =      -19.72575197  energy(sigma->0) =      -19.72575197

