# Thermal properties / unit cell (natom)

unit:
  temperature:   K
  free_energy:   kJ/mol
  entropy:       J/K/mol
  heat_capacity: J/K/mol

natom:     2
num_modes: 1944
num_integrated_modes: 1680

zero_point_energy:      28.3160930
high_T_entropy:        100.4245472

thermal_properties:
- temperature:         0.0000000
  free_energy:        28.3160930
  entropy:             0.0000000
  heat_capacity:       0.0000000
  energy:             28.3160930

- temperature:        10.0000000
  free_energy:        28.3160237
  entropy:             0.0234545
  heat_capacity:       0.0440963
  energy:             28.3162583

- temperature:        20.0000000
  free_energy:        28.3155689
  entropy:             0.0670282
  heat_capacity:       0.0846098
  energy:             28.3169095

- temperature:        30.0000000
  free_energy:        28.3146796
  entropy:             0.1122021
  heat_capacity:       0.1510265
  energy:             28.3180457

- temperature:        40.0000000
  free_energy:        28.3132801
  entropy:             0.1704870
  heat_capacity:       0.2677125
  energy:             28.3200995

- temperature:        50.0000000
  free_energy:        28.3112091
  entropy:             0.2469524
  heat_capacity:       0.4318208
  energy:             28.3235567

- temperature:        60.0000000
  free_energy:        28.3082726
  entropy:             0.3439558
  heat_capacity:       0.6481534
  energy:             28.3289099

- temperature:        70.0000000
  free_energy:        28.3042539
  entropy:             0.4637498
  heat_capacity:       0.9233506
  energy:             28.3367164

- temperature:        80.0000000
  free_energy:        28.2989148
  entropy:             0.6083593
  heat_capacity:       1.2603773
  energy:             28.3475835

- temperature:        90.0000000
  free_energy:        28.2919993
  entropy:             0.7791860
  heat_capacity:       1.6579170
  energy:             28.3621260

- temperature:       100.0000000
  free_energy:        28.2832414
  entropy:             0.9768803
  heat_capacity:       2.1116851
  energy:             28.3809295

- temperature:       110.0000000
  free_energy:        28.2723721
  entropy:             1.2014149
  heat_capacity:       2.6158566
  energy:             28.4045278

- temperature:       120.0000000
  free_energy:        28.2591255
  entropy:             1.4522320
  heat_capacity:       3.1640451
  energy:             28.4333933

- temperature:       130.0000000
  free_energy:        28.2432430
  entropy:             1.7283927
  heat_capacity:       3.7498526
  energy:             28.4679341

- temperature:       140.0000000
  free_energy:        28.2244771
  entropy:             2.0287012
  heat_capacity:       4.3671501
  energy:             28.5084953

- temperature:       150.0000000
  free_energy:        28.2025930
  entropy:             2.3517993
  heat_capacity:       5.0102174
  energy:             28.5553629

- temperature:       160.0000000
  free_energy:        28.1773700
  entropy:             2.6962376
  heat_capacity:       5.6738118
  energy:             28.6087680

- temperature:       170.0000000
  free_energy:        28.1486021
  entropy:             3.0605273
  heat_capacity:       6.3531981
  energy:             28.6688917

- temperature:       180.0000000
  free_energy:        28.1160982
  entropy:             3.4431791
  heat_capacity:       7.0441537
  energy:             28.7358705

- temperature:       190.0000000
  free_energy:        28.0796822
  entropy:             3.8427301
  heat_capacity:       7.7429540
  energy:             28.8098009

- temperature:       200.0000000
  free_energy:        28.0391920
  entropy:             4.2577638
  heat_capacity:       8.4463448
  energy:             28.8907448

- temperature:       210.0000000
  free_energy:        27.9944798
  entropy:             4.6869230
  heat_capacity:       9.1515055
  energy:             28.9787336

- temperature:       220.0000000
  free_energy:        27.9454108
  entropy:             5.1289176
  heat_capacity:       9.8560071
  energy:             29.0737727

- temperature:       230.0000000
  free_energy:        27.8918627
  entropy:             5.5825299
  heat_capacity:      10.5577690
  energy:             29.1758446

- temperature:       240.0000000
  free_energy:        27.8337253
  entropy:             6.0466153
  heat_capacity:      11.2550166
  energy:             29.2849130

- temperature:       250.0000000
  free_energy:        27.7708991
  entropy:             6.5201030
  heat_capacity:      11.9462425
  energy:             29.4009249

- temperature:       260.0000000
  free_energy:        27.7032952
  entropy:             7.0019933
  heat_capacity:      12.6301704
  energy:             29.5238135

- temperature:       270.0000000
  free_energy:        27.6308343
  entropy:             7.4913555
  heat_capacity:      13.3057238
  energy:             29.6535003

- temperature:       280.0000000
  free_energy:        27.5534461
  entropy:             7.9873247
  heat_capacity:      13.9719986
  energy:             29.7898970

- temperature:       290.0000000
  free_energy:        27.4710685
  entropy:             8.4890977
  heat_capacity:      14.6282398
  energy:             29.9329068

- temperature:       300.0000000
  free_energy:        27.3836473
  entropy:             8.9959299
  heat_capacity:      15.2738216
  energy:             30.0824263

- temperature:       310.0000000
  free_energy:        27.2911354
  entropy:             9.5071312
  heat_capacity:      15.9082298
  energy:             30.2383460

- temperature:       320.0000000
  free_energy:        27.1934922
  entropy:            10.0220624
  heat_capacity:      16.5310481
  energy:             30.4005522

- temperature:       330.0000000
  free_energy:        27.0906836
  entropy:            10.5401321
  heat_capacity:      17.1419456
  energy:             30.5689272

- temperature:       340.0000000
  free_energy:        26.9826810
  entropy:            11.0607928
  heat_capacity:      17.7406660
  energy:             30.7433505

- temperature:       350.0000000
  free_energy:        26.8694608
  entropy:            11.5835385
  heat_capacity:      18.3270192
  energy:             30.9236993

- temperature:       360.0000000
  free_energy:        26.7510048
  entropy:            12.1079012
  heat_capacity:      18.9008732
  energy:             31.1098492

- temperature:       370.0000000
  free_energy:        26.6272989
  entropy:            12.6334486
  heat_capacity:      19.4621473
  energy:             31.3016748

- temperature:       380.0000000
  free_energy:        26.4983332
  entropy:            13.1597813
  heat_capacity:      20.0108065
  energy:             31.4990501

- temperature:       390.0000000
  free_energy:        26.3641019
  entropy:            13.6865310
  heat_capacity:      20.5468557
  energy:             31.7018489

- temperature:       400.0000000
  free_energy:        26.2246024
  entropy:            14.2133575
  heat_capacity:      21.0703359
  energy:             31.9099453

- temperature:       410.0000000
  free_energy:        26.0798355
  entropy:            14.7399475
  heat_capacity:      21.5813188
  energy:             32.1232140

- temperature:       420.0000000
  free_energy:        25.9298052
  entropy:            15.2660125
  heat_capacity:      22.0799044
  energy:             32.3415304

- temperature:       430.0000000
  free_energy:        25.7745179
  entropy:            15.7912867
  heat_capacity:      22.5662165
  energy:             32.5647712

- temperature:       440.0000000
  free_energy:        25.6139829
  entropy:            16.3155260
  heat_capacity:      23.0404001
  energy:             32.7928143

- temperature:       450.0000000
  free_energy:        25.4482116
  entropy:            16.8385060
  heat_capacity:      23.5026187
  energy:             33.0255393

- temperature:       460.0000000
  free_energy:        25.2772176
  entropy:            17.3600212
  heat_capacity:      23.9530515
  energy:             33.2628274

- temperature:       470.0000000
  free_energy:        25.1010167
  entropy:            17.8798830
  heat_capacity:      24.3918913
  energy:             33.5045617

- temperature:       480.0000000
  free_energy:        24.9196261
  entropy:            18.3979191
  heat_capacity:      24.8193422
  energy:             33.7506272

- temperature:       490.0000000
  free_energy:        24.7330649
  entropy:            18.9139722
  heat_capacity:      25.2356178
  energy:             34.0009113

- temperature:       500.0000000
  free_energy:        24.5413537
  entropy:            19.4278987
  heat_capacity:      25.6409395
  energy:             34.2553031

- temperature:       510.0000000
  free_energy:        24.3445144
  entropy:            19.9395683
  heat_capacity:      26.0355349
  energy:             34.5136943

- temperature:       520.0000000
  free_energy:        24.1425703
  entropy:            20.4488626
  heat_capacity:      26.4196364
  energy:             34.7759788

- temperature:       530.0000000
  free_energy:        23.9355455
  entropy:            20.9556743
  heat_capacity:      26.7934798
  energy:             35.0420528

- temperature:       540.0000000
  free_energy:        23.7234654
  entropy:            21.4599067
  heat_capacity:      27.1573036
  energy:             35.3118150

- temperature:       550.0000000
  free_energy:        23.5063562
  entropy:            21.9614729
  heat_capacity:      27.5113472
  energy:             35.5851663

- temperature:       560.0000000
  free_energy:        23.2842451
  entropy:            22.4602948
  heat_capacity:      27.8558507
  energy:             35.8620101

- temperature:       570.0000000
  free_energy:        23.0571597
  entropy:            22.9563028
  heat_capacity:      28.1910538
  energy:             36.1422523

- temperature:       580.0000000
  free_energy:        22.8251286
  entropy:            23.4494352
  heat_capacity:      28.5171950
  energy:             36.4258010

- temperature:       590.0000000
  free_energy:        22.5881808
  entropy:            23.9396373
  heat_capacity:      28.8345113
  energy:             36.7125668

- temperature:       600.0000000
  free_energy:        22.3463458
  entropy:            24.4268614
  heat_capacity:      29.1432372
  energy:             37.0024626

- temperature:       610.0000000
  free_energy:        22.0996536
  entropy:            24.9110657
  heat_capacity:      29.4436045
  energy:             37.2954037

- temperature:       620.0000000
  free_energy:        21.8481346
  entropy:            25.3922144
  heat_capacity:      29.7358418
  energy:             37.5913076

- temperature:       630.0000000
  free_energy:        21.5918196
  entropy:            25.8702771
  heat_capacity:      30.0201742
  energy:             37.8900942

- temperature:       640.0000000
  free_energy:        21.3307395
  entropy:            26.3452281
  heat_capacity:      30.2968231
  energy:             38.1916855

- temperature:       650.0000000
  free_energy:        21.0649255
  entropy:            26.8170465
  heat_capacity:      30.5660057
  energy:             38.4960057

- temperature:       660.0000000
  free_energy:        20.7944090
  entropy:            27.2857157
  heat_capacity:      30.8279347
  energy:             38.8029814

- temperature:       670.0000000
  free_energy:        20.5192217
  entropy:            27.7512227
  heat_capacity:      31.0828188
  energy:             39.1125410

- temperature:       680.0000000
  free_energy:        20.2393952
  entropy:            28.2135585
  heat_capacity:      31.3308617
  energy:             39.4246150

- temperature:       690.0000000
  free_energy:        19.9549611
  entropy:            28.6727173
  heat_capacity:      31.5722626
  energy:             39.7391360

- temperature:       700.0000000
  free_energy:        19.6659514
  entropy:            29.1286962
  heat_capacity:      31.8072159
  energy:             40.0560387

- temperature:       710.0000000
  free_energy:        19.3723978
  entropy:            29.5814953
  heat_capacity:      32.0359112
  energy:             40.3752595

- temperature:       720.0000000
  free_energy:        19.0743321
  entropy:            30.0311175
  heat_capacity:      32.2585332
  energy:             40.6967367

- temperature:       730.0000000
  free_energy:        18.7717860
  entropy:            30.4775678
  heat_capacity:      32.4752619
  energy:             41.0204105

- temperature:       740.0000000
  free_energy:        18.4647913
  entropy:            30.9208535
  heat_capacity:      32.6862723
  energy:             41.3462229

- temperature:       750.0000000
  free_energy:        18.1533795
  entropy:            31.3609840
  heat_capacity:      32.8917347
  energy:             41.6741175

- temperature:       760.0000000
  free_energy:        17.8375821
  entropy:            31.7979705
  heat_capacity:      33.0918147
  energy:             42.0040396

- temperature:       770.0000000
  free_energy:        17.5174305
  entropy:            32.2318258
  heat_capacity:      33.2866732
  energy:             42.3359364

- temperature:       780.0000000
  free_energy:        17.1929560
  entropy:            32.6625644
  heat_capacity:      33.4764662
  energy:             42.6697562

- temperature:       790.0000000
  free_energy:        16.8641896
  entropy:            33.0902022
  heat_capacity:      33.6613454
  energy:             43.0054493

- temperature:       800.0000000
  free_energy:        16.5311622
  entropy:            33.5147563
  heat_capacity:      33.8414579
  energy:             43.3429672

- temperature:       810.0000000
  free_energy:        16.1939046
  entropy:            33.9362450
  heat_capacity:      34.0169466
  energy:             43.6822631

- temperature:       820.0000000
  free_energy:        15.8524475
  entropy:            34.3546875
  heat_capacity:      34.1879497
  energy:             44.0232912

- temperature:       830.0000000
  free_energy:        15.5068210
  entropy:            34.7701043
  heat_capacity:      34.3546016
  energy:             44.3660076

- temperature:       840.0000000
  free_energy:        15.1570554
  entropy:            35.1825164
  heat_capacity:      34.5170321
  energy:             44.7103692

- temperature:       850.0000000
  free_energy:        14.8031806
  entropy:            35.5919458
  heat_capacity:      34.6753675
  energy:             45.0563345

- temperature:       860.0000000
  free_energy:        14.4452263
  entropy:            35.9984151
  heat_capacity:      34.8297298
  energy:             45.4038633

- temperature:       870.0000000
  free_energy:        14.0832221
  entropy:            36.4019474
  heat_capacity:      34.9802372
  energy:             45.7529163

- temperature:       880.0000000
  free_energy:        13.7171971
  entropy:            36.8025664
  heat_capacity:      35.1270043
  energy:             46.1034556

- temperature:       890.0000000
  free_energy:        13.3471804
  entropy:            37.2002965
  heat_capacity:      35.2701422
  energy:             46.4554443

- temperature:       900.0000000
  free_energy:        12.9732007
  entropy:            37.5951622
  heat_capacity:      35.4097580
  energy:             46.8088467

- temperature:       910.0000000
  free_energy:        12.5952866
  entropy:            37.9871884
  heat_capacity:      35.5459560
  energy:             47.1636280

- temperature:       920.0000000
  free_energy:        12.2134663
  entropy:            38.3764004
  heat_capacity:      35.6788366
  energy:             47.5197547

- temperature:       930.0000000
  free_energy:        11.8277679
  entropy:            38.7628238
  heat_capacity:      35.8084974
  energy:             47.8771940

- temperature:       940.0000000
  free_energy:        11.4382191
  entropy:            39.1464843
  heat_capacity:      35.9350326
  energy:             48.2359143

- temperature:       950.0000000
  free_energy:        11.0448473
  entropy:            39.5274076
  heat_capacity:      36.0585337
  energy:             48.5958846

- temperature:       960.0000000
  free_energy:        10.6476799
  entropy:            39.9056200
  heat_capacity:      36.1790888
  energy:             48.9570751

- temperature:       970.0000000
  free_energy:        10.2467439
  entropy:            40.2811474
  heat_capacity:      36.2967835
  energy:             49.3194568

- temperature:       980.0000000
  free_energy:         9.8420659
  entropy:            40.6540160
  heat_capacity:      36.4117005
  energy:             49.6830015

- temperature:       990.0000000
  free_energy:         9.4336723
  entropy:            41.0242520
  heat_capacity:      36.5239201
  energy:             50.0476818

- temperature:      1000.0000000
  free_energy:         9.0215895
  entropy:            41.3918817
  heat_capacity:      36.6335195
  energy:             50.4134712
