# Thermal properties / unit cell (natom)

unit:
  temperature:   K
  free_energy:   kJ/mol
  entropy:       J/K/mol
  heat_capacity: J/K/mol

natom:     2
num_modes: 864
num_integrated_modes: 752

zero_point_energy:      28.7390508
high_T_entropy:        100.6075006

thermal_properties:
- temperature:         0.0000000
  free_energy:        28.7390508
  entropy:             0.0000000
  heat_capacity:       0.0000000
  energy:             28.7390508

- temperature:        10.0000000
  free_energy:        28.7390508
  entropy:             0.0000366
  heat_capacity:       0.0004053
  energy:             28.7390512

- temperature:        20.0000000
  free_energy:        28.7390280
  entropy:             0.0080089
  heat_capacity:       0.0414640
  energy:             28.7391882

- temperature:        30.0000000
  free_energy:        28.7387927
  entropy:             0.0438837
  heat_capacity:       0.1484452
  energy:             28.7401092

- temperature:        40.0000000
  free_energy:        28.7380703
  entropy:             0.1039626
  heat_capacity:       0.2793092
  energy:             28.7422288

- temperature:        50.0000000
  free_energy:        28.7366506
  entropy:             0.1830802
  heat_capacity:       0.4429602
  energy:             28.7458047

- temperature:        60.0000000
  free_energy:        28.7343433
  entropy:             0.2818420
  heat_capacity:       0.6560286
  energy:             28.7512538

- temperature:        70.0000000
  free_energy:        28.7309407
  entropy:             0.4025160
  heat_capacity:       0.9263588
  energy:             28.7591168

- temperature:        80.0000000
  free_energy:        28.7262134
  entropy:             0.5470364
  heat_capacity:       1.2551818
  energy:             28.7699763

- temperature:        90.0000000
  free_energy:        28.7199165
  entropy:             0.7165788
  heat_capacity:       1.6403971
  energy:             28.7844086

- temperature:       100.0000000
  free_energy:        28.7117967
  entropy:             0.9116364
  heat_capacity:       2.0784193
  energy:             28.8029604

- temperature:       110.0000000
  free_energy:        28.7015988
  entropy:             1.1321807
  heat_capacity:       2.5649258
  energy:             28.8261386

- temperature:       120.0000000
  free_energy:        28.6890695
  entropy:             1.3777912
  heat_capacity:       3.0950961
  energy:             28.8544045

- temperature:       130.0000000
  free_energy:        28.6739618
  entropy:             1.6477465
  heat_capacity:       3.6637350
  energy:             28.8881688

- temperature:       140.0000000
  free_energy:        28.6560366
  entropy:             1.9410911
  heat_capacity:       4.2654299
  energy:             28.9277894

- temperature:       150.0000000
  free_energy:        28.6350657
  entropy:             2.2566916
  heat_capacity:       4.8947508
  energy:             28.9735695

- temperature:       160.0000000
  free_energy:        28.6108328
  entropy:             2.5932885
  heat_capacity:       5.5464506
  energy:             29.0257589

- temperature:       170.0000000
  free_energy:        28.5831344
  entropy:             2.9495427
  heat_capacity:       6.2156283
  energy:             29.0845567

- temperature:       180.0000000
  free_energy:        28.5517810
  entropy:             3.3240771
  heat_capacity:       6.8978368
  energy:             29.1501149

- temperature:       190.0000000
  free_energy:        28.5165966
  entropy:             3.7155111
  heat_capacity:       7.5891343
  energy:             29.2225437

- temperature:       200.0000000
  free_energy:        28.4774190
  entropy:             4.1224870
  heat_capacity:       8.2860906
  energy:             29.3019164

- temperature:       210.0000000
  free_energy:        28.4340994
  entropy:             4.5436908
  heat_capacity:       8.9857610
  energy:             29.3882745

- temperature:       220.0000000
  free_energy:        28.3865019
  entropy:             4.9778651
  heat_capacity:       9.6856412
  energy:             29.4816323

- temperature:       230.0000000
  free_energy:        28.3345029
  entropy:             5.4238176
  heat_capacity:      10.3836142
  energy:             29.5819809

- temperature:       240.0000000
  free_energy:        28.2779901
  entropy:             5.8804256
  heat_capacity:      11.0778955
  energy:             29.6892922

- temperature:       250.0000000
  free_energy:        28.2168623
  entropy:             6.3466366
  heat_capacity:      11.7669820
  energy:             29.8035215

- temperature:       260.0000000
  free_energy:        28.1510286
  entropy:             6.8214680
  heat_capacity:      12.4496066
  energy:             29.9246103

- temperature:       270.0000000
  free_energy:        28.0804073
  entropy:             7.3040044
  heat_capacity:      13.1247001
  energy:             30.0524885

- temperature:       280.0000000
  free_energy:        28.0049257
  entropy:             7.7933945
  heat_capacity:      13.7913585
  energy:             30.1870762

- temperature:       290.0000000
  free_energy:        27.9245192
  entropy:             8.2888475
  heat_capacity:      14.4488173
  energy:             30.3282850

- temperature:       300.0000000
  free_energy:        27.8391310
  entropy:             8.7896290
  heat_capacity:      15.0964306
  energy:             30.4760197

- temperature:       310.0000000
  free_energy:        27.7487112
  entropy:             9.2950574
  heat_capacity:      15.7336543
  energy:             30.6301790

- temperature:       320.0000000
  free_energy:        27.6532165
  entropy:             9.8045004
  heat_capacity:      16.3600330
  energy:             30.7906566

- temperature:       330.0000000
  free_energy:        27.5526097
  entropy:            10.3173711
  heat_capacity:      16.9751887
  energy:             30.9573422

- temperature:       340.0000000
  free_energy:        27.4468594
  entropy:            10.8331250
  heat_capacity:      17.5788131
  energy:             31.1301219

- temperature:       350.0000000
  free_energy:        27.3359393
  entropy:            11.3512568
  heat_capacity:      18.1706591
  energy:             31.3088792

- temperature:       360.0000000
  free_energy:        27.2198279
  entropy:            11.8712980
  heat_capacity:      18.7505359
  energy:             31.4934952

- temperature:       370.0000000
  free_energy:        27.0985084
  entropy:            12.3928138
  heat_capacity:      19.3183030
  energy:             31.6838495

- temperature:       380.0000000
  free_energy:        26.9719681
  entropy:            12.9154013
  heat_capacity:      19.8738657
  energy:             31.8798206

- temperature:       390.0000000
  free_energy:        26.8401981
  entropy:            13.4386870
  heat_capacity:      20.4171709
  energy:             32.0812860

- temperature:       400.0000000
  free_energy:        26.7031932
  entropy:            13.9623248
  heat_capacity:      20.9482035
  energy:             32.2881231

- temperature:       410.0000000
  free_energy:        26.5609515
  entropy:            14.4859945
  heat_capacity:      21.4669825
  energy:             32.5002092

- temperature:       420.0000000
  free_energy:        26.4134742
  entropy:            15.0093997
  heat_capacity:      21.9735577
  energy:             32.7174221

- temperature:       430.0000000
  free_energy:        26.2607653
  entropy:            15.5322667
  heat_capacity:      22.4680070
  energy:             32.9396399

- temperature:       440.0000000
  free_energy:        26.1028315
  entropy:            16.0543424
  heat_capacity:      22.9504330
  energy:             33.1667421

- temperature:       450.0000000
  free_energy:        25.9396818
  entropy:            16.5753935
  heat_capacity:      23.4209603
  energy:             33.3986089

- temperature:       460.0000000
  free_energy:        25.7713277
  entropy:            17.0952052
  heat_capacity:      23.8797332
  energy:             33.6351221

- temperature:       470.0000000
  free_energy:        25.5977825
  entropy:            17.6135796
  heat_capacity:      24.3269132
  energy:             33.8761650

- temperature:       480.0000000
  free_energy:        25.4190615
  entropy:            18.1303350
  heat_capacity:      24.7626766
  energy:             34.1216223

- temperature:       490.0000000
  free_energy:        25.2351818
  entropy:            18.6453046
  heat_capacity:      25.1872124
  energy:             34.3713811

- temperature:       500.0000000
  free_energy:        25.0461619
  entropy:            19.1583358
  heat_capacity:      25.6007206
  energy:             34.6253298

- temperature:       510.0000000
  free_energy:        24.8520220
  entropy:            19.6692890
  heat_capacity:      26.0034102
  energy:             34.8833594

- temperature:       520.0000000
  free_energy:        24.6527835
  entropy:            20.1780369
  heat_capacity:      26.3954977
  energy:             35.1453627

- temperature:       530.0000000
  free_energy:        24.4484690
  entropy:            20.6844637
  heat_capacity:      26.7772054
  energy:             35.4112348

- temperature:       540.0000000
  free_energy:        24.2391023
  entropy:            21.1884642
  heat_capacity:      27.1487602
  energy:             35.6808730

- temperature:       550.0000000
  free_energy:        24.0247081
  entropy:            21.6899432
  heat_capacity:      27.5103926
  energy:             35.9541769

- temperature:       560.0000000
  free_energy:        23.8053121
  entropy:            22.1888150
  heat_capacity:      27.8623349
  energy:             36.2310485

- temperature:       570.0000000
  free_energy:        23.5809408
  entropy:            22.6850023
  heat_capacity:      28.2048209
  energy:             36.5113921

- temperature:       580.0000000
  free_energy:        23.3516213
  entropy:            23.1784361
  heat_capacity:      28.5380846
  energy:             36.7951142

- temperature:       590.0000000
  free_energy:        23.1173814
  entropy:            23.6690549
  heat_capacity:      28.8623596
  energy:             37.0821238

- temperature:       600.0000000
  free_energy:        22.8782497
  entropy:            24.1568041
  heat_capacity:      29.1778784
  energy:             37.3723322

- temperature:       610.0000000
  free_energy:        22.6342551
  entropy:            24.6416359
  heat_capacity:      29.4848714
  energy:             37.6656530

- temperature:       620.0000000
  free_energy:        22.3854269
  entropy:            25.1235082
  heat_capacity:      29.7835671
  energy:             37.9620020

- temperature:       630.0000000
  free_energy:        22.1317949
  entropy:            25.6023849
  heat_capacity:      30.0741909
  energy:             38.2612974

- temperature:       640.0000000
  free_energy:        21.8733893
  entropy:            26.0782349
  heat_capacity:      30.3569650
  energy:             38.5634596

- temperature:       650.0000000
  free_energy:        21.6102404
  entropy:            26.5510321
  heat_capacity:      30.6321083
  energy:             38.8684113

- temperature:       660.0000000
  free_energy:        21.3423789
  entropy:            27.0207548
  heat_capacity:      30.8998355
  energy:             39.1760771

- temperature:       670.0000000
  free_energy:        21.0698356
  entropy:            27.4873856
  heat_capacity:      31.1603576
  energy:             39.4863839

- temperature:       680.0000000
  free_energy:        20.7926415
  entropy:            27.9509108
  heat_capacity:      31.4138810
  energy:             39.7992609

- temperature:       690.0000000
  free_energy:        20.5108278
  entropy:            28.4113205
  heat_capacity:      31.6606078
  energy:             40.1146389

- temperature:       700.0000000
  free_energy:        20.2244255
  entropy:            28.8686079
  heat_capacity:      31.9007357
  energy:             40.4324510

- temperature:       710.0000000
  free_energy:        19.9334660
  entropy:            29.3227694
  heat_capacity:      32.1344576
  energy:             40.7526323

- temperature:       720.0000000
  free_energy:        19.6379805
  entropy:            29.7738041
  heat_capacity:      32.3619615
  energy:             41.0751195

- temperature:       730.0000000
  free_energy:        19.3380004
  entropy:            30.2217137
  heat_capacity:      32.5834311
  energy:             41.3998514

- temperature:       740.0000000
  free_energy:        19.0335567
  entropy:            30.6665026
  heat_capacity:      32.7990450
  energy:             41.7267686

- temperature:       750.0000000
  free_energy:        18.7246807
  entropy:            31.1081769
  heat_capacity:      33.0089771
  energy:             42.0558133

- temperature:       760.0000000
  free_energy:        18.4114035
  entropy:            31.5467451
  heat_capacity:      33.2133966
  energy:             42.3869297

- temperature:       770.0000000
  free_energy:        18.0937561
  entropy:            31.9822173
  heat_capacity:      33.4124681
  energy:             42.7200635

- temperature:       780.0000000
  free_energy:        17.7717694
  entropy:            32.4146056
  heat_capacity:      33.6063513
  energy:             43.0551618

- temperature:       790.0000000
  free_energy:        17.4454742
  entropy:            32.8439234
  heat_capacity:      33.7952015
  energy:             43.3921737

- temperature:       800.0000000
  free_energy:        17.1149011
  entropy:            33.2701855
  heat_capacity:      33.9791694
  energy:             43.7310496

- temperature:       810.0000000
  free_energy:        16.7800806
  entropy:            33.6934082
  heat_capacity:      34.1584012
  energy:             44.0717413

- temperature:       820.0000000
  free_energy:        16.4410431
  entropy:            34.1136088
  heat_capacity:      34.3330388
  energy:             44.4142023

- temperature:       830.0000000
  free_energy:        16.0978185
  entropy:            34.5308057
  heat_capacity:      34.5032198
  energy:             44.7583872

- temperature:       840.0000000
  free_energy:        15.7504369
  entropy:            34.9450183
  heat_capacity:      34.6690776
  energy:             45.1042523

- temperature:       850.0000000
  free_energy:        15.3989280
  entropy:            35.3562668
  heat_capacity:      34.8307413
  energy:             45.4517548

- temperature:       860.0000000
  free_energy:        15.0433214
  entropy:            35.7645723
  heat_capacity:      34.9883363
  energy:             45.8008535

- temperature:       870.0000000
  free_energy:        14.6836463
  entropy:            36.1699564
  heat_capacity:      35.1419840
  energy:             46.1515084

- temperature:       880.0000000
  free_energy:        14.3199319
  entropy:            36.5724415
  heat_capacity:      35.2918018
  energy:             46.5036804

- temperature:       890.0000000
  free_energy:        13.9522070
  entropy:            36.9720505
  heat_capacity:      35.4379036
  energy:             46.8573320

- temperature:       900.0000000
  free_energy:        13.5805004
  entropy:            37.3688068
  heat_capacity:      35.5803996
  energy:             47.2124265

- temperature:       910.0000000
  free_energy:        13.2048403
  entropy:            37.7627341
  heat_capacity:      35.7193966
  energy:             47.5689283

- temperature:       920.0000000
  free_energy:        12.8252551
  entropy:            38.1538566
  heat_capacity:      35.8549978
  energy:             47.9268031

- temperature:       930.0000000
  free_energy:        12.4417725
  entropy:            38.5421988
  heat_capacity:      35.9873033
  energy:             48.2860173

- temperature:       940.0000000
  free_energy:        12.0544203
  entropy:            38.9277854
  heat_capacity:      36.1164099
  energy:             48.6465385

- temperature:       950.0000000
  free_energy:        11.6632259
  entropy:            39.3106414
  heat_capacity:      36.2424112
  energy:             49.0083352

- temperature:       960.0000000
  free_energy:        11.2682165
  entropy:            39.6907919
  heat_capacity:      36.3653979
  energy:             49.3713767

- temperature:       970.0000000
  free_energy:        10.8694190
  entropy:            40.0682623
  heat_capacity:      36.4854578
  energy:             49.7356334

- temperature:       980.0000000
  free_energy:        10.4668601
  entropy:            40.4430779
  heat_capacity:      36.6026758
  energy:             50.1010764

- temperature:       990.0000000
  free_energy:        10.0605662
  entropy:            40.8152642
  heat_capacity:      36.7171341
  energy:             50.4676777

- temperature:      1000.0000000
  free_energy:         9.6505635
  entropy:            41.1848467
  heat_capacity:      36.8289122
  energy:             50.8354101
