# Thermal properties / unit cell (natom)

unit:
  temperature:   K
  free_energy:   kJ/mol
  entropy:       J/K/mol
  heat_capacity: J/K/mol

natom:     2
num_modes: 1944
num_integrated_modes: 1680

zero_point_energy:      28.3160923
high_T_entropy:        100.4246050

thermal_properties:
- temperature:         0.0000000
  free_energy:        28.3160923
  entropy:             0.0000000
  heat_capacity:       0.0000000
  energy:             28.3160923

- temperature:        10.0000000
  free_energy:        28.3160228
  entropy:             0.0234903
  heat_capacity:       0.0441245
  energy:             28.3162577

- temperature:        20.0000000
  free_energy:        28.3155675
  entropy:             0.0670781
  heat_capacity:       0.0846229
  energy:             28.3169091

- temperature:        30.0000000
  free_energy:        28.3146777
  entropy:             0.1122560
  heat_capacity:       0.1510335
  energy:             28.3180454

- temperature:        40.0000000
  free_energy:        28.3132776
  entropy:             0.1705425
  heat_capacity:       0.2677167
  energy:             28.3200993

- temperature:        50.0000000
  free_energy:        28.3112061
  entropy:             0.2470086
  heat_capacity:       0.4318236
  energy:             28.3235565

- temperature:        60.0000000
  free_energy:        28.3082690
  entropy:             0.3440125
  heat_capacity:       0.6481554
  energy:             28.3289098

- temperature:        70.0000000
  free_energy:        28.3042498
  entropy:             0.4638068
  heat_capacity:       0.9233520
  energy:             28.3367163

- temperature:        80.0000000
  free_energy:        28.2989101
  entropy:             0.6084164
  heat_capacity:       1.2603785
  energy:             28.3475834

- temperature:        90.0000000
  free_energy:        28.2919940
  entropy:             0.7792432
  heat_capacity:       1.6579179
  energy:             28.3621259

- temperature:       100.0000000
  free_energy:        28.2832356
  entropy:             0.9769377
  heat_capacity:       2.1116858
  energy:             28.3809293

- temperature:       110.0000000
  free_energy:        28.2723657
  entropy:             1.2014723
  heat_capacity:       2.6158572
  energy:             28.4045277

- temperature:       120.0000000
  free_energy:        28.2591185
  entropy:             1.4522894
  heat_capacity:       3.1640456
  energy:             28.4333932

- temperature:       130.0000000
  free_energy:        28.2432354
  entropy:             1.7284502
  heat_capacity:       3.7498530
  energy:             28.4679340

- temperature:       140.0000000
  free_energy:        28.2244690
  entropy:             2.0287587
  heat_capacity:       4.3671505
  energy:             28.5084952

- temperature:       150.0000000
  free_energy:        28.2025843
  entropy:             2.3518569
  heat_capacity:       5.0102177
  energy:             28.5553628

- temperature:       160.0000000
  free_energy:        28.1773607
  entropy:             2.6962951
  heat_capacity:       5.6738121
  energy:             28.6087679

- temperature:       170.0000000
  free_energy:        28.1485922
  entropy:             3.0605849
  heat_capacity:       6.3531984
  energy:             28.6688916

- temperature:       180.0000000
  free_energy:        28.1160878
  entropy:             3.4432367
  heat_capacity:       7.0441539
  energy:             28.7358704

- temperature:       190.0000000
  free_energy:        28.0796712
  entropy:             3.8427877
  heat_capacity:       7.7429542
  energy:             28.8098008

- temperature:       200.0000000
  free_energy:        28.0391804
  entropy:             4.2578215
  heat_capacity:       8.4463450
  energy:             28.8907447

- temperature:       210.0000000
  free_energy:        27.9944676
  entropy:             4.6869806
  heat_capacity:       9.1515057
  energy:             28.9787336

- temperature:       220.0000000
  free_energy:        27.9453980
  entropy:             5.1289753
  heat_capacity:       9.8560073
  energy:             29.0737726

- temperature:       230.0000000
  free_energy:        27.8918494
  entropy:             5.5825875
  heat_capacity:      10.5577691
  energy:             29.1758446

- temperature:       240.0000000
  free_energy:        27.8337114
  entropy:             6.0466730
  heat_capacity:      11.2550168
  energy:             29.2849129

- temperature:       250.0000000
  free_energy:        27.7708846
  entropy:             6.5201606
  heat_capacity:      11.9462427
  energy:             29.4009248

- temperature:       260.0000000
  free_energy:        27.7032802
  entropy:             7.0020509
  heat_capacity:      12.6301705
  energy:             29.5238134

- temperature:       270.0000000
  free_energy:        27.6308187
  entropy:             7.4914132
  heat_capacity:      13.3057239
  energy:             29.6535003

- temperature:       280.0000000
  free_energy:        27.5534299
  entropy:             7.9873823
  heat_capacity:      13.9719987
  energy:             29.7898969

- temperature:       290.0000000
  free_energy:        27.4710517
  entropy:             8.4891553
  heat_capacity:      14.6282399
  energy:             29.9329068

- temperature:       300.0000000
  free_energy:        27.3836299
  entropy:             8.9959876
  heat_capacity:      15.2738217
  energy:             30.0824262

- temperature:       310.0000000
  free_energy:        27.2911174
  entropy:             9.5071888
  heat_capacity:      15.9082299
  energy:             30.2383460

- temperature:       320.0000000
  free_energy:        27.1934737
  entropy:            10.0221201
  heat_capacity:      16.5310482
  energy:             30.4005522

- temperature:       330.0000000
  free_energy:        27.0906646
  entropy:            10.5401897
  heat_capacity:      17.1419457
  energy:             30.5689272

- temperature:       340.0000000
  free_energy:        26.9826613
  entropy:            11.0608505
  heat_capacity:      17.7406661
  energy:             30.7433505

- temperature:       350.0000000
  free_energy:        26.8694406
  entropy:            11.5835962
  heat_capacity:      18.3270193
  energy:             30.9236993

- temperature:       360.0000000
  free_energy:        26.7509840
  entropy:            12.1079589
  heat_capacity:      18.9008732
  energy:             31.1098492

- temperature:       370.0000000
  free_energy:        26.6272775
  entropy:            12.6335062
  heat_capacity:      19.4621474
  energy:             31.3016748

- temperature:       380.0000000
  free_energy:        26.4983113
  entropy:            13.1598390
  heat_capacity:      20.0108065
  energy:             31.4990501

- temperature:       390.0000000
  free_energy:        26.3640793
  entropy:            13.6865886
  heat_capacity:      20.5468558
  energy:             31.7018489

- temperature:       400.0000000
  free_energy:        26.2245792
  entropy:            14.2134152
  heat_capacity:      21.0703359
  energy:             31.9099453

- temperature:       410.0000000
  free_energy:        26.0798118
  entropy:            14.7400052
  heat_capacity:      21.5813189
  energy:             32.1232139

- temperature:       420.0000000
  free_energy:        25.9297809
  entropy:            15.2660702
  heat_capacity:      22.0799045
  energy:             32.3415303

- temperature:       430.0000000
  free_energy:        25.7744930
  entropy:            15.7913444
  heat_capacity:      22.5662165
  energy:             32.5647711

- temperature:       440.0000000
  free_energy:        25.6139574
  entropy:            16.3155837
  heat_capacity:      23.0404002
  energy:             32.7928142

- temperature:       450.0000000
  free_energy:        25.4481856
  entropy:            16.8385637
  heat_capacity:      23.5026188
  energy:             33.0255392

- temperature:       460.0000000
  free_energy:        25.2771910
  entropy:            17.3600789
  heat_capacity:      23.9530516
  energy:             33.2628273

- temperature:       470.0000000
  free_energy:        25.1009895
  entropy:            17.8799407
  heat_capacity:      24.3918914
  energy:             33.5045616

- temperature:       480.0000000
  free_energy:        24.9195983
  entropy:            18.3979768
  heat_capacity:      24.8193422
  energy:             33.7506272

- temperature:       490.0000000
  free_energy:        24.7330366
  entropy:            18.9140299
  heat_capacity:      25.2356178
  energy:             34.0009112

- temperature:       500.0000000
  free_energy:        24.5413248
  entropy:            19.4279565
  heat_capacity:      25.6409395
  energy:             34.2553030

- temperature:       510.0000000
  free_energy:        24.3444850
  entropy:            19.9396261
  heat_capacity:      26.0355349
  energy:             34.5136943

- temperature:       520.0000000
  free_energy:        24.1425402
  entropy:            20.4489203
  heat_capacity:      26.4196364
  energy:             34.7759788

- temperature:       530.0000000
  free_energy:        23.9355148
  entropy:            20.9557320
  heat_capacity:      26.7934799
  energy:             35.0420528

- temperature:       540.0000000
  free_energy:        23.7234342
  entropy:            21.4599644
  heat_capacity:      27.1573037
  energy:             35.3118150

- temperature:       550.0000000
  free_energy:        23.5063244
  entropy:            21.9615306
  heat_capacity:      27.5113472
  energy:             35.5851663

- temperature:       560.0000000
  free_energy:        23.2842127
  entropy:            22.4603525
  heat_capacity:      27.8558508
  energy:             35.8620101

- temperature:       570.0000000
  free_energy:        23.0571268
  entropy:            22.9563605
  heat_capacity:      28.1910539
  energy:             36.1422523

- temperature:       580.0000000
  free_energy:        22.8250951
  entropy:            23.4494929
  heat_capacity:      28.5171951
  energy:             36.4258010

- temperature:       590.0000000
  free_energy:        22.5881467
  entropy:            23.9396951
  heat_capacity:      28.8345114
  energy:             36.7125668

- temperature:       600.0000000
  free_energy:        22.3463111
  entropy:            24.4269191
  heat_capacity:      29.1432372
  energy:             37.0024626

- temperature:       610.0000000
  free_energy:        22.0996184
  entropy:            24.9111234
  heat_capacity:      29.4436045
  energy:             37.2954036

- temperature:       620.0000000
  free_energy:        21.8480988
  entropy:            25.3922721
  heat_capacity:      29.7358418
  energy:             37.5913076

- temperature:       630.0000000
  free_energy:        21.5917832
  entropy:            25.8703348
  heat_capacity:      30.0201743
  energy:             37.8900941

- temperature:       640.0000000
  free_energy:        21.3307025
  entropy:            26.3452858
  heat_capacity:      30.2968232
  energy:             38.1916854

- temperature:       650.0000000
  free_energy:        21.0648879
  entropy:            26.8171043
  heat_capacity:      30.5660057
  energy:             38.4960057

- temperature:       660.0000000
  free_energy:        20.7943709
  entropy:            27.2857734
  heat_capacity:      30.8279348
  energy:             38.8029814

- temperature:       670.0000000
  free_energy:        20.5191830
  entropy:            27.7512805
  heat_capacity:      31.0828189
  energy:             39.1125409

- temperature:       680.0000000
  free_energy:        20.2393559
  entropy:            28.2136163
  heat_capacity:      31.3308618
  energy:             39.4246149

- temperature:       690.0000000
  free_energy:        19.9549213
  entropy:            28.6727750
  heat_capacity:      31.5722627
  energy:             39.7391360

- temperature:       700.0000000
  free_energy:        19.6659110
  entropy:            29.1287539
  heat_capacity:      31.8072159
  energy:             40.0560387

- temperature:       710.0000000
  free_energy:        19.3723568
  entropy:            29.5815531
  heat_capacity:      32.0359112
  energy:             40.3752595

- temperature:       720.0000000
  free_energy:        19.0742905
  entropy:            30.0311752
  heat_capacity:      32.2585332
  energy:             40.6967367

- temperature:       730.0000000
  free_energy:        18.7717439
  entropy:            30.4776255
  heat_capacity:      32.4752619
  energy:             41.0204105

- temperature:       740.0000000
  free_energy:        18.4647485
  entropy:            30.9209112
  heat_capacity:      32.6862723
  energy:             41.3462229

- temperature:       750.0000000
  free_energy:        18.1533362
  entropy:            31.3610417
  heat_capacity:      32.8917348
  energy:             41.6741175

- temperature:       760.0000000
  free_energy:        17.8375382
  entropy:            31.7980282
  heat_capacity:      33.0918148
  energy:             42.0040396

- temperature:       770.0000000
  free_energy:        17.5173860
  entropy:            32.2318835
  heat_capacity:      33.2866732
  energy:             42.3359363

- temperature:       780.0000000
  free_energy:        17.1929109
  entropy:            32.6626222
  heat_capacity:      33.4764662
  energy:             42.6697562

- temperature:       790.0000000
  free_energy:        16.8641439
  entropy:            33.0902600
  heat_capacity:      33.6613454
  energy:             43.0054493

- temperature:       800.0000000
  free_energy:        16.5311160
  entropy:            33.5148140
  heat_capacity:      33.8414580
  energy:             43.3429672

- temperature:       810.0000000
  free_energy:        16.1938579
  entropy:            33.9363027
  heat_capacity:      34.0169466
  energy:             43.6822630

- temperature:       820.0000000
  free_energy:        15.8524001
  entropy:            34.3547453
  heat_capacity:      34.1879498
  energy:             44.0232912

- temperature:       830.0000000
  free_energy:        15.5067730
  entropy:            34.7701620
  heat_capacity:      34.3546016
  energy:             44.3660075

- temperature:       840.0000000
  free_energy:        15.1570069
  entropy:            35.1825742
  heat_capacity:      34.5170322
  energy:             44.7103692

- temperature:       850.0000000
  free_energy:        14.8031315
  entropy:            35.5920036
  heat_capacity:      34.6753675
  energy:             45.0563345

- temperature:       860.0000000
  free_energy:        14.4451767
  entropy:            35.9984728
  heat_capacity:      34.8297298
  energy:             45.4038633

- temperature:       870.0000000
  free_energy:        14.0831718
  entropy:            36.4020051
  heat_capacity:      34.9802372
  energy:             45.7529163

- temperature:       880.0000000
  free_energy:        13.7171463
  entropy:            36.8026242
  heat_capacity:      35.1270044
  energy:             46.1034555

- temperature:       890.0000000
  free_energy:        13.3471290
  entropy:            37.2003542
  heat_capacity:      35.2701422
  energy:             46.4554443

- temperature:       900.0000000
  free_energy:        12.9731487
  entropy:            37.5952199
  heat_capacity:      35.4097581
  energy:             46.8088467

- temperature:       910.0000000
  free_energy:        12.5952340
  entropy:            37.9872461
  heat_capacity:      35.5459560
  energy:             47.1636280

- temperature:       920.0000000
  free_energy:        12.2134132
  entropy:            38.3764582
  heat_capacity:      35.6788366
  energy:             47.5197547

- temperature:       930.0000000
  free_energy:        11.8277142
  entropy:            38.7628816
  heat_capacity:      35.8084974
  energy:             47.8771940

- temperature:       940.0000000
  free_energy:        11.4381648
  entropy:            39.1465420
  heat_capacity:      35.9350327
  energy:             48.2359142

- temperature:       950.0000000
  free_energy:        11.0447925
  entropy:            39.5274654
  heat_capacity:      36.0585337
  energy:             48.5958846

- temperature:       960.0000000
  free_energy:        10.6476245
  entropy:            39.9056777
  heat_capacity:      36.1790888
  energy:             48.9570751

- temperature:       970.0000000
  free_energy:        10.2466879
  entropy:            40.2812051
  heat_capacity:      36.2967835
  energy:             49.3194568

- temperature:       980.0000000
  free_energy:         9.8420093
  entropy:            40.6540737
  heat_capacity:      36.4117006
  energy:             49.6830015

- temperature:       990.0000000
  free_energy:         9.4336152
  entropy:            41.0243098
  heat_capacity:      36.5239201
  energy:             50.0476818

- temperature:      1000.0000000
  free_energy:         9.0215318
  entropy:            41.3919394
  heat_capacity:      36.6335195
  energy:             50.4134712
