# Thermal properties / unit cell (natom)

unit:
  temperature:   K
  free_energy:   kJ/mol
  entropy:       J/K/mol
  heat_capacity: J/K/mol

natom:     2
num_modes: 1944
num_integrated_modes: 1756

zero_point_energy:      28.9925335
high_T_entropy:        105.3863489

thermal_properties:
- temperature:         0.0000000
  free_energy:        28.9925335
  entropy:             0.0000000
  heat_capacity:       0.0000000
  energy:             28.9925335

- temperature:        10.0000000
  free_energy:        28.9921858
  entropy:             0.0821477
  heat_capacity:       0.0843170
  energy:             28.9930073

- temperature:        20.0000000
  free_energy:        28.9910139
  entropy:             0.1470265
  heat_capacity:       0.1058692
  energy:             28.9939544

- temperature:        30.0000000
  free_energy:        28.9892804
  entropy:             0.2007344
  heat_capacity:       0.1764855
  energy:             28.9953024

- temperature:        40.0000000
  free_energy:        28.9869470
  entropy:             0.2694123
  heat_capacity:       0.3181035
  energy:             28.9977235

- temperature:        50.0000000
  free_energy:        28.9838164
  entropy:             0.3606261
  heat_capacity:       0.5152209
  energy:             29.0018477

- temperature:        60.0000000
  free_energy:        28.9796551
  entropy:             0.4756622
  heat_capacity:       0.7626052
  energy:             29.0081948

- temperature:        70.0000000
  free_energy:        28.9742222
  entropy:             0.6150068
  heat_capacity:       1.0618509
  energy:             29.0172727

- temperature:        80.0000000
  free_energy:        28.9672719
  entropy:             0.7792653
  heat_capacity:       1.4154170
  energy:             29.0296131

- temperature:        90.0000000
  free_energy:        28.9585518
  entropy:             0.9690312
  heat_capacity:       1.8239885
  energy:             29.0457646

- temperature:       100.0000000
  free_energy:        28.9478050
  entropy:             1.1846556
  heat_capacity:       2.2857996
  energy:             29.0662706

- temperature:       110.0000000
  free_energy:        28.9347726
  entropy:             1.4261156
  heat_capacity:       2.7969531
  energy:             29.0916453

- temperature:       120.0000000
  free_energy:        28.9191979
  entropy:             1.6929869
  heat_capacity:       3.3521059
  energy:             29.1223564

- temperature:       130.0000000
  free_energy:        28.9008307
  entropy:             1.9844854
  heat_capacity:       3.9451782
  energy:             29.1588138

- temperature:       140.0000000
  free_energy:        28.8794297
  entropy:             2.2995418
  heat_capacity:       4.5699413
  energy:             29.2013655

- temperature:       150.0000000
  free_energy:        28.8547656
  entropy:             2.6368853
  heat_capacity:       5.2204409
  energy:             29.2502984

- temperature:       160.0000000
  free_energy:        28.8266223
  entropy:             2.9951230
  heat_capacity:       5.8912597
  energy:             29.3058420

- temperature:       170.0000000
  free_energy:        28.7947983
  entropy:             3.3728064
  heat_capacity:       6.5776452
  energy:             29.3681754

- temperature:       180.0000000
  free_energy:        28.7591062
  entropy:             3.7684832
  heat_capacity:       7.2755369
  energy:             29.4374332

- temperature:       190.0000000
  free_energy:        28.7193734
  entropy:             4.1807350
  heat_capacity:       7.9815257
  energy:             29.5137130

- temperature:       200.0000000
  free_energy:        28.6754408
  entropy:             4.6082019
  heat_capacity:       8.6927764
  energy:             29.5970812

- temperature:       210.0000000
  free_energy:        28.6271629
  entropy:             5.0495966
  heat_capacity:       9.4069350
  energy:             29.6875782

- temperature:       220.0000000
  free_energy:        28.5744065
  entropy:             5.5037114
  heat_capacity:      10.1220348
  energy:             29.7852230

- temperature:       230.0000000
  free_energy:        28.5170501
  entropy:             5.9694192
  heat_capacity:      10.8364129
  energy:             29.8900165

- temperature:       240.0000000
  free_energy:        28.4549830
  entropy:             6.4456712
  heat_capacity:      11.5486399
  energy:             30.0019441

- temperature:       250.0000000
  free_energy:        28.3881047
  entropy:             6.9314927
  heat_capacity:      12.2574639
  energy:             30.1209779

- temperature:       260.0000000
  free_energy:        28.3163243
  entropy:             7.4259770
  heat_capacity:      12.9617693
  energy:             30.2470783

- temperature:       270.0000000
  free_energy:        28.2395591
  entropy:             7.9282804
  heat_capacity:      13.6605471
  energy:             30.3801949

- temperature:       280.0000000
  free_energy:        28.1577352
  entropy:             8.4376161
  heat_capacity:      14.3528749
  energy:             30.5202677

- temperature:       290.0000000
  free_energy:        28.0707858
  entropy:             8.9532489
  heat_capacity:      15.0379050
  energy:             30.6672280

- temperature:       300.0000000
  free_energy:        27.9786515
  entropy:             9.4744911
  heat_capacity:      15.7148562
  energy:             30.8209989

- temperature:       310.0000000
  free_energy:        27.8812795
  entropy:            10.0006979
  heat_capacity:      16.3830114
  energy:             30.9814958

- temperature:       320.0000000
  free_energy:        27.7786230
  entropy:            10.5312642
  heat_capacity:      17.0417149
  energy:             31.1486276

- temperature:       330.0000000
  free_energy:        27.6706416
  entropy:            11.0656215
  heat_capacity:      17.6903729
  energy:             31.3222966

- temperature:       340.0000000
  free_energy:        27.5572998
  entropy:            11.6032353
  heat_capacity:      18.3284531
  energy:             31.5023998

- temperature:       350.0000000
  free_energy:        27.4385677
  entropy:            12.1436034
  heat_capacity:      18.9554846
  energy:             31.6888289

- temperature:       360.0000000
  free_energy:        27.3144201
  entropy:            12.6862533
  heat_capacity:      19.5710580
  energy:             31.8814713

- temperature:       370.0000000
  free_energy:        27.1848365
  entropy:            13.2307410
  heat_capacity:      20.1748238
  energy:             32.0802107

- temperature:       380.0000000
  free_energy:        27.0498005
  entropy:            13.7766497
  heat_capacity:      20.7664912
  energy:             32.2849274

- temperature:       390.0000000
  free_energy:        26.9093001
  entropy:            14.3235880
  heat_capacity:      21.3458264
  energy:             32.4954994

- temperature:       400.0000000
  free_energy:        26.7633266
  entropy:            14.8711891
  heat_capacity:      21.9126495
  energy:             32.7118022

- temperature:       410.0000000
  free_energy:        26.6118752
  entropy:            15.4191098
  heat_capacity:      22.4668319
  energy:             32.9337102

- temperature:       420.0000000
  free_energy:        26.4549444
  entropy:            15.9670287
  heat_capacity:      23.0082931
  energy:             33.1610965

- temperature:       430.0000000
  free_energy:        26.2925356
  entropy:            16.5146463
  heat_capacity:      23.5369973
  energy:             33.3938335

- temperature:       440.0000000
  free_energy:        26.1246534
  entropy:            17.0616829
  heat_capacity:      24.0529495
  energy:             33.6317939

- temperature:       450.0000000
  free_energy:        25.9513048
  entropy:            17.6078786
  heat_capacity:      24.5561924
  energy:             33.8748502

- temperature:       460.0000000
  free_energy:        25.7724994
  entropy:            18.1529917
  heat_capacity:      25.0468024
  energy:             34.1228756

- temperature:       470.0000000
  free_energy:        25.5882493
  entropy:            18.6967982
  heat_capacity:      25.5248864
  energy:             34.3757445

- temperature:       480.0000000
  free_energy:        25.3985685
  entropy:            19.2390907
  heat_capacity:      25.9905782
  energy:             34.6333320

- temperature:       490.0000000
  free_energy:        25.2034732
  entropy:            19.7796777
  heat_capacity:      26.4440353
  energy:             34.8955152

- temperature:       500.0000000
  free_energy:        25.0029812
  entropy:            20.3183826
  heat_capacity:      26.8854358
  energy:             35.1621726

- temperature:       510.0000000
  free_energy:        24.7971124
  entropy:            20.8550433
  heat_capacity:      27.3149758
  energy:             35.4331844

- temperature:       520.0000000
  free_energy:        24.5858877
  entropy:            21.3895107
  heat_capacity:      27.7328661
  energy:             35.7084332

- temperature:       530.0000000
  free_energy:        24.3693299
  entropy:            21.9216486
  heat_capacity:      28.1393304
  energy:             35.9878037

- temperature:       540.0000000
  free_energy:        24.1474629
  entropy:            22.4513327
  heat_capacity:      28.5346028
  energy:             36.2711825

- temperature:       550.0000000
  free_energy:        23.9203118
  entropy:            22.9784498
  heat_capacity:      28.9189255
  energy:             36.5584592

- temperature:       560.0000000
  free_energy:        23.6879028
  entropy:            23.5028975
  heat_capacity:      29.2925470
  energy:             36.8495254

- temperature:       570.0000000
  free_energy:        23.4502631
  entropy:            24.0245829
  heat_capacity:      29.6557209
  energy:             37.1442753

- temperature:       580.0000000
  free_energy:        23.2074206
  entropy:            24.5434228
  heat_capacity:      30.0087037
  energy:             37.4426058

- temperature:       590.0000000
  free_energy:        22.9594043
  entropy:            25.0593423
  heat_capacity:      30.3517538
  energy:             37.7444163

- temperature:       600.0000000
  free_energy:        22.7062437
  entropy:            25.5722749
  heat_capacity:      30.6851304
  energy:             38.0496087

- temperature:       610.0000000
  free_energy:        22.4479690
  entropy:            26.0821615
  heat_capacity:      31.0090921
  energy:             38.3580875

- temperature:       620.0000000
  free_energy:        22.1846108
  entropy:            26.5889502
  heat_capacity:      31.3238964
  energy:             38.6697600

- temperature:       630.0000000
  free_energy:        21.9162005
  entropy:            27.0925957
  heat_capacity:      31.6297985
  energy:             38.9845358

- temperature:       640.0000000
  free_energy:        21.6427695
  entropy:            27.5930587
  heat_capacity:      31.9270509
  energy:             39.3023271

- temperature:       650.0000000
  free_energy:        21.3643500
  entropy:            28.0903058
  heat_capacity:      32.2159028
  energy:             39.6230488

- temperature:       660.0000000
  free_energy:        21.0809742
  entropy:            28.5843087
  heat_capacity:      32.4965995
  energy:             39.9466180

- temperature:       670.0000000
  free_energy:        20.7926747
  entropy:            29.0750443
  heat_capacity:      32.7693817
  energy:             40.2729544

- temperature:       680.0000000
  free_energy:        20.4994843
  entropy:            29.5624937
  heat_capacity:      33.0344858
  energy:             40.6019800

- temperature:       690.0000000
  free_energy:        20.2014359
  entropy:            30.0466426
  heat_capacity:      33.2921432
  energy:             40.9336193

- temperature:       700.0000000
  free_energy:        19.8985625
  entropy:            30.5274805
  heat_capacity:      33.5425799
  energy:             41.2677988

- temperature:       710.0000000
  free_energy:        19.5908973
  entropy:            31.0050003
  heat_capacity:      33.7860169
  energy:             41.6044476

- temperature:       720.0000000
  free_energy:        19.2784736
  entropy:            31.4791986
  heat_capacity:      34.0226696
  energy:             41.9434966

- temperature:       730.0000000
  free_energy:        18.9613244
  entropy:            31.9500748
  heat_capacity:      34.2527477
  energy:             42.2848790

- temperature:       740.0000000
  free_energy:        18.6394831
  entropy:            32.4176313
  heat_capacity:      34.4764555
  energy:             42.6285303

- temperature:       750.0000000
  free_energy:        18.3129828
  entropy:            32.8818730
  heat_capacity:      34.6939917
  energy:             42.9743876

- temperature:       760.0000000
  free_energy:        17.9818567
  entropy:            33.3428072
  heat_capacity:      34.9055492
  energy:             43.3223902

- temperature:       770.0000000
  free_energy:        17.6461377
  entropy:            33.8004436
  heat_capacity:      35.1113154
  energy:             43.6724793

- temperature:       780.0000000
  free_energy:        17.3058588
  entropy:            34.2547936
  heat_capacity:      35.3114722
  energy:             44.0245978

- temperature:       790.0000000
  free_energy:        16.9610527
  entropy:            34.7058707
  heat_capacity:      35.5061960
  energy:             44.3786906

- temperature:       800.0000000
  free_energy:        16.6117522
  entropy:            35.1536899
  heat_capacity:      35.6956577
  energy:             44.7347042

- temperature:       810.0000000
  free_energy:        16.2579897
  entropy:            35.5982679
  heat_capacity:      35.8800230
  energy:             45.0925868

- temperature:       820.0000000
  free_energy:        15.8997976
  entropy:            36.0396226
  heat_capacity:      36.0594523
  energy:             45.4522882

- temperature:       830.0000000
  free_energy:        15.5372080
  entropy:            36.4777734
  heat_capacity:      36.2341008
  energy:             45.8137599

- temperature:       840.0000000
  free_energy:        15.1702528
  entropy:            36.9127405
  heat_capacity:      36.4041190
  energy:             46.1769548

- temperature:       850.0000000
  free_energy:        14.7989637
  entropy:            37.3445454
  heat_capacity:      36.5696523
  energy:             46.5418273

- temperature:       860.0000000
  free_energy:        14.4233723
  entropy:            37.7732105
  heat_capacity:      36.7308412
  energy:             46.9083333

- temperature:       870.0000000
  free_energy:        14.0435099
  entropy:            38.1987589
  heat_capacity:      36.8878219
  energy:             47.2764301

- temperature:       880.0000000
  free_energy:        13.6594074
  entropy:            38.6212145
  heat_capacity:      37.0407259
  energy:             47.6460762

- temperature:       890.0000000
  free_energy:        13.2710958
  entropy:            39.0406018
  heat_capacity:      37.1896802
  energy:             48.0172314

- temperature:       900.0000000
  free_energy:        12.8786055
  entropy:            39.4569461
  heat_capacity:      37.3348078
  energy:             48.3898570

- temperature:       910.0000000
  free_energy:        12.4819669
  entropy:            39.8702728
  heat_capacity:      37.4762273
  energy:             48.7639152

- temperature:       920.0000000
  free_energy:        12.0812101
  entropy:            40.2806082
  heat_capacity:      37.6140537
  energy:             49.1393696

- temperature:       930.0000000
  free_energy:        11.6763647
  entropy:            40.6879785
  heat_capacity:      37.7483976
  energy:             49.5161847

- temperature:       940.0000000
  free_energy:        11.2674603
  entropy:            41.0924106
  heat_capacity:      37.8793662
  energy:             49.8943263

- temperature:       950.0000000
  free_energy:        10.8545262
  entropy:            41.4939315
  heat_capacity:      38.0070630
  energy:             50.2737611

- temperature:       960.0000000
  free_energy:        10.4375913
  entropy:            41.8925685
  heat_capacity:      38.1315880
  energy:             50.6544570

- temperature:       970.0000000
  free_energy:        10.0166843
  entropy:            42.2883488
  heat_capacity:      38.2530377
  energy:             51.0363826

- temperature:       980.0000000
  free_energy:         9.5918337
  entropy:            42.6813001
  heat_capacity:      38.3715054
  energy:             51.4195078

- temperature:       990.0000000
  free_energy:         9.1630676
  entropy:            43.0714500
  heat_capacity:      38.4870811
  energy:             51.8038031

- temperature:      1000.0000000
  free_energy:         8.7304140
  entropy:            43.4588261
  heat_capacity:      38.5998520
  energy:             52.1892401
