    4    4  200    1
  0.8294063E+01  0.2466437E-09  0.2466437E-09  0.6300163E-09  0.5000000E-15
  1.000000000000000E-004
  CAR 
 graphite                                
     16    215     12
 
  0.0000000E+00  0.0000000E+00  0.0000000E+00  0.8680556E-03
    1      -14.464447
    2      -13.984177
    3       -3.548135
    4       -0.875115
    5        2.244510
    6        2.261008
    7        2.280007
    8        2.295380
    9       10.166334
   10       13.573898
   11       13.580455
   12       13.662187
 
  0.8333333E-01  0.6938894E-17  0.0000000E+00  0.3472222E-02
    1      -14.298013
    2      -13.822219
    3       -3.346077
    4       -0.689951
    5        1.591283
    6        1.652489
    7        1.901158
    8        1.953591
    9       10.359297
   10       13.616002
   11       13.750846
   12       14.294593
 
  0.1666667E+00  0.1387779E-16  0.0000000E+00  0.3472222E-02
    1      -13.800572
    2      -13.338081
    3       -2.743971
    4       -0.141491
    5       -0.075368
    6        0.037683
    7        1.096937
    8        1.170969
    9       10.940158
   10       13.485569
   11       13.770634
   12       14.317470
 
  0.2500000E+00  0.2775558E-16  0.0000000E+00  0.3472222E-02
    1      -12.978016
    2      -12.537407
    3       -2.205783
    4       -2.035450
    5       -1.756481
    6        0.209895
    7        0.297377
    8        0.743303
    9       11.894948
   10       12.055965
   11       12.971750
   12       13.127698
 
  0.3333333E+00  0.2775558E-16  0.0000000E+00  0.3472222E-02
    1      -11.842606
    2      -11.432461
    3       -4.439864
    4       -4.214260
    5       -0.527568
    6       -0.432586
    7       -0.420483
    8        1.888258
    9        9.597135
   10       10.851733
   11       12.683436
   12       13.071031
 
  0.4166667E+00  0.5551115E-16  0.0000000E+00  0.3472222E-02
    1      -10.424358
    2      -10.056338
    3       -6.564867
    4       -6.294304
    5       -1.002440
    6       -0.903585
    7        1.152606
    8        3.006382
    9        7.501381
   10        8.830805
   11       12.438553
   12       13.026299
 
  0.5000000E+00  0.5551115E-16  0.0000000E+00  0.1736111E-02
    1       -9.087874
    2       -8.904304
    3       -7.984638
    4       -7.849025
    5       -1.165419
    6       -1.065298
    7        2.293036
    8        3.234999
    9        6.822363
   10        7.638962
   11       12.343723
   12       12.959698
 
  0.8333333E-01  0.8333333E-01  0.0000000E+00  0.1736111E-02
    1      -13.965858
    2      -13.498946
    3       -2.943666
    4       -0.322708
    5        0.556453
    6        0.613758
    7        1.228296
    8        1.271871
    9       10.748729
   10       13.890712
   11       14.062465
   12       14.864646
 
  0.1666667E+00  0.8333333E-01  0.0000000E+00  0.3472222E-02
    1      -13.305618
    2      -12.856304
    3       -2.147870
    4       -1.188122
    5       -1.069439
    6        0.212475
    7        0.291673
    8        0.396206
    9       11.528073
   10       13.010039
   11       13.672205
   12       13.944585
 
  0.2500000E+00  0.8333333E-01  0.0000000E+00  0.3472222E-02
    1      -12.326245
    2      -11.903054
    3       -3.298745
    4       -3.111066
    5       -0.981757
    6       -0.687829
    7       -0.582645
    8        1.423147
    9       10.714020
   10       11.697054
   11       12.669873
   12       13.625756
 
  0.3333333E+00  0.8333333E-01  0.0000000E+00  0.3472222E-02
    1      -11.046448
    2      -10.658472
    3       -5.452396
    4       -5.208260
    5       -1.329551
    6       -1.212616
    7        0.494455
    8        2.622392
    9        8.413227
   10        9.664792
   11       13.255214
   12       13.781541
 
  0.4166667E+00  0.8333333E-01  0.0000000E+00  0.3472222E-02
    1       -9.535534
    2       -9.211831
    3       -7.403896
    4       -7.138573
    5       -1.661261
    6       -1.539694
    7        2.046504
    8        3.404838
    9        6.922470
   10        7.911240
   11       13.076789
   12       13.705717
 
  0.5000000E+00  0.8333333E-01  0.0000000E+00  0.3472222E-02
    1       -9.537947
    2       -9.214084
    3       -7.401214
    4       -7.135605
    5       -1.662135
    6       -1.540526
    7        2.044931
    8        3.404801
    9        6.921437
   10        7.913870
   11       13.077781
   12       13.706722
 
 -0.4166667E+00  0.8333333E-01  0.0000000E+00  0.3472222E-02
    1      -11.048627
    2      -10.660622
    3       -5.448900
    4       -5.204634
    5       -1.331963
    6       -1.214952
    7        0.492555
    8        2.620946
    9        8.412881
   10        9.668122
   11       13.258098
   12       13.783304
 
 -0.3333333E+00  0.8333333E-01  0.0000000E+00  0.3472222E-02
    1      -12.327948
    2      -11.904748
    3       -3.295412
    4       -3.107572
    5       -0.983392
    6       -0.691061
    7       -0.585778
    8        1.421623
    9       10.712295
   10       11.700264
   11       12.667643
   12       13.630216
 
 -0.2500000E+00  0.8333333E-01  0.0000000E+00  0.3472222E-02
    1      -13.306831
    2      -12.857508
    3       -2.149097
    4       -1.187137
    5       -1.068363
    6        0.211338
    7        0.290258
    8        0.395007
    9       11.526336
   10       13.005811
   11       13.675053
   12       13.950361
 
 -0.1666667E+00  0.8333333E-01  0.0000000E+00  0.3472222E-02
    1      -13.966585
    2      -13.499665
    3       -2.944415
    4       -0.323455
    5        0.548352
    6        0.607026
    7        1.235662
    8        1.279162
    9       10.747627
   10       13.897501
   11       14.071202
   12       14.854332
 
 -0.8333333E-01  0.8333333E-01  0.0000000E+00  0.1736111E-02
    1      -14.298255
    2      -13.822458
    3       -3.346331
    4       -0.690205
    5        1.578465
    6        1.640323
    7        1.914009
    8        1.965984
    9       10.358911
   10       13.620125
   11       13.755410
   12       14.271561
 
  0.1666667E+00  0.1666667E+00  0.0000000E+00  0.1736111E-02
    1      -12.488530
    2      -12.061013
    3       -2.512557
    4       -2.419098
    5       -1.170856
    6       -1.141878
    7       -1.073497
    8        1.264222
    9       11.264739
   10       11.962878
   11       12.506645
   12       15.119516
 
  0.2500000E+00  0.1666667E+00  0.0000000E+00  0.3472222E-02
    1      -11.363494
    2      -10.966427
    3       -4.282681
    4       -4.106901
    5       -2.228792
    6       -2.104954
    7        0.151548
    8        2.395836
    9        9.233082
   10       10.117910
   11       13.838488
   12       15.199070
 
  0.3333333E+00  0.1666667E+00  0.0000000E+00  0.3472222E-02
    1       -9.964496
    2       -9.610022
    3       -6.228649
    4       -5.983492
    5       -2.823844
    6       -2.667840
    7        1.718138
    8        3.547010
    9        7.324531
   10        8.334104
   11       14.908601
   12       15.432772
 
  0.4166667E+00  0.1666667E+00  0.0000000E+00  0.3472222E-02
    1       -8.661371
    2       -8.484357
    3       -7.579758
    4       -7.460352
    5       -3.014319
    6       -2.850677
    7        2.888693
    8        3.808858
    9        6.786721
   10        7.091845
   11       14.820594
   12       15.587315
 
  0.5000000E+00  0.1666667E+00  0.0000000E+00  0.3472222E-02
    1       -9.969261
    2       -9.614753
    3       -6.222331
    4       -5.976749
    5       -2.826402
    6       -2.670231
    7        1.714430
    8        3.544898
    9        7.321636
   10        8.341725
   11       14.911384
   12       15.427144
 
 -0.4166667E+00  0.1666667E+00  0.0000000E+00  0.3472222E-02
    1      -11.367377
    2      -10.970313
    3       -4.276974
    4       -4.100633
    5       -2.232199
    6       -2.108148
    7        0.148038
    8        2.392567
    9        9.228555
   10       10.125742
   11       13.833130
   12       15.205120
 
 -0.3333333E+00  0.1666667E+00  0.0000000E+00  0.3472222E-02
    1      -12.491444
    2      -12.063914
    3       -2.514274
    4       -2.418615
    5       -1.173690
    6       -1.140191
    7       -1.070690
    8        1.261382
    9       11.256323
   10       11.969453
   11       12.502641
   12       15.139178
 
 -0.2500000E+00  0.1666667E+00  0.0000000E+00  0.3472222E-02
    1      -13.307553
    2      -12.858227
    3       -2.149836
    4       -1.198309
    5       -1.078297
    6        0.223151
    7        0.302720
    8        0.394202
    9       11.525392
   10       13.000635
   11       13.674692
   12       13.970221
 
 -0.1666667E+00  0.1666667E+00  0.0000000E+00  0.1736111E-02
    1      -13.801538
    2      -13.339039
    3       -2.744974
    4       -0.142519
    5       -0.088819
    6        0.024778
    7        1.111492
    8        1.185256
    9       10.938780
   10       13.504196
   11       13.788112
   12       14.310413
 
  0.2500000E+00  0.2500000E+00  0.0000000E+00  0.1736111E-02
    1      -10.115030
    2       -9.754091
    3       -5.302233
    4       -5.175027
    5       -3.693052
    6       -3.599593
    7        1.590568
    8        3.571527
    9        7.624644
   10        8.482786
   11       15.298675
   12       17.009557
 
  0.3333333E+00  0.2500000E+00  0.0000000E+00  0.3472222E-02
    1       -8.661042
    2       -8.363565
    3       -6.756904
    4       -6.555559
    5       -4.439098
    6       -4.279098
    7        3.160360
    8        4.526704
    9        6.257100
   10        7.015438
   11       16.773345
   12       16.982424
 
  0.4166667E+00  0.2500000E+00  0.0000000E+00  0.3472222E-02
    1       -8.668358
    2       -8.370596
    3       -6.749715
    4       -6.546601
    5       -4.440182
    6       -4.279935
    7        3.155885
    8        4.526415
    9        6.248208
   10        7.027494
   11       16.768818
   12       16.974006
 
  0.5000000E+00  0.2500000E+00  0.0000000E+00  0.3472222E-02
    1      -10.121594
    2       -9.760708
    3       -5.298805
    4       -5.168614
    5       -3.692438
    6       -3.597135
    7        1.585386
    8        3.566157
    9        7.617412
   10        8.494835
   11       15.289363
   12       17.028384
 
 -0.4166667E+00  0.2500000E+00  0.0000000E+00  0.3472222E-02
    1      -11.368601
    2      -10.971553
    3       -4.287115
    4       -4.109606
    5       -2.220518
    6       -2.095697
    7        0.146969
    8        2.390750
    9        9.224075
   10       10.125254
   11       13.831815
   12       15.236291
 
 -0.3333333E+00  0.2500000E+00  0.0000000E+00  0.3472222E-02
    1      -12.329881
    2      -11.906682
    3       -3.308136
    4       -3.119744
    5       -0.985262
    6       -0.674473
    7       -0.569206
    8        1.419273
    9       10.704214
   10       11.698115
   11       12.665791
   12       13.658870
 
 -0.2500000E+00  0.2500000E+00  0.0000000E+00  0.1736111E-02
    1      -12.980187
    2      -12.539566
    3       -2.218522
    4       -2.047722
    5       -1.758663
    6        0.226148
    7        0.313441
    8        0.740915
    9       11.892425
   10       12.046367
   11       12.969994
   12       13.155225
 
  0.3333333E+00  0.3333333E+00  0.0000000E+00  0.1736111E-02
    1       -7.461585
    2       -7.303112
    3       -7.300369
    4       -7.143082
    5       -5.246278
    6       -5.244794
    7        4.349241
    8        5.189485
    9        5.201881
   10        6.277015
   11       16.684028
   12       16.713587
 
  0.4166667E+00  0.3333333E+00  0.0000000E+00  0.3472222E-02
    1       -8.670912
    2       -8.374171
    3       -6.754816
    4       -6.551957
    5       -4.431606
    6       -4.270447
    7        3.156157
    8        4.515103
    9        6.253219
   10        7.028040
   11       16.781162
   12       16.996513
 
  0.5000000E+00  0.3333333E+00  0.0000000E+00  0.3472222E-02
    1       -9.972423
    2       -9.618192
    3       -6.231945
    4       -5.986180
    5       -2.811494
    6       -2.655260
    7        1.712674
    8        3.537529
    9        7.319520
   10        8.339719
   11       14.944116
   12       15.436577
 
 -0.4166667E+00  0.3333333E+00  0.0000000E+00  0.3472222E-02
    1      -11.052340
    2      -10.664434
    3       -5.459843
    4       -5.215302
    5       -1.314085
    6       -1.197195
    7        0.489522
    8        2.615305
    9        8.406397
   10        9.663787
   11       13.289056
   12       13.810360
 
 -0.3333333E+00  0.3333333E+00  0.0000000E+00  0.1736111E-02
    1      -11.846477
    2      -11.436366
    3       -4.450734
    4       -4.224775
    5       -0.509972
    6       -0.424073
    7       -0.415137
    8        1.883559
    9        9.588419
   10       10.847857
   11       12.710968
   12       13.089257
 
  0.4166667E+00  0.4166667E+00  0.0000000E+00  0.1736111E-02
    1       -8.670614
    2       -8.497563
    3       -7.579519
    4       -7.462678
    5       -2.999871
    6       -2.836221
    7        2.889952
    8        3.788367
    9        6.795184
   10        7.087301
   11       14.857502
   12       15.625118
 
  0.5000000E+00  0.4166667E+00  0.0000000E+00  0.3472222E-02
    1       -9.544634
    2       -9.221939
    3       -7.407636
    4       -7.142721
    5       -1.644264
    6       -1.522802
    7        2.043123
    8        3.389249
    9        6.924617
   10        7.906310
   11       13.112231
   12       13.741285
 
 -0.4166667E+00  0.4166667E+00  0.0000000E+00  0.1736111E-02
    1      -10.430639
    2      -10.062899
    3       -6.572829
    4       -6.302177
    5       -0.984020
    6       -0.885325
    7        1.148342
    8        2.996282
    9        7.498224
   10        8.824750
   11       12.471882
   12       13.059463
 
  0.5000000E+00  0.5000000E+00  0.0000000E+00  0.8680556E-03
    1       -9.097846
    2       -8.918376
    3       -7.985447
    4       -7.852639
    5       -1.146721
    6       -1.046754
    7        2.293833
    8        3.213380
    9        6.830716
   10        7.627031
   11       12.377856
   12       12.993842
 
  0.0000000E+00  0.0000000E+00  0.1250000E+00  0.1736111E-02
    1      -14.447830
    2      -14.004388
    3       -3.463689
    4       -1.005286
    5        2.245811
    6        2.262266
    7        2.278647
    8        2.294064
    9       10.405084
   10       13.574431
   11       13.583371
   12       13.658647
 
  0.8333333E-01  0.6938894E-17  0.1250000E+00  0.6944444E-02
    1      -14.281535
    2      -13.842216
    3       -3.262092
    4       -0.819092
    5        1.593641
    6        1.650164
    7        1.903134
    8        1.951601
    9       10.595660
   10       13.619161
   11       13.746073
   12       14.338035
 
  0.1666667E+00  0.1387779E-16  0.1250000E+00  0.6944444E-02
    1      -13.784492
    2      -13.357441
    3       -2.661512
    4       -0.267814
    5       -0.070801
    6        0.033363
    7        1.099738
    8        1.168165
    9       11.168359
   10       13.488705
   11       13.757045
   12       14.346308
 
  0.2500000E+00  0.2775558E-16  0.1250000E+00  0.6944444E-02
    1      -12.962623
    2      -12.555772
    3       -2.199651
    4       -2.042343
    5       -1.676483
    6        0.213181
    7        0.293905
    8        0.623750
    9       11.984301
   10       12.206155
   11       12.918676
   12       13.147776
 
  0.3333333E+00  0.2775558E-16  0.1250000E+00  0.6944444E-02
    1      -11.828175
    2      -11.449394
    3       -4.431654
    4       -4.223282
    5       -0.523956
    6       -0.436220
    7       -0.345352
    8        1.781138
    9        9.629178
   10       10.790940
   11       12.714716
   12       13.109731
 
  0.4166667E+00  0.5551115E-16  0.1250000E+00  0.6944444E-02
    1      -10.411280
    2      -10.071385
    3       -6.555226
    4       -6.305287
    5       -0.998743
    6       -0.907463
    7        1.218516
    8        2.932801
    9        7.522137
   10        8.756652
   11       12.460510
   12       13.003967
 
  0.5000000E+00  0.5551115E-16  0.1250000E+00  0.3472222E-02
    1       -9.079192
    2       -8.908752
    3       -7.983651
    4       -7.857487
    5       -1.161661
    6       -1.069236
    7        2.343204
    8        3.224191
    9        6.797086
   10        7.563157
   11       12.365779
   12       12.935382
 
  0.8333333E-01  0.8333333E-01  0.1250000E+00  0.3472222E-02
    1      -13.949641
    2      -13.518511
    3       -2.860686
    4       -0.449799
    5        0.558843
    6        0.611817
    7        1.229677
    8        1.269979
    9       10.980330
   10       13.889742
   11       14.055084
   12       14.884668
 
  0.1666667E+00  0.8333333E-01  0.1250000E+00  0.6944444E-02
    1      -13.289957
    2      -12.875057
    3       -2.067052
    4       -1.183632
    5       -1.073868
    6        0.215231
    7        0.273923
    8        0.288489
    9       11.746890
   10       13.029822
   11       13.631370
   12       13.963459
 
  0.2500000E+00  0.8333333E-01  0.1250000E+00  0.6944444E-02
    1      -12.311407
    2      -11.920585
    3       -3.291846
    4       -3.118489
    5       -0.904430
    6       -0.683919
    7       -0.586765
    8        1.309519
    9       10.740929
   10       11.652064
   11       12.873812
   12       13.645608
 
  0.3333333E+00  0.8333333E-01  0.1250000E+00  0.6944444E-02
    1      -11.032744
    2      -10.674418
    3       -5.443571
    4       -5.218050
    5       -1.325209
    6       -1.217217
    7        0.565445
    8        2.527715
    9        8.444684
   10        9.604573
   11       13.279565
   12       13.775148
 
  0.4166667E+00  0.8333333E-01  0.1250000E+00  0.6944444E-02
    1       -9.523755
    2       -9.224664
    3       -7.394871
    4       -7.149686
    5       -1.656747
    6       -1.544418
    7        2.103949
    8        3.368148
    9        6.916342
   10        7.842677
   11       13.098844
   12       13.680310
 
  0.5000000E+00  0.8333333E-01  0.1250000E+00  0.6944444E-02
    1       -9.526168
    2       -9.226932
    3       -7.392178
    4       -7.146726
    5       -1.657620
    6       -1.545264
    7        2.102397
    8        3.367998
    9        6.915511
   10        7.845185
   11       13.099824
   12       13.681271
 
 -0.4166667E+00  0.8333333E-01  0.1250000E+00  0.6944444E-02
    1      -11.034924
    2      -10.676589
    3       -5.440081
    4       -5.214434
    5       -1.327655
    6       -1.219559
    7        0.563551
    8        2.526229
    9        8.444504
   10        9.607741
   11       13.282428
   12       13.777243
 
 -0.3333333E+00  0.8333333E-01  0.1250000E+00  0.6944444E-02
    1      -12.313111
    2      -11.922294
    3       -3.288510
    4       -3.115020
    5       -0.906069
    6       -0.687171
    7       -0.589911
    8        1.307983
    9       10.739447
   10       11.655055
   11       12.871517
   12       13.649999
 
 -0.2500000E+00  0.8333333E-01  0.1250000E+00  0.6944444E-02
    1      -13.291168
    2      -12.876262
    3       -2.068277
    4       -1.182663
    5       -1.072801
    6        0.214079
    7        0.272707
    8        0.287084
    9       11.745201
   10       13.025881
   11       13.634066
   12       13.969172
 
 -0.1666667E+00  0.8333333E-01  0.1250000E+00  0.6944444E-02
    1      -13.950367
    2      -13.519231
    3       -2.861441
    4       -0.450549
    5        0.550781
    6        0.605021
    7        1.237024
    8        1.277267
    9       10.979223
   10       13.896544
   11       14.063765
   12       15.027039
 
 -0.8333333E-01  0.8333333E-01  0.1250000E+00  0.3472222E-02
    1      -14.281778
    2      -13.842455
    3       -3.262347
    4       -0.819347
    5        1.580830
    6        1.637953
    7        1.915969
    8        1.963994
    9       10.595268
   10       13.623262
   11       13.750626
   12       14.277284
 
  0.1666667E+00  0.1666667E+00  0.1250000E+00  0.3472222E-02
    1      -12.473551
    2      -12.078750
    3       -2.508715
    4       -2.422420
    5       -1.139982
    6       -1.092694
    7       -1.076720
    8        1.148572
    9       11.290258
   10       11.929593
   11       12.718017
   12       15.130662
 
  0.2500000E+00  0.1666667E+00  0.1250000E+00  0.6944444E-02
    1      -11.349490
    2      -10.982792
    3       -4.276096
    4       -4.113639
    5       -2.224571
    6       -2.110125
    7        0.224820
    8        2.292317
    9        9.264280
   10       10.081836
   11       14.014249
   12       15.216240
 
  0.3333333E+00  0.1666667E+00  0.1250000E+00  0.6944444E-02
    1       -9.951861
    2       -9.624461
    3       -6.219823
    4       -5.993327
    5       -2.818243
    6       -2.674119
    7        1.782799
    8        3.473547
    9        7.347536
   10        8.285866
   11       14.934598
   12       15.457049
 
  0.4166667E+00  0.1666667E+00  0.1250000E+00  0.6944444E-02
    1       -8.653012
    2       -8.488711
    3       -7.579069
    4       -7.467932
    5       -3.008348
    6       -2.857206
    7        2.938937
    8        3.800778
    9        6.751265
   10        7.050715
   11       14.840797
   12       15.546120
 
  0.5000000E+00  0.1666667E+00  0.1250000E+00  0.6944444E-02
    1       -9.956623
    2       -9.629200
    3       -6.213492
    4       -5.986600
    5       -2.820795
    6       -2.676517
    7        1.779090
    8        3.471285
    9        7.345174
   10        8.293051
   11       14.937325
   12       15.453260
 
 -0.4166667E+00  0.1666667E+00  0.1250000E+00  0.6944444E-02
    1      -11.353380
    2      -10.986676
    3       -4.270371
    4       -4.107405
    5       -2.227974
    6       -2.113335
    7        0.221313
    8        2.289021
    9        9.260202
   10       10.089103
   11       14.008662
   12       15.222196
 
 -0.3333333E+00  0.1666667E+00  0.1250000E+00  0.6944444E-02
    1      -12.476465
    2      -12.081652
    3       -2.510357
    4       -2.422027
    5       -1.138292
    6       -1.095485
    7       -1.073947
    8        1.145731
    9       11.282342
   10       11.935510
   11       12.713995
   12       15.150112
 
 -0.2500000E+00  0.1666667E+00  0.1250000E+00  0.6944444E-02
    1      -13.291890
    2      -12.876980
    3       -2.069018
    4       -1.193786
    5       -1.082795
    6        0.225899
    7        0.271924
    8        0.299522
    9       11.744154
   10       13.021248
   11       13.633987
   12       13.988442
 
 -0.1666667E+00  0.1666667E+00  0.1250000E+00  0.3472222E-02
    1      -13.785458
    2      -13.358398
    3       -2.662512
    4       -0.268848
    5       -0.084234
    6        0.020421
    7        1.114282
    8        1.182462
    9       11.166965
   10       13.507161
   11       13.774441
   12       14.339546
 
  0.2500000E+00  0.2500000E+00  0.1250000E+00  0.3472222E-02
    1      -10.102197
    2       -9.768836
    3       -5.296975
    4       -5.179360
    5       -3.690875
    6       -3.604397
    7        1.657480
    8        3.484801
    9        7.658074
   10        8.448379
   11       15.384453
   12       16.890013
 
  0.3333333E+00  0.2500000E+00  0.1250000E+00  0.6944444E-02
    1       -8.650152
    2       -8.375295
    3       -6.749711
    4       -6.563598
    5       -4.433954
    6       -4.286050
    7        3.216882
    8        4.489447
    9        6.269709
   10        6.969800
   11       16.458299
   12       16.660284
 
  0.4166667E+00  0.2500000E+00  0.1250000E+00  0.6944444E-02
    1       -8.657464
    2       -8.382348
    3       -6.742449
    4       -6.554708
    5       -4.435034
    6       -4.286894
    7        3.212404
    8        4.488697
    9        6.261738
   10        6.981284
   11       16.444858
   12       16.665686
 
  0.5000000E+00  0.2500000E+00  0.1250000E+00  0.6944444E-02
    1      -10.108762
    2       -9.775452
    3       -5.293445
    4       -5.173073
    5       -3.690185
    6       -3.601997
    7        1.652288
    8        3.479424
    9        7.651422
   10        8.459570
   11       15.374610
   12       16.911047
 
 -0.4166667E+00  0.2500000E+00  0.1250000E+00  0.6944444E-02
    1      -11.354604
    2      -10.987919
    3       -4.280478
    4       -4.116444
    5       -2.216266
    6       -2.100908
    7        0.220227
    8        2.287264
    9        9.255686
   10       10.088356
   11       14.007723
   12       15.253164
 
 -0.3333333E+00  0.2500000E+00  0.1250000E+00  0.6944444E-02
    1      -12.315044
    2      -11.924223
    3       -3.301224
    4       -3.127216
    5       -0.907945
    6       -0.670578
    7       -0.573331
    8        1.305671
    9       10.731311
   10       11.652570
   11       12.870450
   12       13.678480
 
 -0.2500000E+00  0.2500000E+00  0.1250000E+00  0.3472222E-02
    1      -12.964794
    2      -12.557941
    3       -2.212384
    4       -2.054619
    5       -1.678687
    6        0.229423
    7        0.310028
    8        0.621378
    9       11.976529
   10       12.202599
   11       12.917194
   12       13.174883
 
  0.3333333E+00  0.3333333E+00  0.1250000E+00  0.3472222E-02
    1       -7.450205
    2       -7.302127
    3       -7.299522
    4       -7.155943
    5       -5.248109
    6       -5.246737
    7        4.412532
    8        5.199733
    9        5.211230
   10        6.189233
   11       16.342429
   12       16.365998
 
  0.4166667E+00  0.3333333E+00  0.1250000E+00  0.6944444E-02
    1       -8.660044
    2       -8.385866
    3       -6.747584
    4       -6.560073
    5       -4.426405
    6       -4.277432
    7        3.212531
    8        4.478312
    9        6.265974
   10        6.981597
   11       16.442720
   12       16.688780
 
  0.5000000E+00  0.3333333E+00  0.1250000E+00  0.6944444E-02
    1       -9.959795
    2       -9.632624
    3       -6.223104
    4       -5.996045
    5       -2.805882
    6       -2.661545
    7        1.777251
    8        3.464382
    9        7.342565
   10        8.290717
   11       14.971001
   12       15.469251
 
 -0.4166667E+00  0.3333333E+00  0.1250000E+00  0.6944444E-02
    1      -11.038626
    2      -10.680372
    3       -5.451003
    4       -5.225109
    5       -1.309745
    6       -1.201788
    7        0.560477
    8        2.520806
    9        8.437776
   10        9.603085
   11       13.313783
   12       13.806291
 
 -0.3333333E+00  0.3333333E+00  0.1250000E+00  0.3472222E-02
    1      -11.832061
    2      -11.453309
    3       -4.442518
    4       -4.233816
    5       -0.506382
    6       -0.418796
    7       -0.348962
    8        1.776523
    9        9.620378
   10       10.786718
   11       12.743763
   12       13.133119
 
  0.4166667E+00  0.4166667E+00  0.1250000E+00  0.3472222E-02
    1       -8.662380
    2       -8.501755
    3       -7.578937
    4       -7.470189
    5       -2.993896
    6       -2.842749
    7        2.939782
    8        3.781350
    9        6.758778
   10        7.046008
   11       14.877726
   12       15.583271
 
  0.5000000E+00  0.4166667E+00  0.1250000E+00  0.6944444E-02
    1       -9.532885
    2       -9.234723
    3       -7.398644
    4       -7.153833
    5       -1.639752
    6       -1.527524
    7        2.100339
    8        3.353344
    9        6.917694
   10        7.837528
   11       13.134288
   12       13.715772
 
 -0.4166667E+00  0.4166667E+00  0.1250000E+00  0.3472222E-02
    1      -10.417570
    2      -10.077932
    3       -6.563192
    4       -6.313174
    5       -0.980329
    6       -0.889199
    7        1.214162
    8        2.923164
    9        7.518417
   10        8.750390
   11       12.493862
   12       13.037110
 
  0.5000000E+00  0.5000000E+00  0.1250000E+00  0.1736111E-02
    1       -9.089292
    2       -8.922662
    3       -7.984573
    4       -7.861028
    5       -1.142969
    6       -1.050686
    7        2.343556
    8        3.203701
    9        6.804196
   10        7.551391
   11       12.399910
   12       12.969472
 
  0.0000000E+00  0.0000000E+00  0.2500000E+00  0.1736111E-02
    1      -14.399848
    2      -14.060946
    3       -3.218480
    4       -1.356545
    5        2.249607
    6        2.265940
    7        2.274698
    8        2.290239
    9       11.080191
   10       13.586123
   11       13.598597
   12       13.648484
 
  0.8333333E-01  0.6938894E-17  0.2500000E+00  0.6944444E-02
    1      -14.233967
    2      -13.898198
    3       -3.018288
    4       -1.167799
    5        1.600278
    6        1.643547
    7        1.908782
    8        1.945890
    9       11.263432
   10       13.627491
   11       13.733405
   12       14.286425
 
  0.1666667E+00  0.1387779E-16  0.2500000E+00  0.6944444E-02
    1      -13.738139
    2      -13.411722
    3       -2.422124
    4       -0.608410
    5       -0.058655
    6        0.020970
    7        1.107695
    8        1.159985
    9       11.809910
   10       13.499386
   11       13.724620
   12       14.424490
 
  0.2500000E+00  0.2775558E-16  0.2500000E+00  0.6944444E-02
    1      -12.918283
    2      -12.607258
    3       -2.181851
    4       -2.061568
    5       -1.444766
    6        0.222526
    7        0.284305
    8        0.299404
    9       12.097281
   10       12.717835
   11       12.810458
   12       13.202712
 
  0.3333333E+00  0.2775558E-16  0.2500000E+00  0.6944444E-02
    1      -11.786642
    2      -11.497017
    3       -4.408130
    4       -4.248746
    5       -0.513766
    6       -0.446624
    7       -0.127725
    8        1.488180
    9        9.730817
   10       10.624064
   11       12.784650
   12       13.117924
 