32   
4    

1    
  0.0036454751284107  -0.0000014183837932   0.0093118477799160
  -0.2365956900    0.0078034600   -0.1307783900
   0.0291061200    0.0066923300    0.0002092700
  -0.0099714200   -0.0158788500    0.0002812400
  -0.0100948900    0.0294107100    0.0000530800
  -0.0118173500    0.0066152600    0.0066233400
  -0.0117618100    0.0066171500    0.0067141100
  -0.0117876900    0.0066011500    0.0067139700
  -0.0117857200    0.0066300500    0.0067145300
   0.0113966700   -0.0069235100   -0.0067834600
   0.0109999300   -0.0070380200   -0.0069348000
   0.0112953400   -0.0066309000   -0.0068564200
   0.0110589300   -0.0068822900   -0.0056907600
   0.0116915800   -0.0061211200   -0.0069858600
   0.0120436000   -0.0062087400   -0.0068451500
   0.0119396400   -0.0064839600   -0.0069188400
   0.0117108900   -0.0062888200   -0.0055157700
   0.0084441400   -0.0051599900    0.0117190500
   0.0374500200   -0.0058742100    0.0451308700
   0.0851691200    0.0222668600    0.0455717700
   0.0855340600   -0.0329686700    0.0446030400
   0.0090644600   -0.0050825000   -0.0010294700
   0.0090675600   -0.0050819200   -0.0009881200
   0.0090658500   -0.0050840600   -0.0009886500
   0.0090656600   -0.0050818800   -0.0009847700
  -0.0093066600    0.0055889300    0.0019061000
  -0.0080884200    0.0057672600    0.0019923700
  -0.0088533500    0.0046433500    0.0019571600
  -0.0085797300    0.0053256400    0.0006614900
  -0.0083351600    0.0043140500    0.0019967000
  -0.0093528200    0.0045056400    0.0018737500
  -0.0090133900    0.0052987200    0.0019025100
  -0.0087594600    0.0047088900    0.0006761200

1    
 -0.0036454751284107   0.0000014183837932  -0.0093118477799160
   0.2134419500    0.0077005600    0.1308467900
  -0.0522664800    0.0065844600   -0.0001331500
  -0.0130721900    0.0292439100   -0.0000626200
  -0.0131809300   -0.0160469300   -0.0001190700
  -0.0115722100    0.0067878300   -0.0065449900
  -0.0116272700    0.0067874100   -0.0066373400
  -0.0116024200    0.0068003900   -0.0066373900
  -0.0116020100    0.0067715900   -0.0066375100
   0.0112141700   -0.0071153600    0.0067746300
   0.0115780200   -0.0070090500    0.0069181800
   0.0113079900   -0.0073811400    0.0068432500
   0.0115399000   -0.0071475000    0.0054429100
   0.0122126300   -0.0067095500    0.0068440800
   0.0118310000   -0.0066179000    0.0066949300
   0.0119447100   -0.0063154100    0.0067744600
   0.0121604300   -0.0065253400    0.0055994800
   0.0092924600   -0.0050696000   -0.0117334700
  -0.0197177200   -0.0055623600   -0.0451464000
  -0.0679909400   -0.0329279300   -0.0446918300
  -0.0672434500    0.0223035100   -0.0455106300
   0.0088904600   -0.0051913300    0.0010355000
   0.0088876700   -0.0051912500    0.0009940600
   0.0088891500   -0.0051899300    0.0009936800
   0.0088902100   -0.0051920800    0.0009915600
  -0.0084480600    0.0053908100   -0.0018703000
  -0.0094821100    0.0052131600   -0.0019521000
  -0.0088077500    0.0061763200   -0.0019246800
  -0.0090735400    0.0056012000   -0.0006582600
  -0.0097134600    0.0054019300   -0.0020306900
  -0.0085171600    0.0052132600   -0.0018822200
  -0.0089504000    0.0042612300   -0.0019162700
  -0.0092126500    0.0049551100   -0.0006646000

17   
  0.0036454751284107  -0.0000014183837932   0.0093118477799160
  -0.0123280000    0.0067009500    0.0061633500
   0.0166813700    0.0072212700    0.0395784600
   0.0649409400    0.0345319800    0.0391192800
   0.0642259100   -0.0206839300    0.0399421200
  -0.0117628500    0.0068267200   -0.0065944200
  -0.0117596500    0.0068275600   -0.0065530600
  -0.0117623000    0.0068258000   -0.0065558000
  -0.0117611800    0.0068275200   -0.0065472400
   0.0116053500   -0.0072273000    0.0073082200
   0.0119017300   -0.0070913500    0.0077120100
   0.0116437500   -0.0073412900    0.0075015200
   0.0118537900   -0.0072136800    0.0062306000
   0.0120463000   -0.0066876700    0.0077265500
   0.0117746200   -0.0064352500    0.0072470500
   0.0116997900   -0.0064015900    0.0074693700
   0.0120191400   -0.0065195000    0.0062209000
  -0.2159379200   -0.0059942300   -0.1362832700
   0.0493764700   -0.0048977800   -0.0062306700
   0.0113811300   -0.0268632800   -0.0062961800
   0.0114919000    0.0170746900   -0.0062722900
   0.0089159300   -0.0052276500    0.0012069400
   0.0088961400   -0.0052271400    0.0008809200
   0.0089032200   -0.0052238700    0.0008809500
   0.0089035600   -0.0052327900    0.0008830700
  -0.0095047600    0.0056914300   -0.0004570800
  -0.0090954700    0.0056259500   -0.0003602700
  -0.0092372100    0.0053177600   -0.0004427700
  -0.0093886800    0.0055250400   -0.0010713300
  -0.0087000700    0.0047330800   -0.0003098500
  -0.0091210100    0.0046533400   -0.0005372700
  -0.0088351000    0.0050495200   -0.0004626200
  -0.0090668500    0.0048356800   -0.0010972000

17   
 -0.0036454751284107   0.0000014183837932  -0.0093118477799160
  -0.0110578100    0.0068007100   -0.0060679700
  -0.0400661700    0.0075117900   -0.0394793400
  -0.0877976100   -0.0206188400   -0.0399244000
  -0.0881303100    0.0345972500   -0.0389511700
  -0.0118841200    0.0067131300    0.0066825700
  -0.0118874300    0.0067148400    0.0066413100
  -0.0118864600    0.0067135500    0.0066385500
  -0.0118845900    0.0067120400    0.0066410500
   0.0116640800   -0.0069706200   -0.0073735700
   0.0113801800   -0.0070880200   -0.0077917000
   0.0116170800   -0.0068444000   -0.0075697200
   0.0114049300   -0.0069722200   -0.0063249100
   0.0114779700   -0.0060734100   -0.0078273500
   0.0117501100   -0.0063495600   -0.0073828900
   0.0118463700   -0.0063798200   -0.0075924000
   0.0115312500   -0.0062586800   -0.0063162800
   0.2339149400   -0.0064692800    0.1362598300
  -0.0313801700   -0.0053467700    0.0062207300
   0.0065017000    0.0165346900    0.0061537100
   0.0066201100   -0.0273985500    0.0063972400
   0.0092986400   -0.0051820800   -0.0012076200
   0.0093179400   -0.0051817800   -0.0008808800
   0.0093109200   -0.0051864300   -0.0008809800
   0.0093104400   -0.0051775300   -0.0008826900
  -0.0088731400    0.0053562200    0.0004846800
  -0.0092815700    0.0054496600    0.0003860600
  -0.0091637800    0.0057494100    0.0004603100
  -0.0089962700    0.0055364700    0.0010757300
  -0.0089078000    0.0048810800    0.0003082300
  -0.0084857300    0.0049184700    0.0005358700
  -0.0087345600    0.0045476700    0.0004560500
  -0.0085291300    0.0047610300    0.0011119300
