   32   32    1    1
  0.8294063E+01  0.4932875E-09  0.4932875E-09  0.1260033E-08  0.5000000E-15
  1.000000000000000E-004
  CAR 
 graphite                                
    128     76     84
 
  0.0000000E+00  0.0000000E+00  0.0000000E+00  0.6944444E-02
    1      -14.464611
    2      -14.236981
    3      -14.236194
    4      -13.984340
    5       -9.099143
    6       -9.089435
    7       -9.086194
    8       -8.995614
    9       -8.993825
   10       -8.983589
   11       -8.982097
   12       -8.982064
   13       -8.977829
   14       -8.918999
   15       -8.905079
   16       -8.902806
   17       -7.986730
   18       -7.985034
   19       -7.984232
   20       -7.946243
   21       -7.945123
   22       -7.942964
   23       -7.942579
   24       -7.942558
   25       -7.939733
   26       -7.851772
   27       -7.850715
   28       -7.848002
   29       -3.548264
   30       -2.359220
   31       -2.356907
   32       -1.166387
   33       -1.163890
   34       -1.148301
   35       -1.117176
   36       -1.116106
   37       -1.116092
   38       -1.111852
   39       -1.099404
   40       -1.097418
   41       -1.066124
   42       -1.063279
   43       -1.048062
   44       -0.875220
   45        2.245542
   46        2.254319
   47        2.261771
   48        2.266190
   49        2.272059
   50        2.277843
   51        2.281872
   52        2.290790
   53        2.292392
   54        2.296605
   55        2.298839
   56        2.885727
   57        2.888537
   58        2.895659
   59        2.896096
   60        2.896245
   61        2.900343
   62        3.213074
   63        3.235155
   64        3.236584
   65        6.819192
   66        6.821250
   67        6.831034
   68        6.888047
   69        6.891738
   70        6.894037
   71        6.896143
   72        6.896703
   73        6.901190
   74        7.629919
   75        7.636691
   76        7.640207
   77       10.166230
   78       12.341609
   79       12.345727
   80       12.377238
   81       12.638000
   82       12.641570
   83       12.643083
   84       12.647389
 
  0.1666667E+00  0.1387779E-16  0.0000000E+00  0.1388889E-01
    1      -14.298183
    2      -14.072561
    3      -14.071784
    4      -13.822387
    5      -10.424547
    6      -10.247507
    7      -10.246847
    8      -10.056505
    9       -9.545162
   10       -9.537990
   11       -9.387929
   12       -9.387132
   13       -9.380135
   14       -9.379066
   15       -9.222437
   16       -9.214082
   17       -7.406835
   18       -7.401258
   19       -7.282836
   20       -7.280590
   21       -7.275873
   22       -7.274884
   23       -7.141913
   24       -7.135585
   25       -6.565970
   26       -6.435881
   27       -6.434344
   28       -6.295358
   29       -3.346194
   30       -2.164045
   31       -2.161740
   32       -1.662485
   33       -1.645763
   34       -1.602603
   35       -1.602376
   36       -1.586599
   37       -1.584649
   38       -1.540764
   39       -1.524104
   40       -1.001391
   41       -0.953714
   42       -0.950581
   43       -0.902302
   44       -0.690040
   45        1.152958
   46        1.587947
   47        1.616863
   48        1.621526
   49        1.650166
   50        1.902876
   51        1.926844
   52        1.932003
   53        1.956496
   54        2.041385
   55        2.045146
   56        2.049447
   57        2.052182
   58        2.778203
   59        2.780987
   60        2.787042
   61        2.788037
   62        3.007441
   63        3.388390
   64        3.405011
   65        6.920571
   66        6.925821
   67        7.170986
   68        7.174878
   69        7.176652
   70        7.181392
   71        7.498964
   72        7.908266
   73        7.914573
   74        7.993709
   75        7.998220
   76        8.829343
   77       10.359225
   78       12.438955
   79       12.728352
   80       12.730019
   81       13.026602
   82       13.077374
   83       13.111488
   84       13.380698
 
  0.3333333E+00  0.2775558E-16  0.0000000E+00  0.1388889E-01
    1      -13.800757
    2      -13.581053
    3      -13.580303
    4      -13.338266
    5      -11.842821
    6      -11.646678
    7      -11.646011
    8      -11.432676
    9       -9.972869
   10       -9.969174
   11       -9.802403
   12       -9.801675
   13       -9.798541
   14       -9.797193
   15       -9.618607
   16       -9.614635
   17       -6.231170
   18       -6.222226
   19       -6.113000
   20       -6.110700
   21       -6.103388
   22       -6.102110
   23       -5.985324
   24       -5.976538
   25       -4.441109
   26       -4.331954
   27       -4.330156
   28       -4.215479
   29       -2.826985
   30       -2.813006
   31       -2.751488
   32       -2.750965
   33       -2.744037
   34       -2.738010
   35       -2.735978
   36       -2.670694
   37       -2.656609
   38       -1.583766
   39       -1.581470
   40       -0.526422
   41       -0.480788
   42       -0.477416
   43       -0.431159
   44       -0.420447
   45       -0.141536
   46       -0.077604
   47       -0.022907
   48       -0.019447
   49        0.035706
   50        0.628326
   51        0.630515
   52        1.098556
   53        1.133321
   54        1.137986
   55        1.173295
   56        1.711327
   57        1.714457
   58        1.888666
   59        2.589517
   60        2.592475
   61        2.595531
   62        2.596651
   63        3.536416
   64        3.544808
   65        7.320260
   66        7.322597
   67        7.748587
   68        7.751110
   69        7.753288
   70        7.757316
   71        8.340069
   72        8.343048
   73        9.595371
   74       10.132407
   75       10.136188
   76       10.850190
   77       10.940549
   78       12.683978
   79       12.971425
   80       12.973378
   81       13.071429
   82       13.453604
   83       13.458308
   84       13.487451
 
  0.5000000E+00  0.5551115E-16  0.0000000E+00  0.6944444E-02
    1      -12.979704
    2      -12.976780
    3      -12.770827
    4      -12.768135
    5      -12.768122
    6      -12.764846
    7      -12.539088
    8      -12.536080
    9      -10.122655
   10      -10.120847
   11       -9.949470
   12       -9.948020
   13       -9.947932
   14       -9.945713
   15       -9.761766
   16       -9.759903
   17       -5.298823
   18       -5.296833
   19       -5.230966
   20       -5.230957
   21       -5.230095
   22       -5.225782
   23       -5.168594
   24       -5.166184
   25       -3.694976
   26       -3.693381
   27       -3.657762
   28       -3.654978
   29       -3.653877
   30       -3.653872
   31       -3.599286
   32       -3.597932
   33       -2.209217
   34       -2.205786
   35       -2.128490
   36       -2.122845
   37       -2.122827
   38       -2.122127
   39       -2.038442
   40       -2.035452
   41       -1.757620
   42       -1.755206
   43       -0.637780
   44       -0.635190
   45       -0.634886
   46       -0.631174
   47        0.208844
   48        0.213052
   49        0.251684
   50        0.252867
   51        0.252888
   52        0.261612
   53        0.296389
   54        0.302818
   55        0.742027
   56        0.744799
   57        1.583676
   58        1.585839
   59        2.505348
   60        2.508988
   61        2.509436
   62        2.510882
   63        3.564248
   64        3.566741
   65        7.617277
   66        7.620013
   67        8.055720
   68        8.055941
   69        8.056008
   70        8.061211
   71        8.494018
   72        8.496666
   73       11.893014
   74       11.895017
   75       12.053390
   76       12.056635
   77       12.406355
   78       12.412931
   79       12.414460
   80       12.417104
   81       12.968979
   82       12.972778
   83       13.127162
   84       13.130124
 
 -0.1355253E-19  0.1666667E+00  0.0000000E+00  0.1388889E-01
    1      -14.298179
    2      -14.072559
    3      -14.071778
    4      -13.822383
    5      -10.424563
    6      -10.247519
    7      -10.246885
    8      -10.056543
    9       -9.545258
   10       -9.537725
   11       -9.388151
   12       -9.387156
   13       -9.380116
   14       -9.378393
   15       -9.222485
   16       -9.213748
   17       -7.407219
   18       -7.402172
   19       -7.282876
   20       -7.282101
   21       -7.275982
   22       -7.275560
   23       -7.142256
   24       -7.136306
   25       -6.564989
   26       -6.434456
   27       -6.433860
   28       -6.294423
   29       -3.346204
   30       -2.164055
   31       -2.161754
   32       -1.661224
   33       -1.645722
   34       -1.602530
   35       -1.599783
   36       -1.586661
   37       -1.584648
   38       -1.539409
   39       -1.524128
   40       -1.002623
   41       -0.953728
   42       -0.953241
   43       -0.903766
   44       -0.690056
   45        1.152306
   46        1.591078
   47        1.621522
   48        1.621858
   49        1.652272
   50        1.900791
   51        1.926828
   52        1.926949
   53        1.953161
   54        2.041408
   55        2.045653
   56        2.049361
   57        2.051259
   58        2.778578
   59        2.780972
   60        2.787098
   61        2.790164
   62        3.006437
   63        3.388465
   64        3.406145
   65        6.918662
   66        6.925717
   67        7.170083
   68        7.173257
   69        7.176557
   70        7.179615
   71        7.500802
   72        7.907638
   73        7.912954
   74        7.995870
   75        7.999292
   76        8.830888
   77       10.359208
   78       12.438278
   79       12.728101
   80       12.728867
   81       13.025834
   82       13.078233
   83       13.111561
   84       13.379987
 
  0.1666667E+00  0.1666667E+00  0.0000000E+00  0.1388889E-01
    1      -13.966037
    2      -13.744354
    3      -13.743594
    4      -13.499124
    5      -11.050370
    6      -11.047299
    7      -10.865378
    8      -10.862605
    9      -10.862581
   10      -10.859120
   11      -10.662335
   12      -10.659183
   13       -8.671633
   14       -8.571948
   15       -8.570680
   16       -8.498212
   17       -7.578492
   18       -7.545068
   19       -7.541169
   20       -7.461046
   21       -5.451352
   22       -5.447729
   23       -5.334441
   24       -5.330417
   25       -5.330398
   26       -5.327223
   27       -5.206927
   28       -5.203317
   29       -3.001184
   30       -2.943767
   31       -2.922362
   32       -2.920452
   33       -2.837477
   34       -1.775950
   35       -1.773658
   36       -1.333168
   37       -1.330295
   38       -1.276190
   39       -1.274680
   40       -1.274666
   41       -1.270136
   42       -1.216064
   43       -1.212839
   44       -0.322764
   45        0.490696
   46        0.493618
   47        0.553643
   48        0.582241
   49        0.586422
   50        0.611712
   51        1.229884
   52        1.247737
   53        1.253078
   54        1.275044
   55        1.474935
   56        1.477188
   57        1.477368
   58        1.480903
   59        2.619863
   60        2.622410
   61        2.887914
   62        3.482314
   63        3.484760
   64        3.788239
   65        6.678950
   66        6.684163
   67        6.795526
   68        7.089949
   69        8.410613
   70        8.413213
   71        8.944938
   72        8.949364
   73        8.950084
   74        8.952176
   75        9.666267
   76        9.669206
   77       10.748730
   78       13.255707
   79       13.260200
   80       13.541279
   81       13.545138
   82       13.545244
   83       13.549976
   84       13.646869
 
  0.3333333E+00  0.1666667E+00  0.0000000E+00  0.1388889E-01
    1      -13.305821
    2      -13.092019
    3      -13.091301
    4      -12.856513
    5      -12.328138
    6      -12.126088
    7      -12.125389
    8      -11.904945
    9      -11.367496
   10      -11.177362
   11      -11.176611
   12      -10.970427
   13       -8.671333
   14       -8.526073
   15       -8.525583
   16       -8.374620
   17       -6.753689
   18       -6.656922
   19       -6.653735
   20       -6.550802
   21       -4.432990
   22       -4.359460
   23       -4.357388
   24       -4.276509
   25       -4.271715
   26       -4.189768
   27       -4.187820
   28       -4.099966
   29       -3.296676
   30       -3.205427
   31       -3.203674
   32       -3.108777
   33       -2.233388
   34       -2.175379
   35       -2.173913
   36       -2.147849
   37       -2.109109
   38       -1.190588
   39       -1.138223
   40       -1.134379
   41       -1.071644
   42       -1.005099
   43       -1.003368
   44       -0.982958
   45       -0.690063
   46       -0.639716
   47       -0.636694
   48       -0.584530
   49        0.100422
   50        0.102498
   51        0.147517
   52        0.214357
   53        0.250340
   54        0.255634
   55        0.294308
   56        0.396276
   57        1.169887
   58        1.171686
   59        1.421784
   60        2.392183
   61        3.154682
   62        3.889615
   63        3.891789
   64        4.514372
   65        6.255137
   66        6.538914
   67        6.542825
   68        7.028551
   69        9.229141
   70        9.663475
   71        9.665687
   72       10.126161
   73       10.711029
   74       11.153146
   75       11.156031
   76       11.527960
   77       11.699705
   78       12.667349
   79       13.008702
   80       13.247287
   81       13.252087
   82       13.630755
   83       13.671005
   84       13.821675
 
  0.5000000E+00  0.1666667E+00  0.0000000E+00  0.1388889E-01
    1      -13.307017
    2      -13.093219
    3      -13.092487
    4      -12.857699
    5      -12.326453
    6      -12.124399
    7      -12.123714
    8      -11.903267
    9      -11.368714
   10      -11.178590
   11      -11.177832
   12      -10.971659
   13       -8.668628
   14       -8.522933
   15       -8.522434
   16       -8.370835
   17       -6.749480
   18       -6.651454
   19       -6.650121
   20       -6.546246
   21       -4.440831
   22       -4.367068
   23       -4.366521
   24       -4.286049
   25       -4.280382
   26       -4.199431
   27       -4.195998
   28       -4.108224
   29       -3.300356
   30       -3.209564
   31       -3.207055
   32       -3.112625
   33       -2.222566
   34       -2.164970
   35       -2.161762
   36       -2.149095
   37       -2.097463
   38       -1.188523
   39       -1.135342
   40       -1.133436
   41       -1.069619
   42       -1.006227
   43       -1.004585
   44       -0.981258
   45       -0.686435
   46       -0.636557
   47       -0.632623
   48       -0.580939
   49        0.102105
   50        0.104255
   51        0.146264
   52        0.212287
   53        0.249098
   54        0.252080
   55        0.291557
   56        0.394993
   57        1.168439
   58        1.170280
   59        1.423420
   60        2.390175
   61        3.154992
   62        3.893725
   63        3.894732
   64        4.526435
   65        6.248778
   66        6.539500
   67        6.541675
   68        7.027477
   69        9.225267
   70        9.660105
   71        9.663032
   72       10.125929
   73       10.712259
   74       11.151641
   75       11.155087
   76       11.526148
   77       11.696097
   78       12.669746
   79       13.005060
   80       13.248255
   81       13.252661
   82       13.626896
   83       13.674201
   84       13.820559
 
 -0.3333333E+00  0.1666667E+00  0.0000000E+00  0.1388889E-01
    1      -13.966752
    2      -13.745069
    3      -13.744299
    4      -13.499831
    5      -11.052464
    6      -11.046671
    7      -10.866477
    8      -10.865747
    9      -10.860612
   10      -10.859972
   11      -10.664551
   12      -10.658687
   13       -8.661719
   14       -8.559776
   15       -8.559328
   16       -8.484428
   17       -7.580035
   18       -7.543680
   19       -7.543249
   20       -7.460307
   21       -5.459041
   22       -5.453603
   23       -5.341310
   24       -5.338780
   25       -5.335675
   26       -5.333921
   27       -5.214427
   28       -5.209439
   29       -3.014509
   30       -2.944561
   31       -2.935026
   32       -2.934516
   33       -2.850862
   34       -1.776733
   35       -1.774452
   36       -1.328424
   37       -1.315772
   38       -1.272304
   39       -1.269025
   40       -1.259261
   41       -1.256741
   42       -1.211285
   43       -1.198725
   44       -0.323565
   45        0.488526
   46        0.494411
   47        0.548360
   48        0.578829
   49        0.579584
   50        0.606941
   51        1.235427
   52        1.255214
   53        1.255488
   54        1.278939
   55        1.472074
   56        1.473882
   57        1.478728
   58        1.481036
   59        2.614534
   60        2.623106
   61        2.888203
   62        3.491473
   63        3.491934
   64        3.809358
   65        6.680405
   66        6.683388
   67        6.785429
   68        7.092457
   69        8.407664
   70        8.411094
   71        8.941270
   72        8.944948
   73        8.945505
   74        8.948901
   75        9.663391
   76        9.664985
   77       10.747586
   78       13.255936
   79       13.288082
   80       13.542521
   81       13.544781
   82       13.575377
   83       13.577197
   84       13.644968
 
 -0.1666667E+00  0.1666667E+00  0.0000000E+00  0.1388889E-01
    1      -14.298417
    2      -14.072797
    3      -14.072012
    4      -13.822618
    5      -10.430819
    6      -10.253909
    7      -10.253276
    8      -10.063085
    9       -9.536761
   10       -9.534603
   11       -9.379394
   12       -9.377767
   13       -9.377707
   14       -9.374963
   15       -9.212970
   16       -9.210762
   17       -7.405624
   18       -7.403697
   19       -7.281343
   20       -7.278692
   21       -7.278645
   22       -7.277498
   23       -7.140157
   24       -7.138285
   25       -6.572093
   26       -6.442429
   27       -6.440068
   28       -6.301415
   29       -3.346470
   30       -2.164320
   31       -2.162022
   32       -1.662028
   33       -1.659742
   34       -1.602421
   35       -1.601690
   36       -1.601672
   37       -1.597500
   38       -1.540467
   39       -1.537819
   40       -0.985620
   41       -0.937661
   42       -0.935321
   43       -0.886778
   44       -0.690328
   45        1.147351
   46        1.580259
   47        1.608934
   48        1.614279
   49        1.643242
   50        1.910250
   51        1.934529
   52        1.939562
   53        1.963582
   54        2.041631
   55        2.043822
   56        2.046515
   57        2.048358
   58        2.787394
   59        2.788147
   60        2.788405
   61        2.792453
   62        2.995378
   63        3.404671
   64        3.406658
   65        6.919349
   66        6.921822
   67        7.170346
   68        7.176372
   69        7.176837
   70        7.178997
   71        7.499524
   72        7.908798
   73        7.911954
   74        7.989755
   75        7.994658
   76        8.826336
   77       10.358809
   78       12.471132
   79       12.760538
   80       12.761832
   81       13.058372
   82       13.075163
   83       13.078921
   84       13.375036
 
 -0.2710505E-19  0.3333333E+00  0.0000000E+00  0.1388889E-01
    1      -13.800740
    2      -13.581042
    3      -13.580277
    4      -13.338247
    5      -11.842785
    6      -11.646657
    7      -11.645958
    8      -11.432638
    9       -9.973215
   10       -9.968865
   11       -9.803209
   12       -9.801740
   13       -9.798526
   14       -9.796319
   15       -9.618900
   16       -9.614288
   17       -6.231711
   18       -6.223136
   19       -6.113043
   20       -6.112377
   21       -6.103470
   22       -6.103036
   23       -5.985849
   24       -5.977313
   25       -4.440015
   26       -4.330241
   27       -4.329711
   28       -4.214409
   29       -2.825709
   30       -2.812663
   31       -2.751010
   32       -2.748902
   33       -2.744075
   34       -2.737347
   35       -2.735973
   36       -2.669341
   37       -2.656338
   38       -1.583812
   39       -1.581534
   40       -0.527791
   41       -0.480804
   42       -0.480393
   43       -0.432813
   44       -0.420724
   45       -0.141614
   46       -0.075493
   47       -0.019461
   48       -0.018976
   49        0.037540
   50        0.628109
   51        0.630035
   52        1.096696
   53        1.133310
   54        1.133702
   55        1.170728
   56        1.711361
   57        1.715369
   58        1.888193
   59        2.589869
   60        2.592396
   61        2.595539
   62        2.598617
   63        3.536682
   64        3.545911
   65        7.318734
   66        7.321702
   67        7.746954
   68        7.749457
   69        7.753342
   70        7.756040
   71        8.338204
   72        8.342848
   73        9.596682
   74       10.133810
   75       10.136948
   76       10.851194
   77       10.940519
   78       12.683213
   79       12.971303
   80       12.971831
   81       13.070797
   82       13.452601
   83       13.456110
   84       13.485261
 
  0.1666667E+00  0.3333333E+00  0.0000000E+00  0.1388889E-01
    1      -13.305806
    2      -13.092010
    3      -13.091279
    4      -12.856494
    5      -12.328103
    6      -12.126068
    7      -12.125332
    8      -11.904903
    9      -11.367542
   10      -11.177382
   11      -11.176685
   12      -10.970476
   13       -8.671264
   14       -8.525975
   15       -8.525526
   16       -8.374534
   17       -6.754080
   18       -6.656925
   19       -6.654659
   20       -6.551347
   21       -4.432514
   22       -4.358650
   23       -4.357383
   24       -4.278024
   25       -4.271303
   26       -4.190820
   27       -4.189741
   28       -4.101490
   29       -3.295241
   30       -3.203707
   31       -3.202521
   32       -3.107329
   33       -2.231647
   34       -2.173925
   35       -2.171907
   36       -2.147883
   37       -2.107363
   38       -1.189366
   39       -1.136342
   40       -1.134349
   41       -1.070791
   42       -1.005005
   43       -1.003331
   44       -0.983297
   45       -0.691710
   46       -0.640153
   47       -0.639696
   48       -0.586342
   49        0.100206
   50        0.102198
   51        0.147828
   52        0.213488
   53        0.250339
   54        0.253257
   55        0.292683
   56        0.396200
   57        1.170223
   58        1.172134
   59        1.421424
   60        2.392707
   61        3.155169
   62        3.890576
   63        3.891832
   64        4.514706
   65        6.254715
   66        6.538853
   67        6.541404
   68        7.027729
   69        9.227695
   70        9.662625
   71        9.664093
   72       10.125155
   73       10.712303
   74       11.154294
   75       11.156969
   76       11.527958
   77       11.700656
   78       12.667204
   79       13.009105
   80       13.247474
   81       13.252141
   82       13.629306
   83       13.671179
   84       13.820072
 
  0.3333333E+00  0.3333333E+00  0.0000000E+00  0.1388889E-01
    1      -12.493375
    2      -12.490605
    3      -12.488047
    4      -12.290834
    5      -12.287446
    6      -12.287423
    7      -12.285770
    8      -12.284562
    9      -12.281721
   10      -12.065800
   11      -12.063026
   12      -12.060405
   13       -7.462522
   14       -7.312234
   15       -7.310733
   16       -7.302455
   17       -7.299799
   18       -7.293049
   19       -7.291129
   20       -7.143826
   21       -5.258909
   22       -5.258510
   23       -5.246345
   24       -5.245021
   25       -2.516989
   26       -2.513777
   27       -2.511880
   28       -2.470183
   29       -2.465112
   30       -2.465092
   31       -2.464462
   32       -2.464289
   33       -2.458792
   34       -2.421670
   35       -2.418950
   36       -2.415219
   37       -1.175500
   38       -1.173769
   39       -1.170727
   40       -1.144626
   41       -1.141159
   42       -1.138393
   43       -1.116308
   44       -1.112624
   45       -1.110753
   46       -1.110214
   47       -1.110192
   48       -1.103953
   49       -1.073883
   50       -1.072050
   51       -1.067595
   52       -0.081939
   53       -0.078042
   54       -0.077753
   55       -0.076478
   56       -0.075335
   57       -0.071726
   58        1.259647
   59        1.262135
   60        1.264960
   61        4.347556
   62        5.191276
   63        5.202789
   64        5.229661
   65        5.230267
   66        5.265107
   67        5.265963
   68        6.274946
   69       11.254895
   70       11.257761
   71       11.263464
   72       11.595614
   73       11.599620
   74       11.600042
   75       11.601034
   76       11.601665
   77       11.604580
   78       11.961303
   79       11.967940
   80       11.971016
   81       12.502184
   82       12.503554
   83       12.507372
   84       14.947530
 
  0.5000000E+00  0.3333333E+00  0.0000000E+00  0.1388889E-01
    1      -13.307717
    2      -13.093926
    3      -13.093173
    4      -12.858393
    5      -12.329988
    6      -12.127978
    7      -12.127191
    8      -11.906786
    9      -11.363718
   10      -11.173529
   11      -11.172883
   12      -10.966649
   13       -8.661214
   14       -8.515677
   15       -8.515002
   16       -8.363667
   17       -6.757437
   18       -6.660062
   19       -6.659434
   20       -6.556161
   21       -4.438864
   22       -4.365658
   23       -4.364412
   24       -4.284461
   25       -4.278782
   26       -4.198241
   27       -4.195655
   28       -4.108461
   29       -3.307024
   30       -3.216215
   31       -3.212965
   32       -3.118460
   33       -2.227422
   34       -2.170695
   35       -2.166875
   36       -2.149926
   37       -2.103301
   38       -1.197536
   39       -1.143781
   40       -1.141330
   41       -1.077568
   42       -1.007420
   43       -1.005852
   44       -0.985173
   45       -0.676576
   46       -0.626263
   47       -0.623066
   48       -0.571017
   49        0.098065
   50        0.100057
   51        0.151501
   52        0.221910
   53        0.259442
   54        0.261335
   55        0.301422
   56        0.394058
   57        1.173803
   58        1.175950
   59        1.418849
   60        2.396292
   61        3.160429
   62        3.898431
   63        3.899921
   64        4.527456
   65        6.256604
   66        6.535449
   67        6.537259
   68        7.013932
   69        9.231257
   70        9.659954
   71        9.662661
   72       10.116671
   73       10.705079
   74       11.148417
   75       11.151695
   76       11.525213
   77       11.698989
   78       12.665447
   79       13.000712
   80       13.246202
   81       13.250735
   82       13.657050
   83       13.674262
   84       13.847992
 
 -0.3333333E+00  0.3333333E+00  0.0000000E+00  0.1388889E-01
    1      -13.801692
    2      -13.581997
    3      -13.581218
    4      -13.339189
    5      -11.846597
    6      -11.650520
    7      -11.649760
    8      -11.436480
    9       -9.965646
   10       -9.963768
   11       -9.795342
   12       -9.793796
   13       -9.793721
   14       -9.791458
   15       -9.611150
   16       -9.609217
   17       -6.230491
   18       -6.228477
   19       -6.112808
   20       -6.109874
   21       -6.109825
   22       -6.108792
   23       -5.985258
   24       -5.983299
   25       -4.449918
   26       -4.340963
   27       -4.338401
   28       -4.223881
   29       -2.824229
   30       -2.822333
   31       -2.748688
   32       -2.748562
   33       -2.748473
   34       -2.745609
   35       -2.743952
   36       -2.668294
   37       -2.666058
   38       -1.584868
   39       -1.582602
   40       -0.511769
   41       -0.465893
   42       -0.463220
   43       -0.424610
   44       -0.416733
   45       -0.142714
   46       -0.087269
   47       -0.032724
   48       -0.028387
   49        0.026717
   50        0.623859
   51        0.625763
   52        1.108816
   53        1.143858
   54        1.147824
   55        1.183166
   56        1.717427
   57        1.719476
   58        1.883037
   59        2.597733
   60        2.598753
   61        2.599069
   62        2.603134
   63        3.546553
   64        3.548957
   65        7.321431
   66        7.324286
   67        7.745571
   68        7.750894
   69        7.751170
   70        7.752662
   71        8.331544
   72        8.334370
   73        9.589328
   74       10.126947
   75       10.130808
   76       10.848304
   77       10.939111
   78       12.710299
   79       13.000693
   80       13.002153
   81       13.088257
   82       13.462857
   83       13.467846
   84       13.502159
 
 -0.1666667E+00  0.3333333E+00  0.0000000E+00  0.1388889E-01
    1      -13.966740
    2      -13.745062
    3      -13.744280
    4      -13.499817
    5      -11.052895
    6      -11.046302
    7      -10.867339
    8      -10.866268
    9      -10.860477
   10      -10.858725
   11      -10.664937
   12      -10.658244
   13       -8.660925
   14       -8.559740
   15       -8.557742
   16       -8.483690
   17       -7.581820
   18       -7.546620
   19       -7.543653
   20       -7.461948
   21       -5.459614
   22       -5.452311
   23       -5.341338
   24       -5.340703
   25       -5.333964
   26       -5.332076
   27       -5.214991
   28       -5.207983
   29       -3.013436
   30       -2.944589
   31       -2.934995
   32       -2.932297
   33       -2.849677
   34       -1.776768
   35       -1.774494
   36       -1.329773
   37       -1.315549
   38       -1.272338
   39       -1.272003
   40       -1.258437
   41       -1.256740
   42       -1.212686
   43       -1.198423
   44       -0.323615
   45        0.488519
   46        0.494229
   47        0.550253
   48        0.578831
   49        0.584223