   4   4   0   0
  0.6204108E+01  0.2467155E-09  0.2467155E-09  0.4708020E-09  0.5000000E-15
  1.000000000000000E-004
  CAR 
 graphite                                
     23.67602375    -14.44213255  301      8.45158578      1.00000000
    -14.442  0.0000E+00  0.0000E+00
    -14.315  0.0000E+00  0.0000E+00
    -14.188  0.0000E+00  0.0000E+00
    -14.061  0.0000E+00  0.0000E+00
    -13.934  0.0000E+00  0.0000E+00
    -13.807  0.0000E+00  0.0000E+00
    -13.680  0.0000E+00  0.0000E+00
    -13.553  0.0000E+00  0.0000E+00
    -13.426  0.0000E+00  0.0000E+00
    -13.299  0.0000E+00  0.0000E+00
    -13.172  0.0000E+00  0.0000E+00
    -13.044  0.0000E+00  0.0000E+00
    -12.917  0.0000E+00  0.0000E+00
    -12.790  0.0000E+00  0.0000E+00
    -12.663  0.0000E+00  0.0000E+00
    -12.536  0.0000E+00  0.0000E+00
    -12.409  0.5982E-04  0.6574E-06
    -12.282  0.4605E-03  0.4263E-04
    -12.155  0.7224E-03  0.1188E-03
    -12.028  0.8452E-03  0.2175E-03
    -11.901  0.1006E-02  0.3352E-03
    -11.774  0.1122E-02  0.4703E-03
    -11.647  0.1224E-02  0.6190E-03
    -11.520  0.1344E-02  0.7821E-03
    -11.393  0.1440E-02  0.9593E-03
    -11.266  0.1533E-02  0.1148E-02
    -11.139  0.1629E-02  0.1349E-02
    -11.011  0.1733E-02  0.1563E-02
    -10.884  0.1819E-02  0.1788E-02
    -10.757  0.1907E-02  0.2025E-02
    -10.630  0.2001E-02  0.2273E-02
    -10.503  0.2098E-02  0.2534E-02
    -10.376  0.2200E-02  0.2807E-02
    -10.249  0.2292E-02  0.3092E-02
    -10.122  0.2407E-02  0.3390E-02
     -9.995  0.2526E-02  0.3704E-02
     -9.868  0.2649E-02  0.4032E-02
     -9.741  0.2902E-02  0.4383E-02
     -9.614  0.3109E-02  0.4769E-02
     -9.487  0.3107E-02  0.5164E-02
     -9.360  0.3117E-02  0.5558E-02
     -9.233  0.3119E-02  0.5955E-02
     -9.106  0.3121E-02  0.6351E-02
     -8.979  0.3141E-02  0.6748E-02
     -8.851  0.3145E-02  0.7148E-02
     -8.724  0.3150E-02  0.7548E-02
     -8.597  0.3162E-02  0.7949E-02
     -8.470  0.3171E-02  0.8351E-02
     -8.343  0.3174E-02  0.8754E-02
     -8.216  0.3187E-02  0.9158E-02
     -8.089  0.3204E-02  0.9564E-02
     -7.962  0.3223E-02  0.9973E-02
     -7.835  0.3233E-02  0.1038E-01
     -7.708  0.3246E-02  0.1079E-01
     -7.581  0.3270E-02  0.1121E-01
     -7.454  0.3302E-02  0.1163E-01
     -7.327  0.3349E-02  0.1205E-01
     -7.200  0.3401E-02  0.1248E-01
     -7.073  0.3584E-02  0.1292E-01
     -6.946  0.3717E-02  0.1338E-01
     -6.819  0.3635E-02  0.1385E-01
     -6.691  0.3593E-02  0.1431E-01
     -6.564  0.3561E-02  0.1478E-01
     -6.437  0.3414E-02  0.1523E-01
     -6.310  0.3306E-02  0.1565E-01
     -6.183  0.3273E-02  0.1607E-01
     -6.056  0.3282E-02  0.1648E-01
     -5.929  0.3992E-02  0.1693E-01
     -5.802  0.4830E-02  0.1748E-01
     -5.675  0.3138E-02  0.1807E-01
     -5.548  0.2628E-02  0.1843E-01
     -5.421  0.2237E-02  0.1874E-01
     -5.294  0.2144E-02  0.1903E-01
     -5.167  0.1540E-02  0.1926E-01
     -5.040  0.1202E-02  0.1944E-01
     -4.913  0.1363E-02  0.1959E-01
     -4.786  0.2038E-02  0.1982E-01
     -4.658  0.2766E-02  0.2011E-01
     -4.531  0.3370E-02  0.2052E-01
     -4.404  0.3144E-02  0.2096E-01
     -4.277  0.3119E-02  0.2134E-01
     -4.150  0.3270E-02  0.2174E-01
     -4.023  0.4882E-02  0.2222E-01
     -3.896  0.4578E-02  0.2284E-01
     -3.769  0.3971E-02  0.2338E-01
     -3.642  0.3835E-02  0.2388E-01
     -3.515  0.3759E-02  0.2436E-01
     -3.388  0.3893E-02  0.2484E-01
     -3.261  0.3749E-02  0.2533E-01
     -3.134  0.3482E-02  0.2582E-01
     -3.007  0.3270E-02  0.2624E-01
     -2.880  0.3144E-02  0.2665E-01
     -2.753  0.3011E-02  0.2704E-01
     -2.626  0.2861E-02  0.2741E-01
     -2.498  0.2811E-02  0.2777E-01
     -2.371  0.2814E-02  0.2813E-01
     -2.244  0.2873E-02  0.2849E-01
     -2.117  0.3049E-02  0.2886E-01
     -1.990  0.3366E-02  0.2927E-01
     -1.863  0.3948E-02  0.2975E-01
     -1.736  0.3846E-02  0.3028E-01
     -1.609  0.4001E-02  0.3078E-01
     -1.482  0.4146E-02  0.3130E-01
     -1.355  0.4293E-02  0.3183E-01
     -1.228  0.4384E-02  0.3239E-01
     -1.101  0.4442E-02  0.3295E-01
     -0.974  0.4536E-02  0.3352E-01
     -0.847  0.4613E-02  0.3410E-01
     -0.720  0.4714E-02  0.3469E-01
     -0.593  0.4885E-02  0.3530E-01
     -0.465  0.5053E-02  0.3593E-01
     -0.338  0.5079E-02  0.3658E-01
     -0.211  0.4910E-02  0.3721E-01
     -0.084  0.5088E-02  0.3784E-01
      0.043  0.5092E-02  0.3849E-01
      0.170  0.5118E-02  0.3914E-01
      0.297  0.5234E-02  0.3979E-01
      0.424  0.4878E-02  0.4044E-01
      0.551  0.4889E-02  0.4106E-01
      0.678  0.5055E-02  0.4169E-01
      0.805  0.5490E-02  0.4236E-01
      0.932  0.6529E-02  0.4317E-01
      1.059  0.6709E-02  0.4401E-01
      1.186  0.6534E-02  0.4487E-01
      1.313  0.6623E-02  0.4571E-01
      1.440  0.6733E-02  0.4655E-01
      1.567  0.7194E-02  0.4743E-01
      1.695  0.7315E-02  0.4836E-01
      1.822  0.7683E-02  0.4931E-01
      1.949  0.8142E-02  0.5033E-01
      2.076  0.7980E-02  0.5135E-01
      2.203  0.8095E-02  0.5237E-01
      2.330  0.8291E-02  0.5340E-01
      2.457  0.8033E-02  0.5446E-01
      2.584  0.6322E-02  0.5538E-01
      2.711  0.6402E-02  0.5616E-01
      2.838  0.6880E-02  0.5702E-01
      2.965  0.6522E-02  0.5788E-01
      3.092  0.6175E-02  0.5869E-01
      3.219  0.5910E-02  0.5945E-01
      3.346  0.6029E-02  0.6021E-01
      3.473  0.5853E-02  0.6096E-01
      3.600  0.5862E-02  0.6170E-01
      3.728  0.5772E-02  0.6246E-01
      3.855  0.5402E-02  0.6315E-01
      3.982  0.5486E-02  0.6384E-01
      4.109  0.5407E-02  0.6454E-01
      4.236  0.5234E-02  0.6521E-01
      4.363  0.5055E-02  0.6587E-01
      4.490  0.4909E-02  0.6650E-01
      4.617  0.4973E-02  0.6712E-01
      4.744  0.4984E-02  0.6776E-01
      4.871  0.4765E-02  0.6838E-01
      4.998  0.4651E-02  0.6898E-01
      5.125  0.4483E-02  0.6957E-01
      5.252  0.4112E-02  0.7012E-01
      5.379  0.3545E-02  0.7061E-01
      5.506  0.3026E-02  0.7103E-01
      5.633  0.2601E-02  0.7139E-01
      5.760  0.2389E-02  0.7170E-01
      5.888  0.2442E-02  0.7200E-01
      6.015  0.2587E-02  0.7232E-01
      6.142  0.2767E-02  0.7266E-01
      6.269  0.3104E-02  0.7304E-01
      6.396  0.3242E-02  0.7344E-01
      6.523  0.3481E-02  0.7387E-01
      6.650  0.3848E-02  0.7433E-01
      6.777  0.4514E-02  0.7488E-01
      6.904  0.4082E-02  0.7542E-01
      7.031  0.4007E-02  0.7593E-01
      7.158  0.4131E-02  0.7645E-01
      7.285  0.3798E-02  0.7695E-01
      7.412  0.3642E-02  0.7742E-01
      7.539  0.3741E-02  0.7788E-01
      7.666  0.3659E-02  0.7836E-01
      7.793  0.3325E-02  0.7882E-01
      7.921  0.2432E-02  0.7917E-01
      8.048  0.1985E-02  0.7945E-01
      8.175  0.1570E-02  0.7968E-01
      8.302  0.1150E-02  0.7985E-01
      8.429  0.1069E-02  0.7998E-01
      8.556  0.2509E-03  0.8006E-01
      8.683  0.7312E-03  0.8011E-01
      8.810  0.5651E-03  0.8018E-01
      8.937  0.6457E-03  0.8026E-01
      9.064  0.6609E-03  0.8034E-01
      9.191  0.7412E-03  0.8043E-01
      9.318  0.8246E-03  0.8053E-01
      9.445  0.9146E-03  0.8064E-01
      9.572  0.1010E-02  0.8077E-01
      9.699  0.1214E-02  0.8090E-01
      9.826  0.1518E-02  0.8108E-01
      9.953  0.1696E-02  0.8128E-01
     10.081  0.2158E-02  0.8152E-01
     10.208  0.3598E-02  0.8184E-01
     10.335  0.3402E-02  0.8229E-01
     10.462  0.3476E-02  0.8273E-01
     10.589  0.3862E-02  0.8320E-01
     10.716  0.3734E-02  0.8368E-01
     10.843  0.3712E-02  0.8415E-01
     10.970  0.3829E-02  0.8463E-01
     11.097  0.3918E-02  0.8513E-01
     11.224  0.3355E-02  0.8559E-01
     11.351  0.3155E-02  0.8601E-01
     11.478  0.3031E-02  0.8640E-01
     11.605  0.2889E-02  0.8677E-01
     11.732  0.2758E-02  0.8713E-01
     11.859  0.2687E-02  0.8748E-01
     11.986  0.2663E-02  0.8782E-01
     12.114  0.2696E-02  0.8816E-01
     12.241  0.3067E-02  0.8852E-01
     12.368  0.3383E-02  0.8893E-01
     12.495  0.3511E-02  0.8937E-01
     12.622  0.3004E-02  0.8979E-01
     12.749  0.2697E-02  0.9015E-01
     12.876  0.2592E-02  0.9049E-01
     13.003  0.2456E-02  0.9081E-01
     13.130  0.2342E-02  0.9111E-01
     13.257  0.2295E-02  0.9140E-01
     13.384  0.2254E-02  0.9169E-01
     13.511  0.2213E-02  0.9198E-01
     13.638  0.2172E-02  0.9226E-01
     13.765  0.2121E-02  0.9253E-01
     13.892  0.2068E-02  0.9279E-01
     14.019  0.2045E-02  0.9306E-01
     14.146  0.2030E-02  0.9331E-01
     14.274  0.2103E-02  0.9357E-01
     14.401  0.2419E-02  0.9386E-01
     14.528  0.2718E-02  0.9419E-01
     14.655  0.2917E-02  0.9455E-01
     14.782  0.3010E-02  0.9492E-01
     14.909  0.3124E-02  0.9531E-01
     15.036  0.3224E-02  0.9572E-01
     15.163  0.3350E-02  0.9613E-01
     15.290  0.3515E-02  0.9657E-01
     15.417  0.3701E-02  0.9703E-01
     15.544  0.3881E-02  0.9751E-01
     15.671  0.3990E-02  0.9801E-01
     15.798  0.4096E-02  0.9852E-01
     15.925  0.4292E-02  0.9906E-01
     16.052  0.4526E-02  0.9962E-01
     16.179  0.4759E-02  0.1002E+00
     16.307  0.5773E-02  0.1009E+00
     16.434  0.8178E-02  0.1017E+00
     16.561  0.5164E-02  0.1024E+00
     16.688  0.5360E-02  0.1031E+00
     16.815  0.6122E-02  0.1038E+00
     16.942  0.5440E-02  0.1045E+00
     17.069  0.5186E-02  0.1052E+00
     17.196  0.5911E-02  0.1059E+00
     17.323  0.7511E-02  0.1067E+00
     17.450  0.7998E-02  0.1077E+00
     17.577  0.7080E-02  0.1087E+00
     17.704  0.6482E-02  0.1095E+00
     17.831  0.6009E-02  0.1103E+00
     17.958  0.5756E-02  0.1111E+00
     18.085  0.5911E-02  0.1118E+00
     18.212  0.6490E-02  0.1126E+00
     18.339  0.6260E-02  0.1134E+00
     18.467  0.5432E-02  0.1142E+00
     18.594  0.4517E-02  0.1148E+00
     18.721  0.3289E-02  0.1153E+00
     18.848  0.3156E-02  0.1157E+00
     18.975  0.2798E-02  0.1160E+00
     19.102  0.2785E-02  0.1164E+00
     19.229  0.3041E-02  0.1168E+00
     19.356  0.3547E-02  0.1172E+00
     19.483  0.3513E-02  0.1176E+00
     19.610  0.2658E-02  0.1180E+00
     19.737  0.2106E-02  0.1183E+00
     19.864  0.1785E-02  0.1186E+00
     19.991  0.1626E-02  0.1188E+00
     20.118  0.1452E-02  0.1190E+00
     20.245  0.1207E-02  0.1192E+00
     20.372  0.1086E-02  0.1193E+00
     20.500  0.1054E-02  0.1195E+00
     20.627  0.6626E-03  0.1196E+00
     20.754  0.5768E-03  0.1196E+00
     20.881  0.4986E-03  0.1197E+00
     21.008  0.4279E-03  0.1198E+00
     21.135  0.3647E-03  0.1198E+00
     21.262  0.5210E-03  0.1199E+00
     21.389  0.4369E-03  0.1199E+00
     21.516  0.3611E-03  0.1200E+00
     21.643  0.1364E-04  0.1200E+00
     21.770  0.0000E+00  0.1200E+00
     21.897  0.0000E+00  0.1200E+00
     22.024  0.0000E+00  0.1200E+00
     22.151  0.0000E+00  0.1200E+00
     22.278  0.0000E+00  0.1200E+00
     22.405  0.0000E+00  0.1200E+00
     22.532  0.0000E+00  0.1200E+00
     22.660  0.0000E+00  0.1200E+00
     22.787  0.0000E+00  0.1200E+00
     22.914  0.0000E+00  0.1200E+00
     23.041  0.0000E+00  0.1200E+00
     23.168  0.0000E+00  0.1200E+00
     23.295  0.0000E+00  0.1200E+00
     23.422  0.0000E+00  0.1200E+00
     23.549  0.0000E+00  0.1200E+00
     23.676  0.0000E+00  0.1200E+00
