32   
4    

1    
  0.0046416198854201  -0.0000002092078242   0.0088575033048543
  -0.2823192700    0.0050088800   -0.1360642600
   0.0389839500    0.0032756000    0.0074493200
  -0.0105463900   -0.0253707900    0.0075442000
  -0.0109011000    0.0319033300    0.0072768300
  -0.0030472300    0.0033790300    0.0090100100
  -0.0047863100    0.0034620700    0.0117269100
  -0.0041103400    0.0037314400    0.0117153900
  -0.0038150300    0.0028714700    0.0117627400
   0.0068054500   -0.0041606400   -0.0100367000
   0.0014473300   -0.0055843800   -0.0129343900
   0.0054821400   -0.0000765100   -0.0114805300
   0.0015148000   -0.0033706400   -0.0047463000
   0.0013551800   -0.0009535100   -0.0132896300
   0.0068424200   -0.0024746400   -0.0104359300
   0.0053113300   -0.0066466100   -0.0118919900
   0.0017407000   -0.0033658300   -0.0043973000
   0.0051006100   -0.0021191200    0.0111604300
   0.0469389000   -0.0024611700    0.0261127500
   0.1017964900    0.0295700000    0.0266370000
   0.1036356600   -0.0349409000    0.0254851200
   0.0031200400   -0.0024912800   -0.0027431800
   0.0037455900   -0.0026811300   -0.0029928500
   0.0036566100   -0.0026265600   -0.0030055600
   0.0034516400   -0.0023382600   -0.0029118700
  -0.0100851500    0.0052996100    0.0106050100
   0.0052692100    0.0085054600    0.0128918000
  -0.0050871800   -0.0063117000    0.0117817800
  -0.0024369800    0.0024015400    0.0017161800
   0.0058678200   -0.0036337900    0.0120099200
  -0.0091057900   -0.0007328500    0.0099121900
  -0.0042091500    0.0107392900    0.0109348100
  -0.0016159500    0.0021925900    0.0011980700

1    
 -0.0046416198854201   0.0000002092078242  -0.0088575033048543
   0.2710370200    0.0048345600    0.1360965800
  -0.0504470300    0.0033131900   -0.0074183400
  -0.0006836600    0.0320016400   -0.0073257100
  -0.0005982600   -0.0254231500   -0.0074316200
  -0.0083842800    0.0033251800   -0.0090112200
  -0.0068656800    0.0034485200   -0.0117300200
  -0.0077290300    0.0028885700   -0.0117299200
  -0.0074290100    0.0036720900   -0.0117502700
   0.0044921200   -0.0025081800    0.0103684300
   0.0102012000   -0.0010286300    0.0132626300
   0.0061076400   -0.0067174000    0.0117939300
   0.0096983900   -0.0033064100    0.0043920300
   0.0099346600   -0.0055049400    0.0129169900
   0.0047363700   -0.0042626500    0.0100618500
   0.0061833100   -0.0001759000    0.0115391100
   0.0097566500   -0.0032079600    0.0047064700
   0.0015006800   -0.0016923700   -0.0107581900
  -0.0402069300   -0.0021850400   -0.0257098800
  -0.0968126900   -0.0346135200   -0.0251777700
  -0.0952776800    0.0299362500   -0.0261387300
   0.0054801000   -0.0024549300    0.0022447900
   0.0049518700   -0.0026232800    0.0024956200
   0.0052049500   -0.0023471500    0.0024791800
   0.0049853700   -0.0025412500    0.0024381700
   0.0016757700   -0.0005119400   -0.0098430100
  -0.0134012600   -0.0034360500   -0.0119620100
  -0.0033003300    0.0109547700   -0.0109592100
  -0.0058815300    0.0023507300   -0.0011049200
  -0.0130057100    0.0079186400   -0.0128319300
   0.0021753700    0.0048632800   -0.0105585700
  -0.0028304300   -0.0068553700   -0.0116553700
  -0.0052679600    0.0018887100   -0.0016990800

17   
  0.0046416198854201  -0.0000002092078242   0.0088575033048543
  -0.0042053400    0.0032983100    0.0033768600
   0.0376264900    0.0039920400    0.0183661900
   0.0940729600    0.0361825900    0.0177433900
   0.0927891900   -0.0283185200    0.0188854100
  -0.0074156000    0.0032743800   -0.0106425500
  -0.0066654600    0.0034856500   -0.0109336800
  -0.0070614400    0.0031269500   -0.0109404200
  -0.0067898100    0.0034663100   -0.0108508600
   0.0055398000   -0.0036676500    0.0153512600
   0.0101678600   -0.0004294100    0.0233262800
   0.0051025000   -0.0058388000    0.0193117600
   0.0076655100   -0.0031906100    0.0093316700
   0.0097820400   -0.0060617000    0.0229273500
   0.0059436400   -0.0030965600    0.0151715700
   0.0052719600   -0.0011397000    0.0190902700
   0.0080532500   -0.0034287600    0.0092487300
  -0.2755473400   -0.0042996900   -0.1710372700
   0.0475665600   -0.0026536400    0.0004130200
   0.0057737300   -0.0267934100    0.0003385800
   0.0057199700    0.0214757000    0.0004040600
   0.0052706300   -0.0021735900    0.0025768100
   0.0049980700   -0.0022565400    0.0016648600
   0.0053644800   -0.0020307500    0.0016655500
   0.0051404400   -0.0022842900    0.0016890900
  -0.0040865600    0.0016602800    0.0043268500
  -0.0071265300    0.0017215800    0.0027725400
  -0.0056271000    0.0042101600    0.0035065600
  -0.0095879500    0.0024285400   -0.0031030200
  -0.0073126700    0.0032623200    0.0024459500
  -0.0048058100    0.0028989900    0.0038095000
  -0.0057701500    0.0009017300    0.0031401900
  -0.0098472900    0.0022781100   -0.0033765200

17   
 -0.0046416198854201   0.0000002092078242  -0.0088575033048543
  -0.0072987900    0.0035072900   -0.0032289800
  -0.0494252700    0.0039702500   -0.0182230800
  -0.1042764700   -0.0281312300   -0.0188227800
  -0.1059105700    0.0362027700   -0.0175171000
  -0.0041199000    0.0032835900    0.0105382100
  -0.0050993100    0.0035456700    0.0108339700
  -0.0048218300    0.0035823400    0.0108313500
  -0.0046338900    0.0030226200    0.0107672900
   0.0058782500   -0.0031563000   -0.0151341700
   0.0018722000   -0.0060826400   -0.0229059700
   0.0065033500   -0.0011159200   -0.0190212700
   0.0036343500   -0.0035551200   -0.0092651400
   0.0014778200   -0.0003161400   -0.0233904300
   0.0059160500   -0.0038425100   -0.0154428200
   0.0067074300   -0.0058991900   -0.0194232500
   0.0036468000   -0.0032826400   -0.0093597400
   0.2865615500   -0.0048224200    0.1711756100
  -0.0363932300   -0.0030370500   -0.0002814000
   0.0052843500    0.0210462600   -0.0003612600
   0.0054422100   -0.0271407100   -0.0001238000
   0.0034905900   -0.0024849500   -0.0028082800
   0.0039286600   -0.0025186900   -0.0018894600
   0.0037379900   -0.0025612600   -0.0018817100
   0.0034899700   -0.0022958300   -0.0019301700
  -0.0050435400    0.0032626200   -0.0036548500
  -0.0024104800    0.0037114000   -0.0022607300
  -0.0040480600    0.0012988100   -0.0029411900
   0.0000338400    0.0027062400    0.0034953000
  -0.0030300900    0.0018871900   -0.0028564400
  -0.0060142300    0.0020121200   -0.0043759800
  -0.0046685200    0.0044488400   -0.0036159100
  -0.0004112300    0.0027545800    0.0030742100
