  32  32   0   0
  0.8206758E+01  0.4932875E-09  0.4932875E-09  0.1246769E-08  0.5000000E-15
  1.000000000000000E-004
  CAR 
 graphite                                
     17.14019155    -16.38149877  301      5.32990644      1.00000000
    -16.381  0.0000E+00  0.0000E+00
    -16.270  0.0000E+00  0.0000E+00
    -16.158  0.0000E+00  0.0000E+00
    -16.046  0.0000E+00  0.0000E+00
    -15.935  0.0000E+00  0.0000E+00
    -15.823  0.0000E+00  0.0000E+00
    -15.711  0.0000E+00  0.0000E+00
    -15.599  0.0000E+00  0.0000E+00
    -15.488  0.0000E+00  0.0000E+00
    -15.376  0.0000E+00  0.0000E+00
    -15.264  0.0000E+00  0.0000E+00
    -15.152  0.0000E+00  0.0000E+00
    -15.041  0.0000E+00  0.0000E+00
    -14.929  0.0000E+00  0.0000E+00
    -14.817  0.0000E+00  0.0000E+00
    -14.705  0.0000E+00  0.0000E+00
    -14.594  0.0000E+00  0.0000E+00
    -14.482  0.0000E+00  0.0000E+00
    -14.370  0.4844E-01  0.1825E-03
    -14.258  0.1448E+01  0.1009E+00
    -14.147  0.2313E+01  0.3099E+00
    -14.035  0.2907E+01  0.6016E+00
    -13.923  0.3737E+01  0.9703E+00
    -13.812  0.5107E+01  0.1467E+01
    -13.700  0.4939E+01  0.2014E+01
    -13.588  0.4872E+01  0.2563E+01
    -13.476  0.5002E+01  0.3115E+01
    -13.365  0.4924E+01  0.3672E+01
    -13.253  0.4931E+01  0.4222E+01
    -13.141  0.5383E+01  0.4793E+01
    -13.029  0.5581E+01  0.5407E+01
    -12.918  0.6378E+01  0.6072E+01
    -12.806  0.5637E+01  0.6770E+01
    -12.694  0.4100E+01  0.7324E+01
    -12.582  0.2635E+01  0.7669E+01
    -12.471  0.3680E+01  0.8045E+01
    -12.359  0.3780E+01  0.8430E+01
    -12.247  0.5820E+01  0.9112E+01
    -12.135  0.5315E+01  0.9721E+01
    -12.024  0.5547E+01  0.1031E+02
    -11.912  0.5310E+01  0.1094E+02
    -11.800  0.4838E+01  0.1148E+02
    -11.688  0.5185E+01  0.1204E+02
    -11.577  0.5006E+01  0.1261E+02
    -11.465  0.5001E+01  0.1316E+02
    -11.353  0.5155E+01  0.1373E+02
    -11.242  0.5771E+01  0.1434E+02
    -11.130  0.5003E+01  0.1493E+02
    -11.018  0.5018E+01  0.1549E+02
    -10.906  0.5093E+01  0.1605E+02
    -10.795  0.5181E+01  0.1663E+02
    -10.683  0.5254E+01  0.1721E+02
    -10.571  0.5332E+01  0.1780E+02
    -10.459  0.5583E+01  0.1841E+02
    -10.348  0.5712E+01  0.1904E+02
    -10.236  0.5962E+01  0.1969E+02
    -10.124  0.6079E+01  0.2037E+02
    -10.012  0.6119E+01  0.2105E+02
     -9.901  0.5115E+01  0.2168E+02
     -9.789  0.4135E+01  0.2219E+02
     -9.677  0.4237E+01  0.2265E+02
     -9.565  0.5011E+01  0.2317E+02
     -9.454  0.5393E+01  0.2375E+02
     -9.342  0.5602E+01  0.2437E+02
     -9.230  0.6291E+01  0.2502E+02
     -9.118  0.7031E+01  0.2576E+02
     -9.007  0.8566E+01  0.2663E+02
     -8.895  0.8551E+01  0.2765E+02
     -8.783  0.6088E+01  0.2851E+02
     -8.672  0.4921E+01  0.2911E+02
     -8.560  0.3629E+01  0.2966E+02
     -8.448  0.3235E+01  0.3005E+02
     -8.336  0.2840E+01  0.3038E+02
     -8.225  0.2496E+01  0.3068E+02
     -8.113  0.2936E+01  0.3099E+02
     -8.001  0.2325E+01  0.3127E+02
     -7.889  0.1865E+01  0.3151E+02
     -7.778  0.2081E+01  0.3172E+02
     -7.666  0.4211E+01  0.3202E+02
     -7.554  0.6255E+01  0.3269E+02
     -7.442  0.4233E+01  0.3321E+02
     -7.331  0.4118E+01  0.3368E+02
     -7.219  0.6201E+01  0.3423E+02
     -7.107  0.6641E+01  0.3491E+02
     -6.995  0.6751E+01  0.3571E+02
     -6.884  0.7926E+01  0.3653E+02
     -6.772  0.8198E+01  0.3747E+02
     -6.660  0.7256E+01  0.3834E+02
     -6.548  0.6102E+01  0.3906E+02
     -6.437  0.5811E+01  0.3972E+02
     -6.325  0.5576E+01  0.4036E+02
     -6.213  0.5374E+01  0.4097E+02
     -6.102  0.5188E+01  0.4156E+02
     -5.990  0.4997E+01  0.4213E+02
     -5.878  0.4863E+01  0.4268E+02
     -5.766  0.4828E+01  0.4322E+02
     -5.655  0.4795E+01  0.4376E+02
     -5.543  0.4622E+01  0.4428E+02
     -5.431  0.4513E+01  0.4479E+02
     -5.319  0.3764E+01  0.4527E+02
     -5.208  0.3842E+01  0.4567E+02
     -5.096  0.4475E+01  0.4614E+02
     -4.984  0.5195E+01  0.4668E+02
     -4.872  0.5947E+01  0.4730E+02
     -4.761  0.8009E+01  0.4805E+02
     -4.649  0.9336E+01  0.4903E+02
     -4.537  0.8382E+01  0.5009E+02
     -4.425  0.5674E+01  0.5087E+02
     -4.314  0.3040E+01  0.5135E+02
     -4.202  0.2392E+01  0.5163E+02
     -4.090  0.3355E+01  0.5195E+02
     -3.978  0.4799E+01  0.5240E+02
     -3.867  0.6508E+01  0.5303E+02
     -3.755  0.7886E+01  0.5385E+02
     -3.643  0.7769E+01  0.5474E+02
     -3.532  0.6257E+01  0.5553E+02
     -3.420  0.5622E+01  0.5618E+02
     -3.308  0.8409E+01  0.5696E+02
     -3.196  0.8112E+01  0.5788E+02
     -3.085  0.7790E+01  0.5877E+02
     -2.973  0.7614E+01  0.5963E+02
     -2.861  0.7657E+01  0.6048E+02
     -2.749  0.8078E+01  0.6145E+02
     -2.638  0.8793E+01  0.6242E+02
     -2.526  0.9186E+01  0.6346E+02
     -2.414  0.7786E+01  0.6441E+02
     -2.302  0.7125E+01  0.6521E+02
     -2.191  0.8125E+01  0.6606E+02
     -2.079  0.9697E+01  0.6705E+02
     -1.967  0.1100E+02  0.6824E+02
     -1.855  0.1256E+02  0.6955E+02
     -1.744  0.1056E+02  0.7088E+02
     -1.632  0.1151E+02  0.7205E+02
     -1.520  0.1256E+02  0.7339E+02
     -1.408  0.1452E+02  0.7490E+02
     -1.297  0.1266E+02  0.7648E+02
     -1.185  0.1530E+02  0.7796E+02
     -1.073  0.1095E+02  0.7949E+02
     -0.962  0.1888E+02  0.8093E+02
     -0.850  0.1834E+02  0.8308E+02
     -0.738  0.1577E+02  0.8502E+02
     -0.626  0.1389E+02  0.8667E+02
     -0.515  0.1195E+02  0.8812E+02
     -0.403  0.1024E+02  0.8935E+02
     -0.291  0.9535E+01  0.9046E+02
     -0.179  0.9407E+01  0.9148E+02
     -0.068  0.1308E+02  0.9272E+02
      0.044  0.1367E+02  0.9422E+02
      0.156  0.1044E+02  0.9576E+02
      0.268  0.8922E+01  0.9682E+02
      0.379  0.9277E+01  0.9777E+02
      0.491  0.9910E+01  0.9886E+02
      0.603  0.1062E+02  0.1000E+03
      0.715  0.1180E+02  0.1013E+03
      0.826  0.1080E+02  0.1025E+03
      0.938  0.9415E+01  0.1036E+03
      1.050  0.9300E+01  0.1046E+03
      1.162  0.9363E+01  0.1057E+03
      1.273  0.9367E+01  0.1067E+03
      1.385  0.9562E+01  0.1078E+03
      1.497  0.9441E+01  0.1088E+03
      1.608  0.9482E+01  0.1099E+03
      1.720  0.9924E+01  0.1110E+03
      1.832  0.9177E+01  0.1120E+03
      1.944  0.8678E+01  0.1131E+03
      2.055  0.8799E+01  0.1140E+03
      2.167  0.9461E+01  0.1151E+03
      2.279  0.9285E+01  0.1161E+03
      2.391  0.6147E+01  0.1170E+03
      2.502  0.6345E+01  0.1177E+03
      2.614  0.6293E+01  0.1184E+03
      2.726  0.5606E+01  0.1191E+03
      2.838  0.3598E+01  0.1195E+03
      2.949  0.5914E+01  0.1200E+03
      3.061  0.8459E+01  0.1209E+03
      3.173  0.8522E+01  0.1218E+03
      3.285  0.4981E+01  0.1225E+03
      3.396  0.5371E+01  0.1231E+03
      3.508  0.5412E+01  0.1237E+03
      3.620  0.6281E+01  0.1244E+03
      3.732  0.5354E+01  0.1250E+03
      3.843  0.3994E+01  0.1256E+03
      3.955  0.3274E+01  0.1260E+03
      4.067  0.2931E+01  0.1263E+03
      4.178  0.2595E+01  0.1266E+03
      4.290  0.2233E+01  0.1269E+03
      4.402  0.1827E+01  0.1271E+03
      4.514  0.1610E+01  0.1273E+03
      4.625  0.1391E+01  0.1275E+03
      4.737  0.1197E+01  0.1276E+03
      4.849  0.1020E+01  0.1277E+03
      4.961  0.9272E+00  0.1278E+03
      5.072  0.6284E+00  0.1279E+03
      5.184  0.3352E+00  0.1280E+03
      5.296  0.4765E-01  0.1280E+03
      5.408  0.7828E-01  0.1280E+03
      5.519  0.2321E+00  0.1280E+03
      5.631  0.3939E+00  0.1281E+03
      5.743  0.5639E+00  0.1281E+03
      5.855  0.7463E+00  0.1282E+03
      5.966  0.9334E+00  0.1283E+03
      6.078  0.1121E+01  0.1284E+03
      6.190  0.1384E+01  0.1285E+03
      6.302  0.1658E+01  0.1287E+03
      6.413  0.1980E+01  0.1289E+03
      6.525  0.2420E+01  0.1291E+03
      6.637  0.3565E+01  0.1295E+03
      6.748  0.4870E+01  0.1299E+03
      6.860  0.6204E+01  0.1306E+03
      6.972  0.9606E+01  0.1317E+03
      7.084  0.8027E+01  0.1327E+03
      7.195  0.7224E+01  0.1335E+03
      7.307  0.7031E+01  0.1343E+03
      7.419  0.7011E+01  0.1351E+03
      7.531  0.5945E+01  0.1359E+03
      7.642  0.5100E+01  0.1365E+03
      7.754  0.4348E+01  0.1370E+03
      7.866  0.4196E+01  0.1375E+03
      7.978  0.3533E+01  0.1379E+03
      8.089  0.3599E+01  0.1383E+03
      8.201  0.3867E+01  0.1387E+03
      8.313  0.4251E+01  0.1392E+03
      8.425  0.4680E+01  0.1397E+03
      8.536  0.4922E+01  0.1402E+03
      8.648  0.4919E+01  0.1408E+03
      8.760  0.4545E+01  0.1413E+03
      8.872  0.4186E+01  0.1418E+03
      8.983  0.4031E+01  0.1422E+03
      9.095  0.3921E+01  0.1427E+03
      9.207  0.3736E+01  0.1431E+03
      9.318  0.3609E+01  0.1435E+03
      9.430  0.3532E+01  0.1439E+03
      9.542  0.3409E+01  0.1443E+03
      9.654  0.3285E+01  0.1447E+03
      9.765  0.3207E+01  0.1451E+03
      9.877  0.3193E+01  0.1454E+03
      9.989  0.3203E+01  0.1458E+03
     10.101  0.3026E+01  0.1461E+03
     10.212  0.3019E+01  0.1465E+03
     10.324  0.2949E+01  0.1468E+03
     10.436  0.2976E+01  0.1471E+03
     10.548  0.3197E+01  0.1475E+03
     10.659  0.3400E+01  0.1478E+03
     10.771  0.3474E+01  0.1482E+03
     10.883  0.3541E+01  0.1486E+03
     10.995  0.3530E+01  0.1490E+03
     11.106  0.3798E+01  0.1494E+03
     11.218  0.4044E+01  0.1498E+03
     11.330  0.4171E+01  0.1503E+03
     11.442  0.4076E+01  0.1508E+03
     11.553  0.3946E+01  0.1512E+03
     11.665  0.3915E+01  0.1516E+03
     11.777  0.4075E+01  0.1521E+03
     11.888  0.5034E+01  0.1526E+03
     12.000  0.3760E+01  0.1531E+03
     12.112  0.3307E+01  0.1535E+03
     12.224  0.2400E+01  0.1538E+03
     12.335  0.2409E+01  0.1541E+03
     12.447  0.3910E+01  0.1544E+03
     12.559  0.5749E+01  0.1550E+03
     12.671  0.6108E+01  0.1556E+03
     12.782  0.9139E+01  0.1565E+03
     12.894  0.1008E+02  0.1575E+03
     13.006  0.1143E+02  0.1587E+03
     13.118  0.1216E+02  0.1601E+03
     13.229  0.1166E+02  0.1614E+03
     13.341  0.1007E+02  0.1626E+03
     13.453  0.9772E+01  0.1637E+03
     13.565  0.1055E+02  0.1648E+03
     13.676  0.1025E+02  0.1660E+03
     13.788  0.6608E+01  0.1670E+03
     13.900  0.3509E+01  0.1675E+03
     14.012  0.1884E+01  0.1678E+03
     14.123  0.5674E+00  0.1679E+03
     14.235  0.2529E+00  0.1680E+03
     14.347  0.1043E+00  0.1680E+03
     14.458  0.7543E-01  0.1680E+03
     14.570  0.5273E-01  0.1680E+03
     14.682  0.3408E-01  0.1680E+03
     14.794  0.1949E-01  0.1680E+03
     14.905  0.8946E-02  0.1680E+03
     15.017  0.2457E-02  0.1680E+03
     15.129  0.2073E-04  0.1680E+03
     15.241  0.0000E+00  0.1680E+03
     15.352  0.0000E+00  0.1680E+03
     15.464  0.0000E+00  0.1680E+03
     15.576  0.0000E+00  0.1680E+03
     15.688  0.0000E+00  0.1680E+03
     15.799  0.0000E+00  0.1680E+03
     15.911  0.0000E+00  0.1680E+03
     16.023  0.0000E+00  0.1680E+03
     16.135  0.0000E+00  0.1680E+03
     16.246  0.0000E+00  0.1680E+03
     16.358  0.0000E+00  0.1680E+03
     16.470  0.0000E+00  0.1680E+03
     16.581  0.0000E+00  0.1680E+03
     16.693  0.0000E+00  0.1680E+03
     16.805  0.0000E+00  0.1680E+03
     16.917  0.0000E+00  0.1680E+03
     17.028  0.0000E+00  0.1680E+03
     17.140  0.0000E+00  0.1680E+03
