       N       E                     dE             d eps       ncg     rms          rms(c)
DAV:   1     0.547943910958E+03    0.54794E+03   -0.72898E+04 27384   0.162E+03
DAV:   2    -0.266408129993E+03   -0.81435E+03   -0.78397E+03 34020   0.309E+02
DAV:   3    -0.310835924864E+03   -0.44428E+02   -0.43979E+02 33360   0.718E+01
DAV:   4    -0.311623095843E+03   -0.78717E+00   -0.78562E+00 33900   0.103E+01
DAV:   5    -0.311645607753E+03   -0.22512E-01   -0.22501E-01 33840   0.167E+00    0.220E+01
DAV:   6    -0.297802947994E+03    0.13843E+02   -0.14233E+01 31284   0.106E+01    0.115E+01
DAV:   7    -0.293498731596E+03    0.43042E+01   -0.14433E+01 31140   0.107E+01    0.186E+00
DAV:   8    -0.293542440185E+03   -0.43709E-01   -0.34385E-01 31320   0.175E+00    0.390E-01
DAV:   9    -0.293543866269E+03   -0.14261E-02   -0.21007E-02 32664   0.503E-01    0.141E-01
DAV:  10    -0.293544321662E+03   -0.45539E-03   -0.74175E-03 35796   0.275E-01    0.943E-02
DAV:  11    -0.293544475082E+03   -0.15342E-03   -0.31587E-03 31872   0.168E-01    0.610E-02
DAV:  12    -0.293544640458E+03   -0.16538E-03   -0.22722E-03 31524   0.111E-01    0.501E-02
DAV:  13    -0.293544570590E+03    0.69868E-04   -0.18042E-04 31944   0.621E-02    0.312E-02
DAV:  14    -0.293544602560E+03   -0.31971E-04   -0.77913E-04 36060   0.434E-02    0.403E-02
DAV:  15    -0.293544569906E+03    0.32655E-04   -0.61456E-05 32028   0.269E-02    0.243E-02
DAV:  16    -0.293544567490E+03    0.24156E-05   -0.35790E-05 26424   0.790E-03    0.470E-03
DAV:  17    -0.293544587250E+03   -0.19760E-04   -0.18322E-04 26508   0.178E-02    0.363E-02
DAV:  18    -0.293544575944E+03    0.11306E-04   -0.31372E-04 28140   0.259E-02    0.342E-02
DAV:  19    -0.293544571070E+03    0.48741E-05   -0.19319E-04 20700   0.162E-02    0.266E-02
DAV:  20    -0.293544568149E+03    0.29203E-05   -0.85831E-05 19524   0.104E-02    0.151E-02
DAV:  21    -0.293544567741E+03    0.40891E-06   -0.19619E-06 19488   0.323E-03
   1 F= -.29700231E+03 E0= -.29700231E+03  d E =0.000000E+00
