  80  80   0   0
  0.1000489E+02  0.1178544E-08  0.8243535E-09  0.8238402E-09  0.5000000E-15
  1.000000000000000E-004
  CAR 
 diamond                                 
      8.64638021    -16.80375032  301     -6.17832083      1.00000000
    -16.804  0.0000E+00  0.0000E+00
    -16.719  0.0000E+00  0.0000E+00
    -16.634  0.0000E+00  0.0000E+00
    -16.549  0.0000E+00  0.0000E+00
    -16.464  0.0000E+00  0.0000E+00
    -16.380  0.0000E+00  0.0000E+00
    -16.295  0.0000E+00  0.0000E+00
    -16.210  0.0000E+00  0.0000E+00
    -16.125  0.0000E+00  0.0000E+00
    -16.040  0.0000E+00  0.0000E+00
    -15.955  0.0000E+00  0.0000E+00
    -15.871  0.0000E+00  0.0000E+00
    -15.786  0.0000E+00  0.0000E+00
    -15.701  0.0000E+00  0.0000E+00
    -15.616  0.0000E+00  0.0000E+00
    -15.531  0.0000E+00  0.0000E+00
    -15.446  0.0000E+00  0.0000E+00
    -15.362  0.0000E+00  0.0000E+00
    -15.277  0.0000E+00  0.0000E+00
    -15.192  0.0000E+00  0.0000E+00
    -15.107  0.0000E+00  0.0000E+00
    -15.022  0.0000E+00  0.0000E+00
    -14.937  0.0000E+00  0.0000E+00
    -14.853  0.0000E+00  0.0000E+00
    -14.768  0.3889E-01  0.5195E-03
    -14.683  0.1069E+00  0.6386E-02
    -14.598  0.1350E+00  0.1934E-01
    -14.513  0.1597E+00  0.3824E-01
    -14.428  0.3621E+00  0.6699E-01
    -14.344  0.3690E+00  0.1025E+00
    -14.259  0.3478E+00  0.1395E+00
    -14.174  0.3901E-01  0.1599E+00
    -14.089  0.0000E+00  0.1600E+00
    -14.004  0.0000E+00  0.1600E+00
    -13.919  0.0000E+00  0.1600E+00
    -13.835  0.0000E+00  0.1600E+00
    -13.750  0.0000E+00  0.1600E+00
    -13.665  0.0000E+00  0.1600E+00
    -13.580  0.0000E+00  0.1600E+00
    -13.495  0.0000E+00  0.1600E+00
    -13.410  0.0000E+00  0.1600E+00
    -13.326  0.0000E+00  0.1600E+00
    -13.241  0.0000E+00  0.1600E+00
    -13.156  0.0000E+00  0.1600E+00
    -13.071  0.0000E+00  0.1600E+00
    -12.986  0.0000E+00  0.1600E+00
    -12.901  0.0000E+00  0.1600E+00
    -12.817  0.0000E+00  0.1600E+00
    -12.732  0.0000E+00  0.1600E+00
    -12.647  0.0000E+00  0.1600E+00
    -12.562  0.0000E+00  0.1600E+00
    -12.477  0.0000E+00  0.1600E+00
    -12.392  0.0000E+00  0.1600E+00
    -12.308  0.0000E+00  0.1600E+00
    -12.223  0.0000E+00  0.1600E+00
    -12.138  0.0000E+00  0.1600E+00
    -12.053  0.0000E+00  0.1600E+00
    -11.968  0.0000E+00  0.1600E+00
    -11.883  0.0000E+00  0.1600E+00
    -11.799  0.0000E+00  0.1600E+00
    -11.714  0.0000E+00  0.1600E+00
    -11.629  0.0000E+00  0.1600E+00
    -11.544  0.0000E+00  0.1600E+00
    -11.459  0.0000E+00  0.1600E+00
    -11.374  0.0000E+00  0.1600E+00
    -11.290  0.0000E+00  0.1600E+00
    -11.205  0.0000E+00  0.1600E+00
    -11.120  0.0000E+00  0.1600E+00
    -11.035  0.0000E+00  0.1600E+00
    -10.950  0.0000E+00  0.1600E+00
    -10.865  0.0000E+00  0.1600E+00
    -10.781  0.0000E+00  0.1600E+00
    -10.696  0.0000E+00  0.1600E+00
    -10.611  0.0000E+00  0.1600E+00
    -10.526  0.0000E+00  0.1600E+00
    -10.441  0.0000E+00  0.1600E+00
    -10.356  0.0000E+00  0.1600E+00
    -10.272  0.0000E+00  0.1600E+00
    -10.187  0.0000E+00  0.1600E+00
    -10.102  0.0000E+00  0.1600E+00
    -10.017  0.0000E+00  0.1600E+00
     -9.932  0.0000E+00  0.1600E+00
     -9.847  0.0000E+00  0.1600E+00
     -9.763  0.0000E+00  0.1600E+00
     -9.678  0.0000E+00  0.1600E+00
     -9.593  0.0000E+00  0.1600E+00
     -9.508  0.0000E+00  0.1600E+00
     -9.423  0.0000E+00  0.1600E+00
     -9.338  0.0000E+00  0.1600E+00
     -9.254  0.0000E+00  0.1600E+00
     -9.169  0.0000E+00  0.1600E+00
     -9.084  0.0000E+00  0.1600E+00
     -8.999  0.0000E+00  0.1600E+00
     -8.914  0.0000E+00  0.1600E+00
     -8.829  0.0000E+00  0.1600E+00
     -8.745  0.0000E+00  0.1600E+00
     -8.660  0.0000E+00  0.1600E+00
     -8.575  0.0000E+00  0.1600E+00
     -8.490  0.0000E+00  0.1600E+00
     -8.405  0.0000E+00  0.1600E+00
     -8.320  0.0000E+00  0.1600E+00
     -8.236  0.0000E+00  0.1600E+00
     -8.151  0.0000E+00  0.1600E+00
     -8.066  0.0000E+00  0.1600E+00
     -7.981  0.0000E+00  0.1600E+00
     -7.896  0.0000E+00  0.1600E+00
     -7.811  0.0000E+00  0.1600E+00
     -7.727  0.0000E+00  0.1600E+00
     -7.642  0.0000E+00  0.1600E+00
     -7.557  0.1435E-01  0.1601E+00
     -7.472  0.1825E+00  0.1677E+00
     -7.387  0.3121E+00  0.1900E+00
     -7.302  0.2571E+00  0.2162E+00
     -7.218  0.2983E+00  0.2412E+00
     -7.133  0.5790E+00  0.2699E+00
     -7.048  0.2738E+00  0.2954E+00
     -6.963  0.8356E-01  0.3211E+00
     -6.878  0.3753E+00  0.3478E+00
     -6.793  0.5038E+00  0.3842E+00
     -6.709  0.3268E+00  0.4182E+00
     -6.624  0.6130E+00  0.4555E+00
     -6.539  0.6194E+00  0.5050E+00
     -6.454  0.7210E+00  0.5615E+00
     -6.369  0.3558E+00  0.6054E+00
     -6.284  0.1237E+00  0.6376E+00
     -6.200  0.0000E+00  0.6400E+00
     -6.115  0.0000E+00  0.6400E+00
     -6.030  0.0000E+00  0.6400E+00
     -5.945  0.0000E+00  0.6400E+00
     -5.860  0.0000E+00  0.6400E+00
     -5.775  0.0000E+00  0.6400E+00
     -5.691  0.0000E+00  0.6400E+00
     -5.606  0.0000E+00  0.6400E+00
     -5.521  0.0000E+00  0.6400E+00
     -5.436  0.0000E+00  0.6400E+00
     -5.351  0.0000E+00  0.6400E+00
     -5.266  0.0000E+00  0.6400E+00
     -5.182  0.0000E+00  0.6400E+00
     -5.097  0.0000E+00  0.6400E+00
     -5.012  0.0000E+00  0.6400E+00
     -4.927  0.0000E+00  0.6400E+00
     -4.842  0.0000E+00  0.6400E+00
     -4.757  0.0000E+00  0.6400E+00
     -4.673  0.0000E+00  0.6400E+00
     -4.588  0.0000E+00  0.6400E+00
     -4.503  0.0000E+00  0.6400E+00
     -4.418  0.0000E+00  0.6400E+00
     -4.333  0.0000E+00  0.6400E+00
     -4.248  0.0000E+00  0.6400E+00
     -4.164  0.0000E+00  0.6400E+00
     -4.079  0.0000E+00  0.6400E+00
     -3.994  0.0000E+00  0.6400E+00
     -3.909  0.0000E+00  0.6400E+00
     -3.824  0.0000E+00  0.6400E+00
     -3.739  0.0000E+00  0.6400E+00
     -3.655  0.0000E+00  0.6400E+00
     -3.570  0.0000E+00  0.6400E+00
     -3.485  0.0000E+00  0.6400E+00
     -3.400  0.0000E+00  0.6400E+00
     -3.315  0.0000E+00  0.6400E+00
     -3.230  0.0000E+00  0.6400E+00
     -3.146  0.0000E+00  0.6400E+00
     -3.061  0.0000E+00  0.6400E+00
     -2.976  0.0000E+00  0.6400E+00
     -2.891  0.0000E+00  0.6400E+00
     -2.806  0.0000E+00  0.6400E+00
     -2.721  0.0000E+00  0.6400E+00
     -2.637  0.0000E+00  0.6400E+00
     -2.552  0.0000E+00  0.6400E+00
     -2.467  0.0000E+00  0.6400E+00
     -2.382  0.0000E+00  0.6400E+00
     -2.297  0.0000E+00  0.6400E+00
     -2.212  0.0000E+00  0.6400E+00
     -2.128  0.0000E+00  0.6400E+00
     -2.043  0.0000E+00  0.6400E+00
     -1.958  0.0000E+00  0.6400E+00
     -1.873  0.0000E+00  0.6400E+00
     -1.788  0.0000E+00  0.6400E+00
     -1.703  0.0000E+00  0.6400E+00
     -1.619  0.0000E+00  0.6400E+00
     -1.534  0.0000E+00  0.6400E+00
     -1.449  0.0000E+00  0.6400E+00
     -1.364  0.0000E+00  0.6400E+00
     -1.279  0.0000E+00  0.6400E+00
     -1.194  0.0000E+00  0.6400E+00
     -1.110  0.0000E+00  0.6400E+00
     -1.025  0.0000E+00  0.6400E+00
     -0.940  0.0000E+00  0.6400E+00
     -0.855  0.0000E+00  0.6400E+00
     -0.770  0.0000E+00  0.6400E+00
     -0.685  0.0000E+00  0.6400E+00
     -0.601  0.0000E+00  0.6400E+00
     -0.516  0.0000E+00  0.6400E+00
     -0.431  0.0000E+00  0.6400E+00
     -0.346  0.0000E+00  0.6400E+00
     -0.261  0.0000E+00  0.6400E+00
     -0.176  0.0000E+00  0.6400E+00
     -0.091  0.0000E+00  0.6400E+00
     -0.007  0.0000E+00  0.6400E+00
      0.078  0.0000E+00  0.6400E+00
      0.163  0.0000E+00  0.6400E+00
      0.248  0.0000E+00  0.6400E+00
      0.333  0.0000E+00  0.6400E+00
      0.418  0.0000E+00  0.6400E+00
      0.502  0.0000E+00  0.6400E+00
      0.587  0.0000E+00  0.6400E+00
      0.672  0.0000E+00  0.6400E+00
      0.757  0.0000E+00  0.6400E+00
      0.842  0.0000E+00  0.6400E+00
      0.927  0.0000E+00  0.6400E+00
      1.011  0.0000E+00  0.6400E+00
      1.096  0.0000E+00  0.6400E+00
      1.181  0.0000E+00  0.6400E+00
      1.266  0.4780E-04  0.6400E+00
      1.351  0.1556E-02  0.6401E+00
      1.436  0.4474E-02  0.6403E+00
      1.520  0.7549E-02  0.6408E+00
      1.605  0.9051E-02  0.6415E+00
      1.690  0.1022E-01  0.6424E+00
      1.775  0.1168E-01  0.6433E+00
      1.860  0.1324E-01  0.6443E+00
      1.945  0.1560E-01  0.6455E+00
      2.029  0.1896E-01  0.6470E+00
      2.114  0.2363E-01  0.6488E+00
      2.199  0.2847E-01  0.6510E+00
      2.284  0.3049E-01  0.6536E+00
      2.369  0.2321E-01  0.6559E+00
      2.454  0.1910E-01  0.6576E+00
      2.538  0.2017E-01  0.6593E+00
      2.623  0.2242E-01  0.6611E+00
      2.708  0.3603E-01  0.6634E+00
      2.793  0.5682E-01  0.6674E+00
      2.878  0.5866E-01  0.6724E+00
      2.963  0.4700E-01  0.6770E+00
      3.047  0.3177E-01  0.6804E+00
      3.132  0.8584E-01  0.6842E+00
      3.217  0.1149E+00  0.6967E+00
      3.302  0.1445E+00  0.7066E+00
      3.387  0.7281E-01  0.7174E+00
      3.472  0.6905E-01  0.7220E+00
      3.556  0.9799E-01  0.7292E+00
      3.641  0.8726E-01  0.7376E+00
      3.726  0.1421E+00  0.7464E+00
      3.811  0.8265E-01  0.7568E+00
      3.896  0.8918E-01  0.7644E+00
      3.981  0.8141E-01  0.7712E+00
      4.065  0.1020E+00  0.7789E+00
      4.150  0.1508E+00  0.7894E+00
      4.235  0.9976E-01  0.8026E+00
      4.320  0.1097E+00  0.8098E+00
      4.405  0.6806E-01  0.8178E+00
      4.490  0.8488E-01  0.8237E+00
      4.574  0.1285E+00  0.8323E+00
      4.659  0.1547E+00  0.8458E+00
      4.744  0.1240E+00  0.8577E+00
      4.829  0.1203E+00  0.8679E+00
      4.914  0.1151E+00  0.8787E+00
      4.999  0.1267E+00  0.8884E+00
      5.083  0.1308E+00  0.9008E+00
      5.168  0.1224E+00  0.9108E+00
      5.253  0.1068E+00  0.9205E+00
      5.338  0.1553E+00  0.9323E+00
      5.423  0.1367E+00  0.9442E+00
      5.508  0.9070E-01  0.9541E+00
      5.592  0.4051E-01  0.9596E+00
      5.677  0.1181E+00  0.9666E+00
      5.762  0.1144E+00  0.9765E+00
      5.847  0.7985E-01  0.9846E+00
      5.932  0.9199E-01  0.9911E+00
      6.017  0.1387E+00  0.1002E+01
      6.101  0.1251E+00  0.1013E+01
      6.186  0.1359E+00  0.1024E+01
      6.271  0.1017E+00  0.1034E+01
      6.356  0.1139E+00  0.1044E+01
      6.441  0.7883E-01  0.1053E+01
      6.526  0.4419E-01  0.1058E+01
      6.610  0.1909E-03  0.1060E+01
      6.695  0.0000E+00  0.1060E+01
      6.780  0.0000E+00  0.1060E+01
      6.865  0.0000E+00  0.1060E+01
      6.950  0.0000E+00  0.1060E+01
      7.035  0.0000E+00  0.1060E+01
      7.119  0.0000E+00  0.1060E+01
      7.204  0.0000E+00  0.1060E+01
      7.289  0.0000E+00  0.1060E+01
      7.374  0.0000E+00  0.1060E+01
      7.459  0.0000E+00  0.1060E+01
      7.544  0.0000E+00  0.1060E+01
      7.628  0.0000E+00  0.1060E+01
      7.713  0.0000E+00  0.1060E+01
      7.798  0.0000E+00  0.1060E+01
      7.883  0.0000E+00  0.1060E+01
      7.968  0.0000E+00  0.1060E+01
      8.053  0.0000E+00  0.1060E+01
      8.137  0.0000E+00  0.1060E+01
      8.222  0.0000E+00  0.1060E+01
      8.307  0.0000E+00  0.1060E+01
      8.392  0.0000E+00  0.1060E+01
      8.477  0.0000E+00  0.1060E+01
      8.562  0.0000E+00  0.1060E+01
      8.646  0.0000E+00  0.1060E+01
