   80   80  200    1
  0.1000489E+02  0.1178544E-08  0.8243535E-09  0.8238402E-09  0.5000000E-15
  1.000000000000000E-004
  CAR 
 diamond                                 
    128     27    106
