   80   80  200    1
  0.1000489E+02  0.1178544E-08  0.8243535E-09  0.8238402E-09  0.5000000E-15
  1.000000000000000E-004
  CAR 
 diamond                                 
    128     27    106
 
  0.0000000E+00  0.0000000E+00  0.0000000E+00  0.1562500E-01
    1      -14.803750
    2      -14.584367
    3      -14.547442
    4      -14.523226
    5      -14.455559
    6      -14.449469
    7      -14.408014
    8      -14.397055
    9      -14.394127
   10      -14.361600
   11      -14.361336
   12      -14.360803
   13      -14.286529
   14      -14.281880
   15      -14.233873
   16      -14.164204
   17       -7.551087
   18       -7.546495
   19       -7.516176
   20       -7.511080
   21       -7.418601
   22       -7.356880
   23       -7.344684
   24       -7.200092
   25       -7.171212
   26       -7.170096
   27       -7.142970
   28       -7.132398
   29       -7.130129
   30       -7.074642
   31       -7.011731
   32       -6.976585
   33       -6.926131
   34       -6.917769
   35       -6.876659
   36       -6.844586
   37       -6.819736
   38       -6.788334
   39       -6.787591
   40       -6.743254
   41       -6.661999
   42       -6.661282
   43       -6.646320
   44       -6.644883
   45       -6.642392
   46       -6.639731
   47       -6.596988
   48       -6.584856
   49       -6.576639
   50       -6.534785
   51       -6.499767
   52       -6.487657
   53       -6.474591
   54       -6.472973
   55       -6.470107
   56       -6.442570
   57       -6.440440
   58       -6.434178
   59       -6.376713
   60       -6.362560
   61       -6.354305
   62       -6.300233
   63       -6.289056
   64       -6.229123
   65        1.247826
   66        2.491014
   67        2.567894
   68        3.080697
   69        3.159296
   70        3.240558
   71        3.242827
   72        3.245883
   73        3.629148
   74        3.722044
   75        3.735897
   76        3.748139
   77        3.762512
   78        3.795258
   79        3.818194
   80        3.846409
   81        3.902055
   82        4.304010
   83        4.489150
   84        4.769493
   85        4.809525
   86        4.902519
   87        4.953358
   88        5.013733
   89        5.048097
   90        5.126780
   91        5.228081
   92        5.406651
   93        5.458370
   94        5.559999
   95        5.647546
   96        5.651218
   97        5.695338
   98        5.703516
   99        5.853763
  100        5.984020
  101        6.052813
  102        6.110256
  103        6.324518
  104        6.350241
  105        6.427524
  106        6.532483
 
  0.2500000E+00  0.0000000E+00  0.0000000E+00  0.3125000E-01
    1      -14.784337
    2      -14.642030
    3      -14.569652
    4      -14.463892
    5      -14.454671
    6      -14.450374
    7      -14.423923
    8      -14.400333
    9      -14.395233
   10      -14.361550
   11      -14.361386
   12      -14.298297
   13      -14.285816
   14      -14.282739
   15      -14.258048
   16      -14.181240
   17       -7.555748
   18       -7.509409
   19       -7.493798
   20       -7.482525
   21       -7.466782
   22       -7.340766
   23       -7.255075
   24       -7.241376
   25       -7.224492
   26       -7.202190
   27       -7.149881
   28       -7.149059
   29       -7.148728
   30       -7.100565
   31       -7.054146
   32       -7.048022
   33       -6.902229
   34       -6.889008
   35       -6.879541
   36       -6.871435
   37       -6.806694
   38       -6.781242
   39       -6.780953
   40       -6.684617
   41       -6.675231
   42       -6.670202
   43       -6.654492
   44       -6.651164
   45       -6.607481
   46       -6.603381
   47       -6.586234
   48       -6.545663
   49       -6.504016
   50       -6.500754
   51       -6.493338
   52       -6.486643
   53       -6.475821
   54       -6.473072
   55       -6.466422
   56       -6.443367
   57       -6.437169
   58       -6.418850
   59       -6.413252
   60       -6.375211
   61       -6.357103
   62       -6.337054
   63       -6.314056
   64       -6.275239
   65        1.345663
   66        2.037850
   67        3.014875
   68        3.069236
   69        3.169525
   70        3.174435
   71        3.227991
   72        3.288039
   73        3.582880
   74        3.612018
   75        3.705707
   76        3.714474
   77        3.824925
   78        3.852505
   79        3.854442
   80        3.924689
   81        3.948509
   82        4.137883
   83        4.673324
   84        4.843972
   85        4.892461
   86        4.924694
   87        4.978010
   88        5.071863
   89        5.113485
   90        5.196178
   91        5.209112
   92        5.235134
   93        5.256818
   94        5.379883
   95        5.501639
   96        5.555727
   97        5.605720
   98        5.664483
   99        5.973912
  100        6.082727
  101        6.138957
  102        6.187239
  103        6.252730
  104        6.381613
  105        6.479335
  106        6.486574
 
  0.5000000E+00  0.0000000E+00  0.0000000E+00  0.1562500E-01
    1      -14.728210
    2      -14.728208
    3      -14.527440
    4      -14.527438
    5      -14.452530
    6      -14.452529
    7      -14.397841
    8      -14.397838
    9      -14.361467
   10      -14.361466
   11      -14.326294
   12      -14.326293
   13      -14.284007
   14      -14.284005
   15      -14.229050
   16      -14.229049
   17       -7.545509
   18       -7.545508
   19       -7.404499
   20       -7.404497
   21       -7.392700
   22       -7.392699
   23       -7.340189
   24       -7.340188
   25       -7.266534
   26       -7.266533
   27       -7.106466
   28       -7.106464
   29       -7.091632
   30       -7.091631
   31       -7.010340
   32       -7.010339
   33       -6.998258
   34       -6.998258
   35       -6.945716
   36       -6.945716
   37       -6.749337
   38       -6.749336
   39       -6.742584
   40       -6.742582
   41       -6.639489
   42       -6.639487
   43       -6.593407
   44       -6.593407
   45       -6.579794
   46       -6.579793
   47       -6.551484
   48       -6.551484
   49       -6.516510
   50       -6.516510
   51       -6.467334
   52       -6.467332
   53       -6.448218
   54       -6.448216
   55       -6.448214
   56       -6.448214
   57       -6.410535
   58       -6.410535
   59       -6.383200
   60       -6.383199
   61       -6.380146
   62       -6.380145
   63       -6.379805
   64       -6.379805
   65        1.623366
   66        1.623368
   67        3.087250
   68        3.087253
   69        3.196456
   70        3.196456
   71        3.390675
   72        3.390676
   73        3.423552
   74        3.423553
   75        3.697824
   76        3.697825
   77        3.889335
   78        3.889337
   79        3.960132
   80        3.960134
   81        3.978206
   82        3.978207
   83        4.914751
   84        4.914751
   85        4.992730
   86        4.992732
   87        5.060001
   88        5.060002
   89        5.134687
   90        5.134688
   91        5.158659
   92        5.158659
   93        5.257598
   94        5.257599
   95        5.392286
   96        5.392286
   97        5.439704
   98        5.439704
   99        6.078338
  100        6.078339
  101        6.275782
  102        6.275783
  103        6.473674
  104        6.473674
  105        6.475637
  106        6.475639
 
  0.0000000E+00  0.2500000E+00  0.0000000E+00  0.3125000E-01
    1      -14.770884
    2      -14.561236
    3      -14.558171
    4      -14.533519
    5      -14.504972
    6      -14.464266
    7      -14.417998
    8      -14.413739
    9      -14.380721
   10      -14.368383
   11      -14.362174
   12      -14.323821
   13      -14.299325
   14      -14.245187
   15      -14.240794
   16      -14.172955
   17       -7.568056
   18       -7.467406
   19       -7.465044
   20       -7.460264
   21       -7.447539
   22       -7.374149
   23       -7.325998
   24       -7.179322
   25       -7.159546
   26       -7.139545
   27       -7.125082
   28       -7.120077
   29       -7.056725
   30       -7.047202
   31       -7.033669
   32       -7.031272
   33       -7.024686
   34       -6.954006
   35       -6.863382
   36       -6.823704
   37       -6.822758
   38       -6.820384
   39       -6.819872
   40       -6.817485
   41       -6.733096
   42       -6.683501
   43       -6.645759
   44       -6.640064
   45       -6.608842
   46       -6.570525
   47       -6.553944
   48       -6.534510
   49       -6.533459
   50       -6.531332
   51       -6.497537
   52       -6.495139
   53       -6.492765
   54       -6.467538
   55       -6.462604
   56       -6.456994
   57       -6.442766
   58       -6.442175
   59       -6.408773
   60       -6.387688
   61       -6.373447
   62       -6.341639
   63       -6.309618
   64       -6.258533
   65        1.449293
   66        2.639438
   67        2.706094
   68        2.708036
   69        3.135257
   70        3.206872
   71        3.233503
   72        3.331628
   73        3.502142
   74        3.506414
   75        3.657834
   76        3.755758
   77        3.825673
   78        3.830636
   79        3.876890
   80        4.067878
   81        4.128106
   82        4.306932
   83        4.595573
   84        4.636514
   85        4.786846
   86        4.894693
   87        4.905715
   88        5.053767
   89        5.064469
   90        5.163380
   91        5.192367
   92        5.220969
   93        5.232649
   94        5.516104
   95        5.602977
   96        5.626584
   97        5.701699
   98        5.765722
   99        5.858569
  100        5.926265
  101        5.963516
  102        6.111777
  103        6.123248
  104        6.235428
  105        6.267732
  106        6.373393
 
  0.2500000E+00  0.2500000E+00  0.0000000E+00  0.6250000E-01
    1      -14.752571
    2      -14.619190
    3      -14.549427
    4      -14.547529
    5      -14.489537
    6      -14.447118
    7      -14.416262
    8      -14.411339
    9      -14.389243
   10      -14.374896
   11      -14.335052
   12      -14.296711
   13      -14.286888
   14      -14.262999
   15      -14.250723
   16      -14.188642
   17       -7.557199
   18       -7.482766
   19       -7.454747
   20       -7.445167
   21       -7.433156
   22       -7.369731
   23       -7.281997
   24       -7.248285
   25       -7.221919
   26       -7.198956
   27       -7.127207
   28       -7.126181
   29       -7.077977
   30       -7.040495
   31       -7.004129
   32       -6.994511
   33       -6.966201
   34       -6.944760
   35       -6.896240
   36       -6.845893
   37       -6.839201
   38       -6.830779
   39       -6.790432
   40       -6.752850
   41       -6.693422
   42       -6.667323
   43       -6.644550
   44       -6.639324
   45       -6.626039
   46       -6.595000
   47       -6.579272
   48       -6.543635
   49       -6.541956
   50       -6.514824
   51       -6.513086
   52       -6.508249
   53       -6.485732
   54       -6.477012
   55       -6.451737
   56       -6.439858
   57       -6.435498
   58       -6.431032
   59       -6.395153
   60       -6.384628
   61       -6.379309
   62       -6.369845
   63       -6.306893
   64       -6.265319
   65        1.539352
   66        2.191738
   67        2.736889
   68        2.993629
   69        3.163078
   70        3.194171
   71        3.265343
   72        3.292711
   73        3.579059
   74        3.616701
   75        3.681966
   76        3.777666
   77        3.781539
   78        3.853435
   79        3.883900
   80        4.088390
   81        4.090950
   82        4.166498
   83        4.662638
   84        4.778331
   85        4.811264
   86        4.842924
   87        4.909289
   88        5.012263
   89        5.021131
   90        5.073190
   91        5.234492
   92        5.244381
   93        5.278279
   94        5.313701
   95        5.482452
   96        5.592897
   97        5.605794
   98        5.796412
   99        5.865943
  100        5.989854
  101        6.004708
  102        6.100907
  103        6.109065
  104        6.243964
  105        6.279171
  106        6.388976
 
  0.5000000E+00  0.2500000E+00  0.0000000E+00  0.3125000E-01
    1      -14.699831
    2      -14.699830
    3      -14.525550
    4      -14.525549
    5      -14.506657
    6      -14.506656
    7      -14.396245
    8      -14.396244
    9      -14.356635
   10      -14.356633
   11      -14.325267
   12      -14.325266
   13      -14.266109
   14      -14.266107
   15      -14.232788
   16      -14.232787
   17       -7.521064
   18       -7.521063
   19       -7.450575
   20       -7.450574
   21       -7.344209
   22       -7.344208
   23       -7.324550
   24       -7.324550
   25       -7.234085
   26       -7.234084
   27       -7.088406
   28       -7.088405
   29       -7.077739
   30       -7.077737
   31       -7.048615
   32       -7.048615
   33       -6.941590
   34       -6.941589
   35       -6.867889
   36       -6.867889
   37       -6.765894
   38       -6.765893
   39       -6.762499
   40       -6.762498
   41       -6.687429
   42       -6.687428
   43       -6.664585
   44       -6.664584
   45       -6.583962
   46       -6.583960
   47       -6.567352
   48       -6.567352
   49       -6.538407
   50       -6.538405
   51       -6.524988
   52       -6.524988
   53       -6.501963
   54       -6.501962
   55       -6.438345
   56       -6.438344
   57       -6.436928
   58       -6.436927
   59       -6.394105
   60       -6.394105
   61       -6.335537
   62       -6.335536
   63       -6.309052
   64       -6.309052
   65        1.797816
   66        1.797817
   67        2.830241
   68        2.830242
   69        3.201195
   70        3.201197
   71        3.415666
   72        3.415667
   73        3.581221
   74        3.581222
   75        3.794900
   76        3.794901
   77        3.840932
   78        3.840934
   79        3.899779
   80        3.899779
   81        4.138345
   82        4.138345
   83        4.740644
   84        4.740644
   85        4.823422
   86        4.823423
   87        4.968436
   88        4.968436
   89        5.059722
   90        5.059723
   91        5.155506
   92        5.155507
   93        5.324434
   94        5.324434
   95        5.429842
   96        5.429843
   97        5.623133
   98        5.623134
   99        5.927383
  100        5.927383
  101        6.095072
  102        6.095073
  103        6.195156
  104        6.195156
  105        6.287071
  106        6.287071
 
  0.0000000E+00  0.5000000E+00  0.0000000E+00  0.1562500E-01
    1      -14.680839
    2      -14.680839
    3      -14.499327
    4      -14.499327
    5      -14.499152
    6      -14.499152
    7      -14.460028
    8      -14.460028
    9      -14.364375
   10      -14.364375
   11      -14.340562
   12      -14.340562
   13      -14.267344
   14      -14.267344
   15      -14.199893
   16      -14.199893
   17       -7.555319
   18       -7.555319
   19       -7.332626
   20       -7.332626
   21       -7.299380
   22       -7.299380
   23       -7.287932
   24       -7.287932
   25       -7.255203
   26       -7.255203
   27       -7.184288
   28       -7.184288
   29       -7.010349
   30       -7.010349
   31       -6.971015
   32       -6.971015
   33       -6.949372
   34       -6.949372
   35       -6.916930
   36       -6.916930
   37       -6.858808
   38       -6.858808
   39       -6.818319
   40       -6.818319
   41       -6.700536
   42       -6.700536
   43       -6.628285
   44       -6.628285
   45       -6.623201
   46       -6.623201
   47       -6.585652
   48       -6.585652
   49       -6.509109
   50       -6.509109
   51       -6.479960
   52       -6.479960
   53       -6.467368
   54       -6.467368
   55       -6.437055
   56       -6.437055
   57       -6.428920
   58       -6.428920
   59       -6.424495
   60       -6.424495
   61       -6.360354
   62       -6.360354
   63       -6.343491
   64       -6.343491
   65        1.989418
   66        1.989418
   67        2.955324
   68        2.955324
   69        3.055559
   70        3.055559
   71        3.288036
   72        3.288036
   73        3.468163
   74        3.468163
   75        3.591501
   76        3.591501
   77        3.835331
   78        3.835331
   79        4.183869
   80        4.183869
   81        4.382490
   82        4.382490
   83        4.546995
   84        4.546995
   85        4.653043
   86        4.653043
   87        4.814875
   88        4.814875
   89        5.230562
   90        5.230562
   91        5.303656
   92        5.303656
   93        5.403577
   94        5.403577
   95        5.601506
   96        5.601506
   97        5.740171
   98        5.740171
   99        5.748674
  100        5.748674
  101        5.869990
  102        5.869990
  103        5.961688
  104        5.961688
  105        6.196409
  106        6.196409
 
  0.2500000E+00  0.5000000E+00  0.0000000E+00  0.3125000E-01
    1      -14.666031
    2      -14.666031
    3      -14.559963
    4      -14.559963
    5      -14.488235
    6      -14.488235
    7      -14.410282
    8      -14.410282
    9      -14.397756
   10      -14.397756
   11      -14.294222
   12      -14.294222
   13      -14.283300
   14      -14.283300
   15      -14.211626
   16      -14.211626
   17       -7.533445
   18       -7.533445
   19       -7.395386
   20       -7.395386
   21       -7.349169
   22       -7.349169
   23       -7.307990
   24       -7.307990
   25       -7.185954
   26       -7.185954
   27       -7.102420
   28       -7.102420
   29       -7.027385
   30       -7.027385
   31       -6.987033
   32       -6.987033
   33       -6.948304
   34       -6.948304
   35       -6.911774
   36       -6.911774
   37       -6.799465
   38       -6.799465
   39       -6.795223
   40       -6.795223
   41       -6.756971
   42       -6.756971
   43       -6.660385
   44       -6.660385
   45       -6.599077
   46       -6.599077
   47       -6.580036
   48       -6.580036
   49       -6.543901
   50       -6.543901
   51       -6.528995
   52       -6.528995
   53       -6.479661
   54       -6.479661
   55       -6.456923
   56       -6.456923
   57       -6.444639
   58       -6.444639
   59       -6.398602
   60       -6.398602
   61       -6.322617
   62       -6.322617
   63       -6.312471
   64       -6.312471
   65        2.056571
   66        2.056571
   67        2.577671
   68        2.577671
   69        3.324098
   70        3.324098
   71        3.450772
   72        3.450772
   73        3.468893
   74        3.468893
   75        3.655899
   76        3.655899
   77        3.791912
   78        3.791912
   79        4.213185
   80        4.213185
   81        4.367228
   82        4.367228
   83        4.457429
   84        4.457429
   85        4.585230
   86        4.585230
   87        4.750741
   88        4.750741
   89        5.160070
   90        5.160070
   91        5.402221
   92        5.402221
   93        5.441296
   94        5.441296
   95        5.561504
   96        5.561504
   97        5.709659
   98        5.709659
   99        5.720561
  100        5.720561
  101        5.880209
  102        5.880209
  103        5.904985
  104        5.904985
  105        6.245703
  106        6.245703
 
  0.5000000E+00  0.5000000E+00  0.0000000E+00  0.1562500E-01
    1      -14.623658
    2      -14.623658
    3      -14.623656
    4      -14.623656
    5      -14.457069
    6      -14.457069
    7      -14.457068
    8      -14.457068
    9      -14.330165
   10      -14.330165
   11      -14.330163
   12      -14.330163
   13      -14.244808
   14      -14.244808
   15      -14.244806
   16      -14.244806
   17       -7.475306
   18       -7.475306
   19       -7.475305
   20       -7.475305
   21       -7.352551
   22       -7.352551
   23       -7.352551
   24       -7.352551
   25       -7.106118
   26       -7.106118
   27       -7.106117
   28       -7.106117
   29       -6.967489
   30       -6.967489
   31       -6.967489
   32       -6.967489
   33       -6.951733
   34       -6.951733
   35       -6.951732
   36       -6.951732
   37       -6.808141
   38       -6.808141
   39       -6.808140
   40       -6.808140
   41       -6.688414
   42       -6.688413
   43       -6.688413
   44       -6.688413
   45       -6.622848
   46       -6.622848
   47       -6.622848
   48       -6.622848
   49       -6.548038
   50       -6.548038
   51       -6.548036
   52       -6.548036
   53       -6.485332
   54       -6.485332
   55       -6.485331
   56       -6.485331
   57       -6.415238
   58       -6.415238
   59       -6.415237
   60       -6.415237
   61       -6.292627
   62       -6.292627
   63       -6.292626
   64       -6.292626
   65        2.255796
   66        2.255796
   67        2.255798
   68        2.255798
   69        3.397861
   70        3.397861
   71        3.397862
   72        3.397862
   73        3.673569
   74        3.673569
   75        3.673570
   76        3.673570
   77        4.043290
   78        4.043290
   79        4.043291
   80        4.043291
   81        4.310608
   82        4.310608
   83        4.310609
   84        4.310609
   85        4.641422
   86        4.641422
   87        4.641422
   88        4.641422
   89        5.238705
   90        5.238705
   91        5.238705
   92        5.238705
   93        5.546235
   94        5.546235
   95        5.546235
   96        5.546235
   97        5.652858
   98        5.652858
   99        5.652858
  100        5.652858
  101        5.950941
  102        5.950941
  103        5.950941
  104        5.950941
  105        6.337328
  106        6.337329
 
  0.0000000E+00  0.0000000E+00  0.2500000E+00  0.3125000E-01
    1      -14.775649
    2      -14.622059
    3      -14.524966
    4      -14.505365
    5      -14.439828
    6      -14.434459
    7      -14.416176
    8      -14.407063
    9      -14.389823
   10      -14.378205
   11      -14.370515
   12      -14.358880
   13      -14.303417
   14      -14.298873
   15      -14.223624
   16      -14.174525
   17       -7.507125
   18       -7.477019
   19       -7.471700
   20       -7.443069
   21       -7.348155
   22       -7.282197
   23       -7.268924
   24       -7.264951
   25       -7.236883
   26       -7.221809
   27       -7.155446
   28       -7.117464
   29       -7.060296
   30       -7.036806
   31       -6.973760
   32       -6.961080
   33       -6.949361
   34       -6.936025
   35       -6.878057
   36       -6.847443
   37       -6.789772
   38       -6.783535
   39       -6.778667
   40       -6.764094
   41       -6.736921
   42       -6.665250
   43       -6.658661
   44       -6.646930
   45       -6.621451
   46       -6.615744
   47       -6.608368
   48       -6.602607
   49       -6.600867
   50       -6.577556
   51       -6.559960
   52       -6.525336
   53       -6.501940
   54       -6.490125
   55       -6.487474
   56       -6.484573
   57       -6.477611
   58       -6.420968
   59       -6.419367
   60       -6.400284
   61       -6.388280
   62       -6.292014
   63       -6.283237
   64       -6.254725
   65        1.470587
   66        2.640894
   67        2.710650
   68        2.865248
   69        3.178821
   70        3.192182
   71        3.359927
   72        3.360484
   73        3.416489
   74        3.451990
   75        3.771838
   76        3.863085
   77        3.892350
   78        3.993636
   79        4.103827
   80        4.196142
   81        4.315892
   82        4.320278
   83        4.438159
   84        4.531089
   85        4.626091
   86        4.739025
   87        4.875745
   88        4.939207
   89        4.995399
   90        4.997375
   91        5.092311
   92        5.145993
   93        5.349290
   94        5.379261
   95        5.457883
   96        5.496082
   97        5.625803
   98        5.975485
   99        6.000216
  100        6.032992
  101        6.186749
  102        6.244177
  103        6.321749
  104        6.442321
  105        6.504006
  106        6.601537
 
  0.2500000E+00  0.0000000E+00  0.2500000E+00  0.6250000E-01
    1      -14.756706
    2      -14.618288
    3      -14.606402
    4      -14.492823
    5      -14.440098
    6      -14.435366
    7      -14.406498
    8      -14.389252
    9      -14.380734
   10      -14.369271
   11      -14.368783
   12      -14.317192
   13      -14.302740
   14      -14.299550
   15      -14.247009
   16      -14.192804
   17       -7.472568
   18       -7.461539
   19       -7.445225
   20       -7.433551
   21       -7.416165
   22       -7.283146
   23       -7.243507
   24       -7.240230
   25       -7.197965
   26       -7.193914
   27       -7.181734
   28       -7.159632
   29       -7.158805
   30       -7.110123
   31       -7.016940
   32       -6.961688
   33       -6.922341
   34       -6.907591
   35       -6.838389
   36       -6.823173
   37       -6.820850
   38       -6.787326
   39       -6.770305
   40       -6.761621
   41       -6.760308
   42       -6.698366
   43       -6.661498
   44       -6.644691
   45       -6.630533
   46       -6.592951
   47       -6.591283
   48       -6.583327
   49       -6.566682
   50       -6.540683
   51       -6.502073
   52       -6.498566
   53       -6.488869
   54       -6.483302
   55       -6.475208
   56       -6.458938
   57       -6.454521
   58       -6.453291
   59       -6.453159
   60       -6.404785
   61       -6.399926
   62       -6.337272
   63       -6.304028
   64       -6.281373
   65        1.562686
   66        2.214619
   67        2.886663
   68        3.079820
   69        3.130838
   70        3.222136
   71        3.359343
   72        3.359624
   73        3.382023
   74        3.563960
   75        3.712210
   76        3.860577
   77        3.874905
   78        4.004157
   79        4.018089
   80        4.222546
   81        4.227674
   82        4.308716
   83        4.513941
   84        4.567103
   85        4.697771
   86        4.748510
   87        4.884360
   88        4.935011
   89        4.954413
   90        4.962334
   91        5.188200
   92        5.273435
   93        5.280126
   94        5.287855
   95        5.443454
   96        5.509974
   97        5.668600
   98        5.688100
   99        6.116239
  100        6.159489
  101        6.210538
  102        6.287036
  103        6.323268
  104        6.406102
  105        6.534848
  106        6.547623
 
  0.5000000E+00  0.0000000E+00  0.2500000E+00  0.3125000E-01
    1      -14.702102
    2      -14.702101
    3      -14.561361
    4      -14.561359
    5      -14.437524
    6      -14.437523
    7      -14.385345
    8      -14.385343
    9      -14.367922
   10      -14.367922
   11      -14.312693
   12      -14.312691
   13      -14.300865
   14      -14.300863
   15      -14.244021
   16      -14.244020
   17       -7.462420
   18       -7.462420
   19       -7.376579
   20       -7.376577
   21       -7.362007
   22       -7.362007
   23       -7.323631
   24       -7.323629
   25       -7.222016
   26       -7.222015
   27       -7.133413
   28       -7.133413
   29       -7.104462
   30       -7.104461
   31       -6.979952
   32       -6.979952
   33       -6.977209
   34       -6.977208
   35       -6.900031
   36       -6.900030
   37       -6.779382
   38       -6.779380
   39       -6.742926
   40       -6.742925
   41       -6.719749
   42       -6.719748
   43       -6.619710
   44       -6.619710
   45       -6.602516
   46       -6.602515
   47       -6.562542
   48       -6.562542
   49       -6.533715
   50       -6.533715
   51       -6.504008
   52       -6.504006
   53       -6.488276
   54       -6.488274
   55       -6.456270
   56       -6.456269
   57       -6.434293
   58       -6.434292
   59       -6.427565
   60       -6.427565
   61       -6.363420
   62       -6.363420
   63       -6.360843
   64       -6.360842
   65        1.824302
   66        1.824303
   67        2.956886
   68        2.956886
   69        3.300548
   70        3.300550
   71        3.355393
   72        3.355394
   73        3.502193
   74        3.502194
   75        3.733765
   76        3.733766
   77        3.908785
   78        3.908787
   79        4.099919
   80        4.099920
   81        4.272423
   82        4.272425
   83        4.622494
   84        4.622495
   85        4.720629
   86        4.720631
   87        4.875199
   88        4.875199
   89        5.037305
   90        5.037306
   91        5.092288
   92        5.092289
   93        5.353803
   94        5.353804
   95        5.573466
   96        5.573468
   97        5.627366
   98        5.627366
   99        6.029939
  100        6.029939
  101        6.199764
  102        6.199764
  103        6.491583
  104        6.491585
  105        6.548222
  106        6.548223
 
  0.0000000E+00  0.2500000E+00  0.2500000E+00  0.6250000E-01
    1      -14.743713
    2      -14.596786
    3      -14.538608
    4      -14.511125
    5      -14.487392
    6      -14.447976
    7      -14.439692
    8      -14.399539
    9      -14.397483
   10      -14.394148
   11      -14.374498
   12      -14.316604
   13      -14.312269
   14      -14.255215
   15      -14.230546
   16      -14.182584
   17       -7.476463
   18       -7.438105
   19       -7.421615
   20       -7.417200
   21       -7.380788
   22       -7.297213
   23       -7.260776
   24       -7.216381
   25       -7.184560
   26       -7.139101
   27       -7.116326
   28       -7.106029
   29       -7.069360
   30       -7.062018
   31       -7.048442
   32       -6.982832
   33       -6.965627
   34       -6.962522
   35       -6.895131
   36       -6.862264
   37       -6.823163
   38       -6.819304
   39       -6.773888
   40       -6.773713
   41       -6.753494
   42       -6.737719
   43       -6.687461
   44       -6.631237
   45       -6.618513