diamond                                 
           1
    11.785438    0.000000    0.000000
     0.000000    8.243535    0.000000
     0.000000    0.000000    8.238402
   H    C 
  64  16
Direct configuration=     1
   0.07562422  0.82738117  0.15628560
   0.92437580  0.17261883  0.84371443
   0.92437580  0.67261883  0.65628557
   0.07562422  0.32738117  0.34371440
   0.92437580  0.32738117  0.34371440
   0.07562422  0.67261883  0.65628557
   0.07562422  0.17261883  0.84371443
   0.92437580  0.82738117  0.15628560
   0.57562420  0.32738117  0.15628560
   0.42437577  0.67261883  0.84371443
   0.42437577  0.17261883  0.65628557
   0.57562420  0.82738117  0.34371440
   0.42437577  0.82738117  0.34371440
   0.57562420  0.17261883  0.65628557
   0.57562420  0.67261883  0.84371443
   0.42437577  0.32738117  0.15628560
   0.80612013  0.58416646  0.93113330
   0.19387987  0.41583354  0.06886670
   0.19387987  0.91583354  0.43113330
   0.80612013  0.08416646  0.56886670
   0.19387987  0.08416646  0.56886670
   0.80612013  0.91583354  0.43113330
   0.80612013  0.41583354  0.06886670
   0.19387987  0.58416646  0.93113330
   0.30612013  0.08416646  0.93113330
   0.69387987  0.91583354  0.06886670
   0.69387987  0.41583354  0.43113330
   0.30612013  0.58416646  0.56886670
   0.69387987  0.58416646  0.56886670
   0.30612013  0.41583354  0.43113330
   0.30612013  0.91583354  0.06886670
   0.69387987  0.08416646  0.93113330
   0.69873730  0.56911312  0.08365225
   0.30126270  0.43088688  0.91634775
   0.30126270  0.93088688  0.58365225
   0.69873730  0.06911312  0.41634775
   0.30126270  0.06911312  0.41634775
   0.69873730  0.93088688  0.58365225
   0.69873730  0.43088688  0.91634775
   0.30126270  0.56911312  0.08365225
   0.19873730  0.06911312  0.08365225
   0.80126270  0.93088688  0.91634775
   0.80126270  0.43088688  0.58365225
   0.19873730  0.56911312  0.41634775
   0.80126270  0.56911312  0.41634775
   0.19873730  0.43088688  0.58365225
   0.19873730  0.93088688  0.91634775
   0.80126270  0.06911312  0.08365225
   0.00000000  0.63963379  0.13822769
   0.00000000  0.36036621  0.86177228
   0.00000000  0.86036621  0.63822772
   0.00000000  0.13963379  0.36177231
   0.50000000  0.13963379  0.13822769
   0.50000000  0.86036621  0.86177228
   0.50000000  0.36036621  0.63822772
   0.50000000  0.63963379  0.36177231
   0.00000000  0.28128464  0.52557799
   0.00000000  0.71871536  0.47442201
   0.00000000  0.21871536  0.02557799
   0.00000000  0.78128464  0.97442201
   0.50000000  0.78128464  0.52557799
   0.50000000  0.21871536  0.47442201
   0.50000000  0.71871536  0.02557799
   0.50000000  0.28128464  0.97442201
   0.00000000  0.26848880  0.39237479
   0.00000000  0.73151120  0.60762520
   0.00000000  0.23151120  0.89237480
   0.00000000  0.76848880  0.10762520
   0.50000000  0.76848880  0.39237479
   0.50000000  0.23151120  0.60762520
   0.50000000  0.73151120  0.89237480
   0.50000000  0.26848880  0.10762520
   0.75238676  0.50000000  0.00000000
   0.24761324  0.50000000  0.00000000
   0.24761324  0.00000000  0.50000000
   0.75238676  0.00000000  0.50000000
   0.25238676  0.00000000  0.00000000
   0.74761324  0.00000000  0.00000000
   0.74761324  0.50000000  0.50000000
   0.25238676  0.50000000  0.50000000
Direct configuration=     2
   0.07607665  0.82738621  0.15670161
   0.92392337  0.17261379  0.84329842
   0.92392337  0.67261379  0.65670158
   0.07607665  0.32738621  0.34329839
   0.92392337  0.32738621  0.34329839
   0.07607665  0.67261379  0.65670158
   0.07607665  0.17261379  0.84329842
   0.92392337  0.82738621  0.15670161
   0.57607663  0.32738621  0.15670161
   0.42392334  0.67261379  0.84329842
   0.42392334  0.17261379  0.65670158
   0.57607663  0.82738621  0.34329839
   0.42392334  0.82738621  0.34329839
   0.57607663  0.17261379  0.65670158
   0.57607663  0.67261379  0.84329842
   0.42392334  0.32738621  0.15670161
   0.80603410  0.58389269  0.93132860
   0.19396590  0.41610731  0.06867140
   0.19396590  0.91610731  0.43132860
   0.80603410  0.08389269  0.56867140
   0.19396590  0.08389269  0.56867140
   0.80603410  0.91610731  0.43132860
   0.80603410  0.41610731  0.06867140
   0.19396590  0.58389269  0.93132860
   0.30603410  0.08389269  0.93132860
   0.69396590  0.91610731  0.06867140
   0.69396590  0.41610731  0.43132860
   0.30603410  0.58389269  0.56867140
   0.69396590  0.58389269  0.56867140
   0.30603410  0.41610731  0.43132860
   0.30603410  0.91610731  0.06867140
   0.69396590  0.08389269  0.93132860
   0.69877467  0.56907614  0.08368774
   0.30122533  0.43092386  0.91631226
   0.30122533  0.93092386  0.58368774
   0.69877467  0.06907614  0.41631226
   0.30122533  0.06907614  0.41631226
   0.69877467  0.93092386  0.58368774
   0.69877467  0.43092386  0.91631226
   0.30122533  0.56907614  0.08368774
   0.19877467  0.06907614  0.08368774
   0.80122533  0.93092386  0.91631226
   0.80122533  0.43092386  0.58368774
   0.19877467  0.56907614  0.41631226
   0.80122533  0.56907614  0.41631226
   0.19877467  0.43092386  0.58368774
   0.19877467  0.93092386  0.91631226
   0.80122533  0.06907614  0.08368774
   0.00000000  0.63899805  0.13871918
   0.00000000  0.36100195  0.86128079
   0.00000000  0.86100195  0.63871921
   0.00000000  0.13899805  0.36128082
   0.50000000  0.13899805  0.13871918
   0.50000000  0.86100195  0.86128079
   0.50000000  0.36100195  0.63871921
   0.50000000  0.63899805  0.36128082
   0.00000000  0.28123915  0.52443736
   0.00000000  0.71876085  0.47556264
   0.00000000  0.21876085  0.02443736
   0.00000000  0.78123915  0.97556264
   0.50000000  0.78123915  0.52443736
   0.50000000  0.21876085  0.47556264
   0.50000000  0.71876085  0.02443736
   0.50000000  0.28123915  0.97556264
   0.00000000  0.26875987  0.39432984
   0.00000000  0.73124013  0.60567014
   0.00000000  0.23124013  0.89432986
   0.00000000  0.76875987  0.10567014
   0.50000000  0.76875987  0.39432984
   0.50000000  0.23124013  0.60567014
   0.50000000  0.73124013  0.89432986
   0.50000000  0.26875987  0.10567014
   0.75285230  0.50000000  0.00000000
   0.24714770  0.50000000  0.00000000
   0.24714770  0.00000000  0.50000000
   0.75285230  0.00000000  0.50000000
   0.25285230 -0.00000000 -0.00000000
   0.74714770  0.00000000  0.00000000
   0.74714770  0.50000000  0.50000000
   0.25285230  0.50000000  0.50000000
Direct configuration=     3
   0.07575654  0.82738264  0.15640727
   0.92424348  0.17261736  0.84359276
   0.92424348  0.67261736  0.65640724
   0.07575654  0.32738264  0.34359273
   0.92424348  0.32738264  0.34359273
   0.07575654  0.67261736  0.65640724
   0.07575654  0.17261736  0.84359276
   0.92424348  0.82738264  0.15640727
   0.57575652  0.32738264  0.15640727
   0.42424345  0.67261736  0.84359276
   0.42424345  0.17261736  0.65640724
   0.57575652  0.82738264  0.34359273
   0.42424345  0.82738264  0.34359273
   0.57575652  0.17261736  0.65640724
   0.57575652  0.67261736  0.84359276
   0.42424345  0.32738264  0.15640727
   0.80609497  0.58408639  0.93119042
   0.19390503  0.41591361  0.06880958
   0.19390503  0.91591361  0.43119042
   0.80609497  0.08408639  0.56880958
   0.19390503  0.08408639  0.56880958
   0.80609497  0.91591361  0.43119042
   0.80609497  0.41591361  0.06880958
   0.19390503  0.58408639  0.93119042
   0.30609497  0.08408639  0.93119042
   0.69390503  0.91591361  0.06880958
   0.69390503  0.41591361  0.43119042
   0.30609497  0.58408639  0.56880958
   0.69390503  0.58408639  0.56880958
   0.30609497  0.41591361  0.43119042
   0.30609497  0.91591361  0.06880958
   0.69390503  0.08408639  0.93119042
   0.69874823  0.56910230  0.08366263
   0.30125177  0.43089770  0.91633737
   0.30125177  0.93089770  0.58366263
   0.69874823  0.06910230  0.41633737
   0.30125177  0.06910230  0.41633737
   0.69874823  0.93089770  0.58366263
   0.69874823  0.43089770  0.91633737
   0.30125177  0.56910230  0.08366263
   0.19874823  0.06910230  0.08366263
   0.80125177  0.93089770  0.91633737
   0.80125177  0.43089770  0.58366263
   0.19874823  0.56910230  0.41633737
   0.80125177  0.56910230  0.41633737
   0.19874823  0.43089770  0.58366263
   0.19874823  0.93089770  0.91633737
   0.80125177  0.06910230  0.08366263
   0.00000000  0.63944786  0.13837144
   0.00000000  0.36055214  0.86162853
   0.00000000  0.86055214  0.63837147
   0.00000000  0.13944786  0.36162856
   0.50000000  0.13944786  0.13837144
   0.50000000  0.86055214  0.86162853
   0.50000000  0.36055214  0.63837147
   0.50000000  0.63944786  0.36162856
   0.00000000  0.28127134  0.52524439
   0.00000000  0.71872866  0.47475561
   0.00000000  0.21872866  0.02524439
   0.00000000  0.78127134  0.97475561
   0.50000000  0.78127134  0.52524439
   0.50000000  0.21872866  0.47475561
   0.50000000  0.71872866  0.02524439
   0.50000000  0.28127134  0.97475561
   0.00000000  0.26856808  0.39294658
   0.00000000  0.73143192  0.60705341
   0.00000000  0.23143192  0.89294659
   0.00000000  0.76856808  0.10705341
   0.50000000  0.76856808  0.39294658
   0.50000000  0.23143192  0.60705341
   0.50000000  0.73143192  0.89294659
   0.50000000  0.26856808  0.10705341
   0.75252292  0.50000000  0.00000000
   0.24747708  0.50000000  0.00000000
   0.24747708  0.00000000  0.50000000
   0.75252292  0.00000000  0.50000000
   0.25252292 -0.00000000 -0.00000000
   0.74747708  0.00000000  0.00000000
   0.74747708  0.50000000  0.50000000
   0.25252292  0.50000000  0.50000000
Direct configuration=     4
   0.07589006  0.82721126  0.15653266
   0.92410996  0.17278874  0.84346737
   0.92410996  0.67278874  0.65653263
   0.07589006  0.32721126  0.34346734
   0.92410996  0.32721126  0.34346734
   0.07589006  0.67278874  0.65653263
   0.07589006  0.17278874  0.84346737
   0.92410996  0.82721126  0.15653266
   0.57589004  0.32721126  0.15653266
   0.42410993  0.67278874  0.84346737
   0.42410993  0.17278874  0.65653263
   0.57589004  0.82721126  0.34346734
   0.42410993  0.82721126  0.34346734
   0.57589004  0.17278874  0.65653263
   0.57589004  0.67278874  0.84346737
   0.42410993  0.32721126  0.15653266
   0.80613697  0.58400575  0.93123511
   0.19386303  0.41599425  0.06876489
   0.19386303  0.91599425  0.43123511
   0.80613697  0.08400575  0.56876489
   0.19386303  0.08400575  0.56876489
   0.80613697  0.91599425  0.43123511
   0.80613697  0.41599425  0.06876489
   0.19386303  0.58400575  0.93123511
   0.30613697  0.08400575  0.93123511
   0.69386303  0.91599425  0.06876489
   0.69386303  0.41599425  0.43123511
   0.30613697  0.58400575  0.56876489
   0.69386303  0.58400575  0.56876489
   0.30613697  0.41599425  0.43123511
   0.30613697  0.91599425  0.06876489
   0.69386303  0.08400575  0.93123511
   0.69884626  0.56901179  0.08362067
   0.30115374  0.43098821  0.91637933
   0.30115374  0.93098821  0.58362067
   0.69884626  0.06901179  0.41637933
   0.30115374  0.06901179  0.41637933
   0.69884626  0.93098821  0.58362067
   0.69884626  0.43098821  0.91637933
   0.30115374  0.56901179  0.08362067
   0.19884626  0.06901179  0.08362067
   0.80115374  0.93098821  0.91637933
   0.80115374  0.43098821  0.58362067
   0.19884626  0.56901179  0.41637933
   0.80115374  0.56901179  0.41637933
   0.19884626  0.43098821  0.58362067
   0.19884626  0.93098821  0.91637933
   0.80115374  0.06901179  0.08362067
   0.00000000  0.63938137  0.13859275
   0.00000000  0.36061863  0.86140722
   0.00000000  0.86061863  0.63859278
   0.00000000  0.13938137  0.36140725
   0.50000000  0.13938137  0.13859275
   0.50000000  0.86061863  0.86140722
   0.50000000  0.36061863  0.63859278
   0.50000000  0.63938137  0.36140725
   0.00000000  0.28133386  0.52533040
   0.00000000  0.71866614  0.47466960
   0.00000000  0.21866614  0.02533040
   0.00000000  0.78133386  0.97466960
   0.50000000  0.78133386  0.52533040
   0.50000000  0.21866614  0.47466960
   0.50000000  0.71866614  0.02533040
   0.50000000  0.28133386  0.97466960
   0.00000000  0.26855257  0.39286757
   0.00000000  0.73144743  0.60713242
   0.00000000  0.23144743  0.89286758
   0.00000000  0.76855257  0.10713242
   0.50000000  0.76855257  0.39286757
   0.50000000  0.23144743  0.60713242
   0.50000000  0.73144743  0.89286758
   0.50000000  0.26855257  0.10713242
   0.75257647  0.50000000 -0.00000000
   0.24742353  0.50000000 -0.00000000
   0.24742353 -0.00000000  0.50000000
   0.75257647 -0.00000000  0.50000000
   0.25257647 -0.00000000 -0.00000000
   0.74742353 -0.00000000 -0.00000000
   0.74742353  0.50000000  0.50000000
   0.25257647  0.50000000  0.50000000
Direct configuration=     5
   0.07599748  0.82707337  0.15663354
   0.92400254  0.17292663  0.84336649
   0.92400254  0.67292663  0.65663351
   0.07599748  0.32707337  0.34336646
   0.92400254  0.32707337  0.34336646
   0.07599748  0.67292663  0.65663351
   0.07599748  0.17292663  0.84336649
   0.92400254  0.82707337  0.15663354
   0.57599746  0.32707337  0.15663354
   0.42400251  0.67292663  0.84336649
   0.42400251  0.17292663  0.65663351
   0.57599746  0.82707337  0.34336646
   0.42400251  0.82707337  0.34336646
   0.57599746  0.17292663  0.65663351
   0.57599746  0.67292663  0.84336649
   0.42400251  0.32707337  0.15663354
   0.80617076  0.58394087  0.93127106
   0.19382924  0.41605913  0.06872894
   0.19382924  0.91605913  0.43127106
   0.80617076  0.08394087  0.56872894
   0.19382924  0.08394087  0.56872894
   0.80617076  0.91605913  0.43127106
   0.80617076  0.41605913  0.06872894
   0.19382924  0.58394087  0.93127106
   0.30617076  0.08394087  0.93127106
   0.69382924  0.91605913  0.06872894
   0.69382924  0.41605913  0.43127106
   0.30617076  0.58394087  0.56872894
   0.69382924  0.58394087  0.56872894
   0.30617076  0.41605913  0.43127106
   0.30617076  0.91605913  0.06872894
   0.69382924  0.08394087  0.93127106
   0.69892514  0.56893896  0.08358692
   0.30107486  0.43106104  0.91641308
   0.30107486  0.93106104  0.58358692
   0.69892514  0.06893896  0.41641308
   0.30107486  0.06893896  0.41641308
   0.69892514  0.93106104  0.58358692
   0.69892514  0.43106104  0.91641308
   0.30107486  0.56893896  0.08358692
   0.19892514  0.06893896  0.08358692
   0.80107486  0.93106104  0.91641308
   0.80107486  0.43106104  0.58358692
   0.19892514  0.56893896  0.41641308
   0.80107486  0.56893896  0.41641308
   0.19892514  0.43106104  0.58358692
   0.19892514  0.93106104  0.91641308
   0.80107486  0.06893896  0.08358692
   0.00000000  0.63932788  0.13877080
   0.00000000  0.36067212  0.86122917
   0.00000000  0.86067212  0.63877083
   0.00000000  0.13932788  0.36122920
   0.50000000  0.13932788  0.13877080
   0.50000000  0.86067212  0.86122917
   0.50000000  0.36067212  0.63877083
   0.50000000  0.63932788  0.36122920
   0.00000000  0.28138415  0.52539961
   0.00000000  0.71861585  0.47460039
   0.00000000  0.21861585  0.02539961
   0.00000000  0.78138415  0.97460039
   0.50000000  0.78138415  0.52539961
   0.50000000  0.21861585  0.47460039
   0.50000000  0.71861585  0.02539961
   0.50000000  0.28138415  0.97460039
   0.00000000  0.26854009  0.39280400
   0.00000000  0.73145991  0.60719598
   0.00000000  0.23145991  0.89280402
   0.00000000  0.76854009  0.10719598
   0.50000000  0.76854009  0.39280400
   0.50000000  0.23145991  0.60719598
   0.50000000  0.73145991  0.89280402
   0.50000000  0.26854009  0.10719598
   0.75261955  0.50000000 -0.00000000
   0.24738045  0.50000000 -0.00000000
   0.24738045 -0.00000000  0.50000000
   0.75261955 -0.00000000  0.50000000
   0.25261955 -0.00000000 -0.00000000
   0.74738045 -0.00000000 -0.00000000
   0.74738045  0.50000000  0.50000000
   0.25261955  0.50000000  0.50000000
Direct configuration=     6
   0.07603283  0.82687627  0.15671864
   0.92396720  0.17312373  0.84328139
   0.92396720  0.67312373  0.65671861
   0.07603283  0.32687627  0.34328136
   0.92396720  0.32687627  0.34328136
   0.07603283  0.67312373  0.65671861
   0.07603283  0.17312373  0.84328139
   0.92396720  0.82687627  0.15671864
   0.57603280  0.32687627  0.15671864
   0.42396717  0.67312373  0.84328139
   0.42396717  0.17312373  0.65671861
   0.57603280  0.82687627  0.34328136
   0.42396717  0.82687627  0.34328136
   0.57603280  0.17312373  0.65671861
   0.57603280  0.67312373  0.84328139
   0.42396717  0.32687627  0.15671864
   0.80625758  0.58393742  0.93126364
   0.19374242  0.41606258  0.06873636
   0.19374242  0.91606258  0.43126364
   0.80625758  0.08393742  0.56873636
   0.19374242  0.08393742  0.56873636
   0.80625758  0.91606258  0.43126364
   0.80625758  0.41606258  0.06873636
   0.19374242  0.58393742  0.93126364
   0.30625758  0.08393742  0.93126364
   0.69374242  0.91606258  0.06873636
   0.69374242  0.41606258  0.43126364
   0.30625758  0.58393742  0.56873636
   0.69374242  0.58393742  0.56873636
   0.30625758  0.41606258  0.43126364
   0.30625758  0.91606258  0.06873636
   0.69374242  0.08393742  0.93126364
   0.69897598  0.56892206  0.08362269
   0.30102402  0.43107794  0.91637731
   0.30102402  0.93107794  0.58362269
   0.69897598  0.06892206  0.41637731
   0.30102402  0.06892206  0.41637731
   0.69897598  0.93107794  0.58362269
   0.69897598  0.43107794  0.91637731
   0.30102402  0.56892206  0.08362269
   0.19897598  0.06892206  0.08362269
   0.80102402  0.93107794  0.91637731
   0.80102402  0.43107794  0.58362269
   0.19897598  0.56892206  0.41637731
   0.80102402  0.56892206  0.41637731
   0.19897598  0.43107794  0.58362269
   0.19897598  0.93107794  0.91637731
   0.80102402  0.06892206  0.08362269
   0.00000000  0.63935123  0.13892735
   0.00000000  0.36064877  0.86107262
   0.00000000  0.86064877  0.63892738
   0.00000000  0.13935123  0.36107265
   0.50000000  0.13935123  0.13892735
   0.50000000  0.86064877  0.86107262
   0.50000000  0.36064877  0.63892738
   0.50000000  0.63935123  0.36107265
   0.00000000  0.28141018  0.52530157
   0.00000000  0.71858982  0.47469843
   0.00000000  0.21858982  0.02530157
   0.00000000  0.78141018  0.97469843
   0.50000000  0.78141018  0.52530157
   0.50000000  0.21858982  0.47469843
   0.50000000  0.71858982  0.02530157
   0.50000000  0.28141018  0.97469843
   0.00000000  0.26850137  0.39273514
   0.00000000  0.73149863  0.60726485
   0.00000000  0.23149863  0.89273515
   0.00000000  0.76850137  0.10726485
   0.50000000  0.76850137  0.39273514
   0.50000000  0.23149863  0.60726485
   0.50000000  0.73149863  0.89273515
   0.50000000  0.26850137  0.10726485
   0.75269726  0.50000000 -0.00000000
   0.24730274  0.50000000 -0.00000000
   0.24730274 -0.00000000  0.50000000
   0.75269726 -0.00000000  0.50000000
   0.25269726 -0.00000000 -0.00000000
   0.74730274 -0.00000000 -0.00000000
   0.74730274  0.50000000  0.50000000
   0.25269726  0.50000000  0.50000000
Direct configuration=     7
   0.07613885  0.82628497  0.15697396
   0.92386117  0.17371503  0.84302607
   0.92386117  0.67371503  0.65697393
   0.07613885  0.32628497  0.34302604
   0.92386117  0.32628497  0.34302604
   0.07613885  0.67371503  0.65697393
   0.07613885  0.17371503  0.84302607
   0.92386117  0.82628497  0.15697396
   0.57613883  0.32628497  0.15697396
   0.42386114  0.67371503  0.84302607
   0.42386114  0.17371503  0.65697393
   0.57613883  0.82628497  0.34302604
   0.42386114  0.82628497  0.34302604
   0.57613883  0.17371503  0.65697393
   0.57613883  0.67371503  0.84302607
   0.42386114  0.32628497  0.15697396
   0.80651805  0.58392704  0.93124139
   0.19348195  0.41607296  0.06875861
   0.19348195  0.91607296  0.43124139
   0.80651805  0.08392704  0.56875861
   0.19348195  0.08392704  0.56875861
   0.80651805  0.91607296  0.43124139
   0.80651805  0.41607296  0.06875861
   0.19348195  0.58392704  0.93124139
   0.30651805  0.08392704  0.93124139
   0.69348195  0.91607296  0.06875861
   0.69348195  0.41607296  0.43124139
   0.30651805  0.58392704  0.56875861
   0.69348195  0.58392704  0.56875861
   0.30651805  0.41607296  0.43124139
   0.30651805  0.91607296  0.06875861
   0.69348195  0.08392704  0.93124139
   0.69912852  0.56887135  0.08373002
   0.30087148  0.43112865  0.91626998
   0.30087148  0.93112865  0.58373002
   0.69912852  0.06887135  0.41626998
   0.30087148  0.06887135  0.41626998
   0.69912852  0.93112865  0.58373002
   0.69912852  0.43112865  0.91626998
   0.30087148  0.56887135  0.08373002
   0.19912852  0.06887135  0.08373002
   0.80087148  0.93112865  0.91626998
   0.80087148  0.43112865  0.58373002
   0.19912852  0.56887135  0.41626998
   0.80087148  0.56887135  0.41626998
   0.19912852  0.43112865  0.58373002
   0.19912852  0.93112865  0.91626998
   0.80087148  0.06887135  0.08373002
   0.00000000  0.63942129  0.13939702
   0.00000000  0.36057871  0.86060295
   0.00000000  0.86057871  0.63939705
   0.00000000  0.13942129  0.36060298
   0.50000000  0.13942129  0.13939702
   0.50000000  0.86057871  0.86060295
   0.50000000  0.36057871  0.63939705
   0.50000000  0.63942129  0.36060298
   0.00000000  0.28148824  0.52500747
   0.00000000  0.71851176  0.47499253
   0.00000000  0.21851176  0.02500747
   0.00000000  0.78148824  0.97499253
   0.50000000  0.78148824  0.52500747
   0.50000000  0.21851176  0.47499253
   0.50000000  0.71851176  0.02500747
   0.50000000  0.28148824  0.97499253
   0.00000000  0.26838523  0.39252854
   0.00000000  0.73161477  0.60747144
   0.00000000  0.23161477  0.89252856
   0.00000000  0.76838523  0.10747144
   0.50000000  0.76838523  0.39252854
   0.50000000  0.23161477  0.60747144
   0.50000000  0.73161477  0.89252856
   0.50000000  0.26838523  0.10747144
   0.75293038  0.50000000 -0.00000000
   0.24706962  0.50000000 -0.00000000
   0.24706962 -0.00000000  0.50000000
   0.75293038 -0.00000000  0.50000000
   0.25293038 -0.00000000 -0.00000000
   0.74706962 -0.00000000 -0.00000000
   0.74706962  0.50000000  0.50000000
   0.25293038  0.50000000  0.50000000
Direct configuration=     8
   0.07609349  0.82620770  0.15708712
   0.92390653  0.17379230  0.84291291
   0.92390653  0.67379230  0.65708709
   0.07609349  0.32620770  0.34291288
   0.92390653  0.32620770  0.34291288
   0.07609349  0.67379230  0.65708709
   0.07609349  0.17379230  0.84291291
   0.92390653  0.82620770  0.15708712
   0.57609347  0.32620770  0.15708712
   0.42390650  0.67379230  0.84291291
   0.42390650  0.17379230  0.65708709
   0.57609347  0.82620770  0.34291288
   0.42390650  0.82620770  0.34291288
   0.57609347  0.17379230  0.65708709
   0.57609347  0.67379230  0.84291291
   0.42390650  0.32620770  0.15708712
   0.80663013  0.58398639  0.93122188
   0.19336987  0.41601361  0.06877812
   0.19336987  0.91601361  0.43122188
   0.80663013  0.08398639  0.56877812
   0.19336987  0.08398639  0.56877812
   0.80663013  0.91601361  0.43122188
   0.80663013  0.41601361  0.06877812
   0.19336987  0.58398639  0.93122188
   0.30663013  0.08398639  0.93122188
   0.69336987  0.91601361  0.06877812
   0.69336987  0.41601361  0.43122188
   0.30663013  0.58398639  0.56877812
   0.69336987  0.58398639  0.56877812
   0.30663013  0.41601361  0.43122188
   0.30663013  0.91601361  0.06877812
   0.69336987  0.08398639  0.93122188
   0.69921630  0.56886259  0.08373380
   0.30078370  0.43113741  0.91626620
   0.30078370  0.93113741  0.58373380
   0.69921630  0.06886259  0.41626620
   0.30078370  0.06886259  0.41626620
   0.69921630  0.93113741  0.58373380
   0.69921630  0.43113741  0.91626620
   0.30078370  0.56886259  0.08373380
   0.19921630  0.06886259  0.08373380
   0.80078370  0.93113741  0.91626620
   0.80078370  0.43113741  0.58373380
   0.19921630  0.56886259  0.41626620
   0.80078370  0.56886259  0.41626620
   0.19921630  0.43113741  0.58373380
   0.19921630  0.93113741  0.91626620
   0.80078370  0.06886259  0.08373380
   0.00000000  0.63929920  0.13942510
   0.00000000  0.36070080  0.86057487
   0.00000000  0.86070080  0.63942513
   0.00000000  0.13929920  0.36057490
   0.50000000  0.13929920  0.13942510
   0.50000000  0.86070080  0.86057487
   0.50000000  0.36070080  0.63942513
   0.50000000  0.63929920  0.36057490
   0.00000000  0.28142873  0.52481498
   0.00000000  0.71857127  0.47518502
   0.00000000  0.21857127  0.02481498
   0.00000000  0.78142873  0.97518502
   0.50000000  0.78142873  0.52481498
   0.50000000  0.21857127  0.47518502
   0.50000000  0.71857127  0.02481498
   0.50000000  0.28142873  0.97518502
   0.00000000  0.26827688  0.39239439
   0.00000000  0.73172312  0.60760559
   0.00000000  0.23172312  0.89239441
   0.00000000  0.76827688  0.10760559
   0.50000000  0.76827688  0.39239439
   0.50000000  0.23172312  0.60760559
   0.50000000  0.73172312  0.89239441
   0.50000000  0.26827688  0.10760559
   0.75293788  0.50000000 -0.00000000
   0.24706212  0.50000000 -0.00000000
   0.24706212 -0.00000000  0.50000000
   0.75293788 -0.00000000  0.50000000
   0.25293788 -0.00000000 -0.00000000
   0.74706212 -0.00000000 -0.00000000
   0.74706212  0.50000000  0.50000000
   0.25293788  0.50000000  0.50000000
Direct configuration=     9
   0.07602593  0.82609262  0.15725566
   0.92397409  0.17390738  0.84274436
   0.92397409  0.67390738  0.65725564
   0.07602593  0.32609262  0.34274434
   0.92397409  0.32609262  0.34274434
   0.07602593  0.67390738  0.65725564
   0.07602593  0.17390738  0.84274436
   0.92397409  0.82609262  0.15725566
   0.57602591  0.32609262  0.15725566
   0.42397406  0.67390738  0.84274436
   0.42397406  0.17390738  0.65725564
   0.57602591  0.82609262  0.34274434
   0.42397406  0.82609262  0.34274434
   0.57602591  0.17390738  0.65725564
   0.57602591  0.67390738  0.84274436
   0.42397406  0.32609262  0.15725566
   0.80679706  0.58407479  0.93119283
   0.19320294  0.41592521  0.06880717
   0.19320294  0.91592521  0.43119283
   0.80679706  0.08407479  0.56880717
   0.19320294  0.08407479  0.56880717
   0.80679706  0.91592521  0.43119283
   0.80679706  0.41592521  0.06880717
   0.19320294  0.58407479  0.93119283
   0.30679706  0.08407479  0.93119283
   0.69320294  0.91592521  0.06880717
   0.69320294  0.41592521  0.43119283
   0.30679706  0.58407479  0.56880717
   0.69320294  0.58407479  0.56880717
   0.30679706  0.41592521  0.43119283
   0.30679706  0.91592521  0.06880717
   0.69320294  0.08407479  0.93119283
   0.69934704  0.56884955  0.08373944
   0.30065296  0.43115045  0.91626056
   0.30065296  0.93115045  0.58373944
   0.69934704  0.06884955  0.41626056
   0.30065296  0.06884955  0.41626056
   0.69934704  0.93115045  0.58373944
   0.69934704  0.43115045  0.91626056
   0.30065296  0.56884955  0.08373944
   0.19934704  0.06884955  0.08373944
   0.80065296  0.93115045  0.91626056
   0.80065296  0.43115045  0.58373944
   0.19934704  0.56884955  0.41626056
   0.80065296  0.56884955  0.41626056
   0.19934704  0.43115045  0.58373944
   0.19934704  0.93115045  0.91626056
   0.80065296  0.06884955  0.08373944
   0.00000000  0.63911736  0.13946692
   0.00000000  0.36088264  0.86053305
   0.00000000  0.86088264  0.63946695
   0.00000000  0.13911736  0.36053308
   0.50000000  0.13911736  0.13946692
   0.50000000  0.86088264  0.86053305
   0.50000000  0.36088264  0.63946695
   0.50000000  0.63911736  0.36053308
   0.00000000  0.28134009  0.52452828
   0.00000000  0.71865991  0.47547172
   0.00000000  0.21865991  0.02452828
   0.00000000  0.78134009  0.97547172
   0.50000000  0.78134009  0.52452828
   0.50000000  0.21865991  0.47547172
   0.50000000  0.71865991  0.02452828
   0.50000000  0.28134009  0.97547172
   0.00000000  0.26811549  0.39219460
   0.00000000  0.73188451  0.60780539
   0.00000000  0.23188451  0.89219461
   0.00000000  0.76811549  0.10780539
   0.50000000  0.76811549  0.39219460
   0.50000000  0.23188451  0.60780539
   0.50000000  0.73188451  0.89219461
   0.50000000  0.26811549  0.10780539
   0.75294906  0.50000000 -0.00000000
   0.24705094  0.50000000 -0.00000000
   0.24705094 -0.00000000  0.50000000
   0.75294906 -0.00000000  0.50000000
   0.25294906 -0.00000000 -0.00000000
   0.74705094 -0.00000000 -0.00000000
   0.74705094  0.50000000  0.50000000
   0.25294906  0.50000000  0.50000000
Direct configuration=    10
   0.07601688  0.82607626  0.15728784
   0.92398314  0.17392374  0.84271218
   0.92398314  0.67392374  0.65728782
   0.07601688  0.32607626  0.34271216
   0.92398314  0.32607626  0.34271216
   0.07601688  0.67392374  0.65728782
   0.07601688  0.17392374  0.84271218
   0.92398314  0.82607626  0.15728784
   0.57601686  0.32607626  0.15728784
   0.42398311  0.67392374  0.84271218
   0.42398311  0.17392374  0.65728782
   0.57601686  0.82607626  0.34271216
   0.42398311  0.82607626  0.34271216
   0.57601686  0.17392374  0.65728782
   0.57601686  0.67392374  0.84271218
   0.42398311  0.32607626  0.15728784
   0.80681894  0.58408120  0.93119551
   0.19318106  0.41591880  0.06880449
   0.19318106  0.91591880  0.43119551
   0.80681894  0.08408120  0.56880449
   0.19318106  0.08408120  0.56880449
   0.80681894  0.91591880  0.43119551
   0.80681894  0.41591880  0.06880449
   0.19318106  0.58408120  0.93119551
   0.30681894  0.08408120  0.93119551
   0.69318106  0.91591880  0.06880449
   0.69318106  0.41591880  0.43119551
   0.30681894  0.58408120  0.56880449
   0.69318106  0.58408120  0.56880449
   0.30681894  0.41591880  0.43119551
   0.30681894  0.91591880  0.06880449
   0.69318106  0.08408120  0.93119551
   0.69936628  0.56885112  0.08374450
   0.30063372  0.43114888  0.91625550
   0.30063372  0.93114888  0.58374450
   0.69936628  0.06885112  0.41625550
   0.30063372  0.06885112  0.41625550
   0.69936628  0.93114888  0.58374450
   0.69936628  0.43114888  0.91625550
   0.30063372  0.56885112  0.08374450
   0.19936628  0.06885112  0.08374450
   0.80063372  0.93114888  0.91625550
   0.80063372  0.43114888  0.58374450
   0.19936628  0.56885112  0.41625550
   0.80063372  0.56885112  0.41625550
   0.19936628  0.43114888  0.58374450
   0.19936628  0.93114888  0.91625550
   0.80063372  0.06885112  0.08374450
   0.00000000  0.63908250  0.13947346
   0.00000000  0.36091750  0.86052651
   0.00000000  0.86091750  0.63947349
   0.00000000  0.13908250  0.36052654
   0.50000000  0.13908250  0.13947346
   0.50000000  0.86091750  0.86052651
   0.50000000  0.36091750  0.63947349
   0.50000000  0.63908250  0.36052654
   0.00000000  0.28132396  0.52448415