  32  32   0   0
  0.8555981E+01  0.4932875E-09  0.4932875E-09  0.1299823E-08  0.5000000E-15
  1.000000000000000E-004
  CAR 
 graphite                                
     16.33507364    -16.70570979  301      4.95213655      1.00000000
    -16.706  0.0000E+00  0.0000E+00
    -16.596  0.0000E+00  0.0000E+00
    -16.485  0.0000E+00  0.0000E+00
    -16.375  0.0000E+00  0.0000E+00
    -16.265  0.0000E+00  0.0000E+00
    -16.155  0.0000E+00  0.0000E+00
    -16.045  0.0000E+00  0.0000E+00
    -15.935  0.0000E+00  0.0000E+00
    -15.825  0.0000E+00  0.0000E+00
    -15.714  0.0000E+00  0.0000E+00
    -15.604  0.0000E+00  0.0000E+00
    -15.494  0.0000E+00  0.0000E+00
    -15.384  0.0000E+00  0.0000E+00
    -15.274  0.0000E+00  0.0000E+00
    -15.164  0.0000E+00  0.0000E+00
    -15.054  0.0000E+00  0.0000E+00
    -14.944  0.0000E+00  0.0000E+00
    -14.833  0.0000E+00  0.0000E+00
    -14.723  0.0000E+00  0.0000E+00
    -14.613  0.1446E+01  0.7078E-01
    -14.503  0.2459E+01  0.2833E+00
    -14.393  0.3381E+01  0.6082E+00
    -14.283  0.5000E+01  0.1061E+01
    -14.173  0.4986E+01  0.1605E+01
    -14.062  0.4861E+01  0.2151E+01
    -13.952  0.4932E+01  0.2688E+01
    -13.842  0.4997E+01  0.3236E+01
    -13.732  0.4927E+01  0.3782E+01
    -13.622  0.4961E+01  0.4325E+01
    -13.512  0.5285E+01  0.4880E+01
    -13.402  0.5615E+01  0.5482E+01
    -13.291  0.6497E+01  0.6126E+01
    -13.181  0.6793E+01  0.6867E+01
    -13.071  0.4224E+01  0.7399E+01
    -12.961  0.2056E+01  0.7740E+01
    -12.851  0.3699E+01  0.8055E+01
    -12.741  0.4123E+01  0.8466E+01
    -12.631  0.8179E+01  0.9099E+01
    -12.521  0.5423E+01  0.9761E+01
    -12.410  0.6190E+01  0.1040E+02
    -12.300  0.4429E+01  0.1099E+02
    -12.190  0.4680E+01  0.1149E+02
    -12.080  0.4862E+01  0.1202E+02
    -11.970  0.4994E+01  0.1256E+02
    -11.860  0.5093E+01  0.1311E+02
    -11.750  0.5359E+01  0.1368E+02
    -11.639  0.5730E+01  0.1432E+02
    -11.529  0.5102E+01  0.1491E+02
    -11.419  0.5035E+01  0.1547E+02
    -11.309  0.5002E+01  0.1602E+02
    -11.199  0.5053E+01  0.1657E+02
    -11.089  0.5139E+01  0.1713E+02
    -10.979  0.5191E+01  0.1770E+02
    -10.869  0.5446E+01  0.1829E+02
    -10.758  0.5621E+01  0.1890E+02
    -10.648  0.5943E+01  0.1953E+02
    -10.538  0.5886E+01  0.2018E+02
    -10.428  0.5915E+01  0.2083E+02
    -10.318  0.5587E+01  0.2148E+02
    -10.208  0.4441E+01  0.2204E+02
    -10.098  0.4404E+01  0.2251E+02
     -9.987  0.5132E+01  0.2305E+02
     -9.877  0.5358E+01  0.2363E+02
     -9.767  0.5537E+01  0.2423E+02
     -9.657  0.5779E+01  0.2485E+02
     -9.547  0.6828E+01  0.2553E+02
     -9.437  0.8488E+01  0.2636E+02
     -9.327  0.8843E+01  0.2739E+02
     -9.216  0.6876E+01  0.2819E+02
     -9.106  0.5551E+01  0.2891E+02
     -8.996  0.3747E+01  0.2951E+02
     -8.886  0.3366E+01  0.2990E+02
     -8.776  0.2986E+01  0.3025E+02
     -8.666  0.2605E+01  0.3056E+02
     -8.556  0.2486E+01  0.3083E+02
     -8.446  0.2767E+01  0.3114E+02
     -8.335  0.2206E+01  0.3142E+02
     -8.225  0.1569E+01  0.3161E+02
     -8.115  0.2423E+01  0.3183E+02
     -8.005  0.6318E+01  0.3224E+02
     -7.895  0.4523E+01  0.3296E+02
     -7.785  0.3925E+01  0.3343E+02
     -7.675  0.4236E+01  0.3387E+02
     -7.564  0.6162E+01  0.3449E+02
     -7.454  0.6866E+01  0.3527E+02
     -7.344  0.7218E+01  0.3601E+02
     -7.234  0.8414E+01  0.3687E+02
     -7.124  0.8017E+01  0.3781E+02
     -7.014  0.6295E+01  0.3860E+02
     -6.904  0.6017E+01  0.3928E+02
     -6.793  0.5749E+01  0.3993E+02
     -6.683  0.5526E+01  0.4055E+02
     -6.573  0.5330E+01  0.4115E+02
     -6.463  0.5148E+01  0.4172E+02
     -6.353  0.4951E+01  0.4228E+02
     -6.243  0.4842E+01  0.4282E+02
     -6.133  0.4818E+01  0.4335E+02
     -6.023  0.4785E+01  0.4388E+02
     -5.912  0.4597E+01  0.4439E+02
     -5.802  0.4437E+01  0.4489E+02
     -5.692  0.3661E+01  0.4536E+02
     -5.582  0.4108E+01  0.4577E+02
     -5.472  0.4509E+01  0.4623E+02
     -5.362  0.5219E+01  0.4677E+02
     -5.252  0.5995E+01  0.4739E+02
     -5.141  0.8076E+01  0.4812E+02
     -5.031  0.1045E+02  0.4914E+02
     -4.921  0.7987E+01  0.5015E+02
     -4.811  0.5519E+01  0.5090E+02
     -4.701  0.3074E+01  0.5137E+02
     -4.591  0.2523E+01  0.5166E+02
     -4.481  0.3433E+01  0.5198E+02
     -4.370  0.4827E+01  0.5243E+02
     -4.260  0.6342E+01  0.5304E+02
     -4.150  0.7934E+01  0.5384E+02
     -4.040  0.7618E+01  0.5472E+02
     -3.930  0.6323E+01  0.5548E+02
     -3.820  0.5388E+01  0.5612E+02
     -3.710  0.7647E+01  0.5685E+02
     -3.600  0.7508E+01  0.5767E+02
     -3.489  0.7247E+01  0.5849E+02
     -3.379  0.7110E+01  0.5928E+02
     -3.269  0.8515E+01  0.6012E+02
     -3.159  0.1000E+02  0.6110E+02
     -3.049  0.7771E+01  0.6213E+02
     -2.939  0.8904E+01  0.6309E+02
     -2.829  0.7771E+01  0.6401E+02
     -2.718  0.6837E+01  0.6480E+02
     -2.608  0.7566E+01  0.6559E+02
     -2.498  0.8651E+01  0.6648E+02
     -2.388  0.1086E+02  0.6754E+02
     -2.278  0.1324E+02  0.6887E+02
     -2.168  0.1195E+02  0.7033E+02
     -2.058  0.1064E+02  0.7153E+02
     -1.947  0.1252E+02  0.7282E+02
     -1.837  0.1307E+02  0.7420E+02
     -1.727  0.1427E+02  0.7579E+02
     -1.617  0.1433E+02  0.7731E+02
     -1.507  0.1128E+02  0.7900E+02
     -1.397  0.1440E+02  0.8018E+02
     -1.287  0.1827E+02  0.8225E+02
     -1.177  0.1951E+02  0.8431E+02
     -1.066  0.1469E+02  0.8617E+02
     -0.956  0.1269E+02  0.8767E+02
     -0.846  0.1185E+02  0.8901E+02
     -0.736  0.7838E+01  0.9012E+02
     -0.626  0.8159E+01  0.9097E+02
     -0.516  0.1043E+02  0.9199E+02
     -0.406  0.1408E+02  0.9344E+02
     -0.295  0.1856E+02  0.9508E+02
     -0.185  0.8694E+01  0.9635E+02
     -0.075  0.8944E+01  0.9733E+02
      0.035  0.9967E+01  0.9837E+02
      0.145  0.1076E+02  0.9951E+02
      0.255  0.1108E+02  0.1007E+03
      0.365  0.9769E+01  0.1019E+03
      0.475  0.9546E+01  0.1030E+03
      0.586  0.9442E+01  0.1040E+03
      0.696  0.9663E+01  0.1051E+03
      0.806  0.9998E+01  0.1061E+03
      0.916  0.9284E+01  0.1072E+03
      1.026  0.9275E+01  0.1082E+03
      1.136  0.9215E+01  0.1092E+03
      1.246  0.9310E+01  0.1103E+03
      1.357  0.9387E+01  0.1113E+03
      1.467  0.9786E+01  0.1123E+03
      1.577  0.9024E+01  0.1134E+03
      1.687  0.9253E+01  0.1144E+03
      1.797  0.9380E+01  0.1154E+03
      1.907  0.8541E+01  0.1164E+03
      2.017  0.6645E+01  0.1173E+03
      2.128  0.5809E+01  0.1180E+03
      2.238  0.5906E+01  0.1186E+03
      2.348  0.4454E+01  0.1192E+03
      2.458  0.4523E+01  0.1196E+03
      2.568  0.7258E+01  0.1203E+03
      2.678  0.8071E+01  0.1211E+03
      2.788  0.7228E+01  0.1220E+03
      2.898  0.3695E+01  0.1226E+03
      3.009  0.6433E+01  0.1233E+03
      3.119  0.7302E+01  0.1240E+03
      3.229  0.5196E+01  0.1247E+03
      3.339  0.4260E+01  0.1252E+03
      3.449  0.3646E+01  0.1256E+03
      3.559  0.3187E+01  0.1260E+03
      3.669  0.2884E+01  0.1264E+03
      3.780  0.2575E+01  0.1267E+03
      3.890  0.2156E+01  0.1269E+03
      4.000  0.1854E+01  0.1271E+03
      4.110  0.1604E+01  0.1273E+03
      4.220  0.1354E+01  0.1275E+03
      4.330  0.1142E+01  0.1276E+03
      4.440  0.9672E+00  0.1277E+03
      4.551  0.8143E+00  0.1278E+03
      4.661  0.5756E+00  0.1279E+03
      4.771  0.3461E+00  0.1280E+03
      4.881  0.1246E+00  0.1280E+03
      4.991  0.2939E-01  0.1280E+03
      5.101  0.1667E+00  0.1280E+03
      5.211  0.3136E+00  0.1280E+03
      5.321  0.4706E+00  0.1281E+03
      5.432  0.6423E+00  0.1281E+03
      5.542  0.8294E+00  0.1282E+03
      5.652  0.1055E+01  0.1283E+03
      5.762  0.1333E+01  0.1285E+03
      5.872  0.1699E+01  0.1286E+03
      5.982  0.2054E+01  0.1288E+03
      6.092  0.2433E+01  0.1291E+03
      6.203  0.3182E+01  0.1294E+03
      6.313  0.3861E+01  0.1298E+03
      6.423  0.4605E+01  0.1303E+03
      6.533  0.1343E+02  0.1312E+03
      6.643  0.8320E+01  0.1322E+03
      6.753  0.7525E+01  0.1331E+03
      6.863  0.7727E+01  0.1339E+03
      6.974  0.7965E+01  0.1348E+03
      7.084  0.6057E+01  0.1355E+03
      7.194  0.5606E+01  0.1362E+03
      7.304  0.5273E+01  0.1368E+03
      7.414  0.4283E+01  0.1373E+03
      7.524  0.3691E+01  0.1377E+03
      7.634  0.3460E+01  0.1381E+03
      7.744  0.3681E+01  0.1385E+03
      7.855  0.4112E+01  0.1390E+03
      7.965  0.4453E+01  0.1394E+03
      8.075  0.4763E+01  0.1399E+03
      8.185  0.4813E+01  0.1405E+03
      8.295  0.4593E+01  0.1410E+03
      8.405  0.4383E+01  0.1415E+03
      8.515  0.4153E+01  0.1420E+03
      8.626  0.3940E+01  0.1424E+03
      8.736  0.3824E+01  0.1428E+03
      8.846  0.3669E+01  0.1432E+03
      8.956  0.3579E+01  0.1436E+03
      9.066  0.3496E+01  0.1440E+03
      9.176  0.3358E+01  0.1444E+03
      9.286  0.3229E+01  0.1448E+03
      9.397  0.3180E+01  0.1451E+03
      9.507  0.3175E+01  0.1455E+03
      9.617  0.3316E+01  0.1458E+03
      9.727  0.3614E+01  0.1462E+03
      9.837  0.3609E+01  0.1466E+03
      9.947  0.3604E+01  0.1470E+03
     10.057  0.3648E+01  0.1474E+03
     10.167  0.3718E+01  0.1478E+03
     10.278  0.3808E+01  0.1482E+03
     10.388  0.3856E+01  0.1486E+03
     10.498  0.3797E+01  0.1491E+03
     10.608  0.3767E+01  0.1495E+03
     10.718  0.3743E+01  0.1499E+03
     10.828  0.4194E+01  0.1503E+03
     10.938  0.4534E+01  0.1508E+03
     11.049  0.4751E+01  0.1513E+03
     11.159  0.4772E+01  0.1518E+03
     11.269  0.4696E+01  0.1524E+03
     11.379  0.4831E+01  0.1529E+03
     11.489  0.4697E+01  0.1535E+03
     11.599  0.3298E+01  0.1539E+03
     11.709  0.3138E+01  0.1542E+03
     11.819  0.2892E+01  0.1546E+03
     11.930  0.3349E+01  0.1549E+03
     12.040  0.3650E+01  0.1553E+03
     12.150  0.3968E+01  0.1557E+03
     12.260  0.6134E+01  0.1563E+03
     12.370  0.6992E+01  0.1570E+03
     12.480  0.9906E+01  0.1579E+03
     12.590  0.1217E+02  0.1591E+03
     12.701  0.1331E+02  0.1606E+03
     12.811  0.1272E+02  0.1620E+03
     12.921  0.1181E+02  0.1634E+03
     13.031  0.9744E+01  0.1646E+03
     13.141  0.7562E+01  0.1655E+03
     13.251  0.6258E+01  0.1663E+03
     13.361  0.5934E+01  0.1670E+03
     13.472  0.3470E+01  0.1675E+03
     13.582  0.1898E+01  0.1678E+03
     13.692  0.6736E+00  0.1679E+03
     13.802  0.7723E-01  0.1680E+03
     13.912  0.4851E-01  0.1680E+03
     14.022  0.2654E-01  0.1680E+03
     14.132  0.1114E-01  0.1680E+03
     14.242  0.2324E-02  0.1680E+03
     14.353  0.0000E+00  0.1680E+03
     14.463  0.0000E+00  0.1680E+03
     14.573  0.0000E+00  0.1680E+03
     14.683  0.0000E+00  0.1680E+03
     14.793  0.0000E+00  0.1680E+03
     14.903  0.0000E+00  0.1680E+03
     15.013  0.0000E+00  0.1680E+03
     15.124  0.0000E+00  0.1680E+03
     15.234  0.0000E+00  0.1680E+03
     15.344  0.0000E+00  0.1680E+03
     15.454  0.0000E+00  0.1680E+03
     15.564  0.0000E+00  0.1680E+03
     15.674  0.0000E+00  0.1680E+03
     15.784  0.0000E+00  0.1680E+03
     15.895  0.0000E+00  0.1680E+03
     16.005  0.0000E+00  0.1680E+03
     16.115  0.0000E+00  0.1680E+03
     16.225  0.0000E+00  0.1680E+03
     16.335  0.0000E+00  0.1680E+03
