   32   32    1    1
  0.8555981E+01  0.4932875E-09  0.4932875E-09  0.1299823E-08  0.5000000E-15
  1.000000000000000E-004
  CAR 
 graphite                                
    128    163     84
 
  0.0000000E+00  0.0000000E+00  0.0000000E+00  0.3086420E-02
    1      -14.705710
    2      -14.522710
    3      -14.522190
    4      -14.323332
    5       -9.360676
    6       -9.352887
    7       -9.349592
    8       -9.281262
    9       -9.280505
   10       -9.272736
   11       -9.269509
   12       -9.269497
   13       -9.266904
   14       -9.218384
   15       -9.206885
   16       -9.204550
   17       -8.270491
   18       -8.267484
   19       -8.265901
   20       -8.235124
   21       -8.231618
   22       -8.229278
   23       -8.229067
   24       -8.229063
   25       -8.224943
   26       -8.164268
   27       -8.159289
   28       -8.156619
   29       -3.680367
   30       -2.649155
   31       -2.647253
   32       -1.444881
   33       -1.442163
   34       -1.422861
   35       -1.408785
   36       -1.405063
   37       -1.405055
   38       -1.403838
   39       -1.386385
   40       -1.383602
   41       -1.375825
   42       -1.368734
   43       -1.366312
   44       -1.346876
   45        1.953577
   46        1.967110
   47        1.972443
   48        1.977779
   49        1.983643
   50        1.988619
   51        1.993709
   52        2.006402
   53        2.110384
   54        2.112651
   55        2.114401
   56        2.604528
   57        2.606582
   58        2.608842
   59        2.612147
   60        2.612158
   61        2.613861
   62        2.908035
   63        2.924938
   64        2.926576
   65        6.497390
   66        6.499308
   67        6.502325
   68        6.605436
   69        6.611583
   70        6.615809
   71        6.616942
   72        6.617356
   73        6.623673
   74        7.235582
   75        7.249492
   76        7.252760
   77        9.554966
   78       12.113095
   79       12.116339
   80       12.149614
   81       12.356178
   82       12.356959
   83       12.360441
   84       12.375856
 
  0.1111111E+00 -0.2081668E-16  0.0000000E+00  0.6172840E-02
    1      -14.631864
    2      -14.449578
    3      -14.449060
    4      -14.251108
    5      -10.159016
    6      -10.026536
    7      -10.026100
    8       -9.886917
    9       -9.616448
   10       -9.608290
   11       -9.501622
   12       -9.501272
   13       -9.492765
   14       -9.492011
   15       -9.385721
   16       -9.376185
   17       -7.982598
   18       -7.976317
   19       -7.893709
   20       -7.891025
   21       -7.885644
   22       -7.885247
   23       -7.788793
   24       -7.781656
   25       -7.467420
   26       -7.363877
   27       -7.361747
   28       -7.251371
   29       -3.590721
   30       -2.562204
   31       -2.560307
   32       -1.670514
   33       -1.650946
   34       -1.629111
   35       -1.628966
   36       -1.610701
   37       -1.607926
   38       -1.586766
   39       -1.567067
   40       -1.371324
   41       -1.335115
   42       -1.332621
   43       -1.296282
   44       -1.292818
   45        1.501417
   46        1.670035
   47        1.686030
   48        1.690667
   49        1.707216
   50        1.800043
   51        1.815540
   52        1.820177
   53        1.834829
   54        1.988266
   55        1.990205
   56        2.183254
   57        2.185315
   58        2.552746
   59        2.554684
   60        2.559686
   61        2.560821
   62        2.839585
   63        2.983303
   64        2.998399
   65        6.554554
   66        6.557046
   67        6.737256
   68        6.743132
   69        6.747633
   70        6.750193
   71        6.810127
   72        7.157441
   73        7.162187
   74        7.372642
   75        7.384660
   76        7.861868
   77        9.642277
   78       12.155812
   79       12.393410
   80       12.395010
   81       12.449385
   82       12.484386
   83       12.521981
   84       12.644980
 
  0.2222222E+00 -0.4163336E-16  0.0000000E+00  0.6172840E-02
    1      -14.410595
    2      -14.230582
    3      -14.230069
    4      -14.034739
    5      -11.173839
    6      -11.026859
    7      -11.026428
    8      -10.870047
    9       -9.966960
   10       -9.961251
   11       -9.837185
   12       -9.836676
   13       -9.831090
   14       -9.830318
   15       -9.700083
   16       -9.693894
   17       -7.305305
   18       -7.296076
   19       -7.205406
   20       -7.203129
   21       -7.195003
   22       -7.194670
   23       -7.096176
   24       -7.086825
   25       -6.140231
   26       -6.042706
   27       -6.040718
   28       -5.938628
   29       -3.322418
   30       -2.302353
   31       -2.300467
   32       -2.280064
   33       -2.261686
   34       -2.229660
   35       -2.229473
   36       -2.212421
   37       -2.209662
   38       -2.177328
   39       -2.158838
   40       -1.156226
   41       -1.120712
   42       -1.118068
   43       -1.082442
   44       -1.044901
   45        0.465753
   46        0.840287
   47        0.867410
   48        0.871960
   49        0.899410
   50        1.294375
   51        1.296032
   52        1.378198
   53        1.399296
   54        1.403915
   55        1.424734
   56        1.754708
   57        1.757399
   58        2.238456
   59        2.431553
   60        2.432883
   61        2.436913
   62        2.438679
   63        3.083915
   64        3.094227
   65        6.762387
   66        6.765209
   67        7.072678
   68        7.078067
   69        7.082528
   70        7.084759
   71        7.676793
   72        7.684687
   73        7.897773
   74        8.380136
   75        8.384025
   76        9.072016
   77        9.905044
   78       12.275591
   79       12.504907
   80       12.506404
   81       12.717467
   82       12.721611
   83       12.723614
   84       13.331085
 
  0.3333333E+00  0.0000000E+00  0.0000000E+00  0.6172840E-02
    1      -14.043256
    2      -13.866817
    3      -13.866312
    4      -13.675354
    5      -12.089436
    6      -11.932826
    7      -11.932358
    8      -11.764374
    9      -10.224720
   10      -10.221081
   11      -10.089354
   12      -10.088521
   13      -10.085320
   14      -10.084382
   15       -9.945296
   16       -9.941475
   17       -6.495598
   18       -6.484860
   19       -6.402999
   20       -6.400600
   21       -6.391146
   22       -6.390842
   23       -6.303544
   24       -6.293058
   25       -4.702905
   26       -4.618066
   27       -4.615873
   28       -4.527678
   29       -3.097765
   30       -3.081803
   31       -3.039290
   32       -3.038743
   33       -3.024296
   34       -3.021432
   35       -2.977420
   36       -2.961207
   37       -2.878041
   38       -1.872765
   39       -1.870894
   40       -0.806897
   41       -0.772866
   42       -0.769986
   43       -0.735442
   44       -0.636560
   45       -0.564043
   46       -0.349680
   47       -0.308525
   48       -0.304593
   49       -0.263087
   50        0.341357
   51        0.343006
   52        0.813985
   53        0.839992
   54        0.844073
   55        0.870049
   56        1.420425
   57        1.554646
   58        1.557184
   59        2.307702
   60        2.308427
   61        2.311172
   62        2.313645
   63        3.124735
   64        3.130876
   65        7.090862
   66        7.095708
   67        7.465516
   68        7.470290
   69        7.473810
   70        7.475375
   71        7.969540
   72        7.973769
   73        9.398218
   74        9.858101
   75        9.861496
   76       10.343202
   77       10.467056
   78       12.409294
   79       12.653640
   80       12.677216
   81       12.678881
   82       12.968907
   83       12.973560
   84       13.078809
 
  0.4444444E+00 -0.8326673E-16  0.0000000E+00  0.6172840E-02
    1      -13.531420
    2      -13.360205
    3      -13.359714
    4      -13.174821
    5      -12.878415
    6      -12.713713
    7      -12.713224
    8      -12.536111
    9      -10.357247
   10      -10.355180
   11      -10.219994
   12      -10.218604
   13      -10.217630
   14      -10.216204
   15      -10.073016
   16      -10.070891
   17       -5.738938
   18       -5.730820
   19       -5.671491
   20       -5.668350
   21       -5.662723
   22       -5.661589
   23       -5.601304
   24       -5.594430
   25       -3.841678
   26       -3.833117
   27       -3.795363
   28       -3.793616
   29       -3.786789
   30       -3.783460
   31       -3.739707
   32       -3.729889
   33       -3.217789
   34       -3.147163
   35       -3.144545
   36       -3.071676
   37       -2.262886
   38       -1.740804
   39       -1.685981
   40       -1.682872
   41       -1.624616
   42       -1.485684
   43       -1.278217
   44       -1.276567
   45       -0.533495
   46       -0.531786
   47       -0.340213
   48       -0.307773
   49       -0.304537
   50       -0.272072
   51       -0.075672
   52        0.215892
   53        0.245736
   54        0.249231
   55        0.279242
   56        0.621261
   57        1.444589
   58        1.446668
   59        2.233234
   60        2.234098
   61        2.235151
   62        2.238455
   63        3.129617
   64        3.132644
   65        7.364893
   66        7.368551
   67        7.734197
   68        7.738752
   69        7.740134
   70        7.740711
   71        8.124631
   72        8.127316
   73       10.953361
   74       11.030546
   75       11.397521
   76       11.401117
   77       11.722584
   78       11.905670
   79       12.637767
   80       12.747470
   81       12.782209
   82       12.790627
   83       12.887528
   84       12.890596
 
 -0.6776264E-20  0.1111111E+00  0.0000000E+00  0.6172840E-02
    1      -14.631866
    2      -14.449580
    3      -14.449062
    4      -14.251110
    5      -10.158937
    6      -10.026419
    7      -10.026036
    8       -9.886814
    9       -9.616435
   10       -9.608586
   11       -9.501624
   12       -9.501263
   13       -9.492878
   14       -9.492548
   15       -9.385687
   16       -9.376595
   17       -7.982711
   18       -7.975010
   19       -7.894015
   20       -7.891026
   21       -7.885609
   22       -7.882526
   23       -7.788909
   24       -7.780277
   25       -7.468400
   26       -7.363966
   27       -7.363628
   28       -7.252365
   29       -3.590716
   30       -2.562198
   31       -2.560301
   32       -1.671818
   33       -1.650930
   34       -1.631492
   35       -1.629007
   36       -1.610701
   37       -1.608112
   38       -1.588015
   39       -1.567214
   40       -1.369871
   41       -1.332643
   42       -1.332417
   43       -1.295037
   44       -1.292811
   45        1.502275
   46        1.667660
   47        1.684928
   48        1.686033
   49        1.703204
   50        1.804305
   51        1.820174
   52        1.821260
   53        1.837118
   54        1.987723
   55        1.989515
   56        2.184832
   57        2.185738
   58        2.552732
   59        2.554664
   60        2.558131
   61        2.559834
   62        2.840710
   63        2.983321
   64        2.997252
   65        6.556433
   66        6.556974
   67        6.737732
   68        6.743058
   69        6.748272
   70        6.753473
   71        6.808287
   72        7.156447
   73        7.159534
   74        7.372778
   75        7.386838
   76        7.860039
   77        9.642284
   78       12.156317
   79       12.394397
   80       12.395100
   81       12.448996
   82       12.484973
   83       12.521621
   84       12.612259
 
  0.1111111E+00  0.1111111E+00  0.0000000E+00  0.6172840E-02
    1      -14.484193
    2      -14.303386
    3      -14.302872
    4      -14.106678
    5      -10.626378
    6      -10.623295
    7      -10.487489
    8      -10.484404
    9      -10.484385
   10      -10.481277
   11      -10.336904
   12      -10.333775
   13       -9.170890
   14       -9.093147
   15       -9.091549
   16       -9.031135
   17       -8.085638
   18       -8.051616
   19       -8.048478
   20       -7.983954
   21       -6.784681
   22       -6.781443
   23       -6.683445
   24       -6.681078
   25       -6.681056
   26       -6.676761
   27       -6.574594
   28       -6.571134
   29       -3.411531
   30       -2.388636
   31       -2.386749
   32       -2.337375
   33       -2.287354
   34       -2.284895
   35       -2.233606
   36       -1.527036
   37       -1.524093
   38       -1.487905
   39       -1.484085
   40       -1.484077
   41       -1.482461
   42       -1.444252
   43       -1.441681
   44       -1.127205
   45        1.057233
   46        1.059150
   47        1.140911
   48        1.157000
   49        1.161962
   50        1.177487
   51        1.486426
   52        1.499659
   53        1.504200
   54        1.517732
   55        1.823126
   56        1.826278
   57        1.826487
   58        1.828360
   59        2.379957
   60        2.651703
   61        2.654077
   62        2.870275
   63        2.873074
   64        3.167450
   65        6.493328
   66        6.534599
   67        6.539648
   68        7.041435
   69        7.263007
   70        7.265458
   71        7.698783
   72        7.700670
   73        7.701105
   74        7.706060
   75        8.383623
   76        8.386425
   77        9.817688
   78       12.529552
   79       12.533723
   80       12.658874
   81       12.715416
   82       12.765032
   83       12.768566
   84       12.771381
 
  0.2222222E+00  0.1111111E+00  0.0000000E+00  0.6172840E-02
    1      -14.189783
    2      -14.011940
    3      -14.011432
    4      -13.818727
    5      -11.594584
    6      -11.443207
    7      -11.442764
    8      -11.281062
    9      -10.968317
   10      -10.823832
   11      -10.823415
   12      -10.669418
   13       -9.229350
   14       -9.118923
   15       -9.118005
   16       -9.007183
   17       -7.634050
   18       -7.551100
   19       -7.548489
   20       -7.453414
   21       -5.997459
   22       -5.903392
   23       -5.903005
   24       -5.804660
   25       -5.397603
   26       -5.307215
   27       -5.305197
   28       -5.210740
   29       -3.248629
   30       -3.188422
   31       -3.186012
   32       -3.123182
   33       -3.055099
   34       -2.054326
   35       -2.043766
   36       -2.041896
   37       -2.005739
   38       -2.005196
   39       -1.955108
   40       -1.239707
   41       -1.201206
   42       -1.198639
   43       -1.159622
   44       -0.798826
   45        0.004043
   46        0.182620
   47        0.210439
   48        0.215592
   49        0.242730
   50        0.717125
   51        0.874217
   52        0.875839
   53        0.939884
   54        0.959587
   55        0.964604
   56        0.984803
   57        1.538008
   58        1.539391
   59        1.894362
   60        2.473975
   61        2.507720
   62        3.072361
   63        3.075026
   64        3.500886
   65        6.444175
   66        6.544190
   67        6.548875
   68        6.978285
   69        7.825470
   70        8.269946
   71        8.272472
   72        8.598689
   73        8.854942
   74        9.071209
   75        9.074535
   76        9.697323
   77       10.169568
   78       12.675184
   79       12.909774
   80       12.911415
   81       12.923787
   82       12.928239
   83       13.040823
   84       13.494069
 
  0.3333333E+00  0.1111111E+00  0.0000000E+00  0.6172840E-02
    1      -13.750061
    2      -13.576619
    3      -13.576120
    4      -13.388647
    5      -12.447493
    6      -12.287177
    7      -12.286706
    8      -12.114635
    9      -11.178015
   10      -11.030825
   11      -11.030402
   12      -10.873793
   13       -9.376354
   14       -9.253089
   15       -9.252583
   16       -9.123922
   17       -6.869426
   18       -6.784305
   19       -6.781854
   20       -6.692401
   21       -5.193755
   22       -5.115960
   23       -5.114931
   24       -5.034993
   25       -4.187330
   26       -4.125677
   27       -4.123122
   28       -4.056309
   29       -3.943725
   30       -3.867267
   31       -3.865027
   32       -3.786040
   33       -2.753518
   34       -2.702478
   35       -2.701101
   36       -2.646374
   37       -2.525045
   38       -1.532462
   39       -1.530542
   40       -1.069280
   41       -1.024183
   42       -1.020419
   43       -0.979692
   44       -0.973223
   45       -0.822718
   46       -0.786366
   47       -0.783626
   48       -0.746610
   49       -0.313597
   50       -0.048664
   51       -0.047014
   52        0.313143
   53        0.340630
   54        0.345090
   55        0.373166
   56        0.504136
   57        1.069375
   58        1.353932
   59        1.355463
   60        2.347768
   61        2.494699
   62        3.162326
   63        3.164573
   64        3.819433
   65        6.378027
   66        6.665178
   67        6.668856
   68        7.080881
   69        8.333838
   70        8.725025
   71        8.727188
   72        9.158726
   73       10.167520
   74       10.577261
   75       10.580097
   76       10.697025
   77       11.102460
   78       12.234226
   79       12.948000
   80       13.097182
   81       13.098949
   82       13.150825
   83       13.160298
   84       13.287079
 
  0.4444444E+00  0.1111111E+00  0.0000000E+00  0.6172840E-02
    1      -13.169575
    2      -13.166551
    3      -13.003080
    4      -13.000702
    5      -12.999746
    6      -12.997192
    7      -12.820909
    8      -12.817820
    9      -11.248763
   10      -11.101029
   11      -11.100602
   12      -10.943061
   13       -9.431867
   14       -9.306131
   15       -9.305732
   16       -9.173866
   17       -6.351990
   18       -6.296484
   19       -6.294190
   20       -6.242290
   21       -4.713773
   22       -4.700774
   23       -4.670160
   24       -4.668616
   25       -4.666318
   26       -4.664479
   27       -4.624678
   28       -4.621239
   29       -3.161105
   30       -3.132507
   31       -3.129233
   32       -3.092051
   33       -2.480019
   34       -2.476740
   35       -2.418574
   36       -2.417939
   37       -2.416583
   38       -2.411498
   39       -2.353649
   40       -2.349736
   41       -1.829770
   42       -1.827271
   43       -0.863651
   44       -0.860688
   45       -0.859845
   46       -0.857527
   47       -0.297206
   48       -0.290757
   49       -0.264963
   50       -0.258301
   51       -0.256079
   52       -0.255613
   53       -0.225551
   54       -0.221222
   55        0.315247
   56        0.318031
   57        0.431226
   58        1.290262
   59        1.291907
   60        2.301957
   61        2.478763
   62        3.185443
   63        3.187157
   64        3.944610
   65        6.359656
   66        6.734189
   67        6.736656
   68        7.135807
   69        8.555192
   70        8.901908
   71        8.904226
   72        9.248007
   73       11.391227
   74       11.393068
   75       11.771960
   76       11.775532
   77       12.070431
   78       12.073273
   79       12.074241
   80       12.080537
   81       12.498763
   82       12.502448
   83       13.184689
   84       13.193133
 
 -0.4444444E+00  0.1111111E+00  0.0000000E+00  0.6172840E-02
    1      -13.750827
    2      -13.577391
    3      -13.576895
    4      -13.389410
    5      -12.446305
    6      -12.285977
    7      -12.285495
    8      -12.113437
    9      -11.179793
   10      -11.032681
   11      -11.032256
   12      -10.875602
   13       -9.373720
   14       -9.250189
   15       -9.249823
   16       -9.120984
   17       -6.861055
   18       -6.775029
   19       -6.774321
   20       -6.684244
   21       -5.205226
   22       -5.127867
   23       -5.125337
   24       -5.045729
   25       -4.199474
   26       -4.137232
   27       -4.136384
   28       -4.068981
   29       -3.945925
   30       -3.869656
   31       -3.867049
   32       -3.788258
   33       -2.739146
   34       -2.688704
   35       -2.685518
   36       -2.631431
   37       -2.525784
   38       -1.533180
   39       -1.531265
   40       -1.069231
   41       -1.023548
   42       -1.021264
   43       -0.979117
   44       -0.973064
   45       -0.820659
   46       -0.784477
   47       -0.781334
   48       -0.744617
   49       -0.314294
   50       -0.047642
   51       -0.045957
   52        0.313405
   53        0.341111
   54        0.344030
   55        0.372626
   56        0.502812
   57        1.070334
   58        1.352166
   59        1.353928
   60        2.345402
   61        2.495038
   62        3.165281
   63        3.166448
   64        3.826754
   65        6.378286
   66        6.669000
   67        6.671002
   68        7.082084
   69        8.328263
   70        8.719847
   71        8.722965
   72        9.156922
   73       10.168193
   74       10.576709
   75       10.579757
   76       10.695998
   77       11.101053
   78       12.235531
   79       12.944857
   80       13.094729
   81       13.096737
   82       13.155197
   83       13.162917
   84       13.345646
 
 -0.3333333E+00  0.1111111E+00  0.0000000E+00  0.6172840E-02
    1      -14.190320
    2      -14.012485
    3      -14.011979
    4      -13.819265
    5      -11.593160
    6      -11.441803
    7      -11.441347
    8      -11.279634
    9      -10.971898
   10      -10.827443
   11      -10.827026
   12      -10.673080
   13       -9.223725
   14       -9.112330
   15       -9.112009
   16       -8.999987
   17       -7.627478
   18       -7.542748
   19       -7.542472
   20       -7.445841
   21       -6.009079
   22       -5.915711
   23       -5.913690
   24       -5.816021
   25       -5.399911
   26       -5.309617
   27       -5.307453
   28       -5.213085
   29       -3.264510
   30       -3.203398
   31       -3.203069
   32       -3.139190
   33       -3.055638
   34       -2.044314
   35       -2.042440
   36       -2.035960
   37       -1.988424
   38       -1.985582
   39       -1.936642
   40       -1.237989
   41       -1.199654
   42       -1.196841
   43       -1.157905
   44       -0.799338
   45        0.005227
   46        0.178743
   47        0.207529
   48        0.209823
   49        0.237641
   50        0.714662
   51        0.875257
   52        0.876996
   53        0.945432
   54        0.965054
   55        0.967192
   56        0.988131
   57        1.534526
   58        1.536436
   59        1.895293
   60        2.469108
   61        2.507300
   62        3.077908
   63        3.078546
   64        3.514843
   65        6.441760
   66        6.550323
   67        6.552806
   68        6.984052
   69        7.818567
   70        8.261682
   71        8.265557
   72        8.598769
   73        8.849695
   74        9.070264
   75        9.073878
   76        9.695745
   77       10.168809
   78       12.672810
   79       12.907359
   80       12.909307
   81       12.923622
   82       12.927916
   83       13.039455
   84       13.509336
 
 -0.2222222E+00  0.1111111E+00  0.0000000E+00  0.6172840E-02
    1      -14.484525
    2      -14.303703
    3      -14.303189
    4      -14.107014
    5      -10.630195
    6      -10.623202
    7      -10.490148
    8      -10.489740
    9      -10.483070
   10      -10.482665
   11      -10.340971
   12      -10.333806
   13       -9.161776
   14       -9.081827
   15       -9.081618
   16       -9.018737
   17       -8.083073
   18       -8.046419
   19       -8.046255
   20       -7.979259
   21       -6.793424
   22       -6.784683
   23       -6.692049
   24       -6.690197
   25       -6.683353
   26       -6.681329
   27       -6.583255
   28       -6.574644
   29       -3.411858
   30       -2.388957
   31       -2.387069
   32       -2.355208
   33       -2.304154
   34       -2.303964
   35       -2.251516
   36       -1.525071
   37       -1.505112
   38       -1.485457
   39       -1.482886
   40       -1.465643
   41       -1.462888
   42       -1.442572
   43       -1.422672
   44       -1.127518
   45        1.055176
   46        1.059018
   47        1.128665
   48        1.147127
   49        1.147159
   50        1.163982
   51        1.500804
   52        1.514090
   53        1.514546
   54        1.529324
   55        1.820690
   56        1.822801
   57        1.825835
   58        1.827684
   59        2.378704
   60        2.645682
   61        2.653032
   62        2.877447
   63        2.877759
   64        3.185205
   65        6.488529
   66        6.541925
   67        6.544899
   68        7.052230
   69        7.257930
   70        7.265137
   71        7.689901
   72        7.694311
   73        7.699597
   74        7.703895
   75        8.376160
   76        8.384241
   77        9.817213
   78       12.529891
   79       12.565879
   80       12.658948
   81       12.759724
   82       12.766945
   83       12.790361
   84       12.803225
 
 -0.1111111E+00  0.1111111E+00  0.0000000E+00  0.6172840E-02
    1      -14.631967
    2      -14.449689
    3      -14.449171
    4      -14.251215
    5      -10.166245
    6      -10.033958
    7      -10.033511
    8       -9.894572
    9       -9.608331
   10       -9.605957
   11       -9.493986
   12       -9.491334
   13       -9.491308
   14       -9.489265
   15       -9.376383
   16       -9.374085
   17       -7.978175
   18       -7.976304
   19       -7.887907
   20       -7.887246
   21       -7.887214
   22       -7.883942
   23       -7.783841
   24       -7.781809
   25       -7.476038
   26       -7.372470
   27       -7.370562
   28       -7.260099
   29       -3.590821
   30       -2.562306
   31       -2.560409
   32       -1.672111
   33       -1.669468
   34       -1.632252
   35       -1.628617
   36       -1.628608
   37       -1.627361
   38       -1.588132
   39       -1.585832
   40       -1.350105
   41       -1.314074
   42       -1.311342
   43       -1.292898
   44       -1.275132
   45        1.499056
   46        1.651914
   47        1.668995
   48        1.673949
   49        1.690088
   50        1.817942
   51        1.832288
   52        1.837212
   53        1.852621
   54        1.988388
   55        1.991166
   56        2.178371
   57        2.180731
   58        2.556619
   59        2.560251
   60        2.560374
   61        2.561580
   62        2.829667
   63        2.996816
   64        2.998708
   65        6.554945
   66        6.557060
   67        6.745865
   68        6.747976
   69        6.748372
   70        6.754238
   71        6.806024
   72        7.147273
   73        7.152088
   74        7.383085
   75        7.386268
   76        7.850309
   77        9.642122
   78       12.190836
   79       12.428610
   80       12.429526
   81       12.446745
   82       12.450817
   83       12.522397
   84       12.682617
 
 -0.2710505E-19  0.2222222E+00  0.0000000E+00  0.6172840E-02
    1      -14.410602
    2      -14.230588
    3      -14.230076
    4      -14.034746
    5      -11.173876
    6      -11.026891
    7      -11.026468
    8      -10.870082
    9       -9.967117
   10       -9.961190
   11       -9.837646
   12       -9.836711
   13       -9.831071
   14       -9.829993
   15       -9.700187
   16       -9.693854
   17       -7.305459
   18       -7.294920
   19       -7.205822
   20       -7.203131
   21       -7.194932
   22       -7.192139
   23       -7.096262
   24       -7.085552
   25       -6.141139
   26       -6.042798
   27       -6.042488
   28       -5.939585
   29       -3.322399
   30       -2.302329
   31       -2.300444
   32       -2.281375
   33       -2.261764
   34       -2.231976
   35       -2.229613
   36       -2.212421
   37       -2.209902
   38       -2.178541
   39       -2.158974
   40       -1.154709
   41       -1.118095
   42       -1.117915
   43       -1.081161
   44       -1.044870
   45        0.466232
   46        0.838282
   47        0.867239
   48        0.867421
   49        0.896483
   50        1.295104
   51        1.296451
   52        1.381505
   53        1.403908
   54        1.404163
   55        1.426719
   56        1.754138
   57        1.756916
   58        2.239203
   59        2.431304
   60        2.432179
   61        2.436700
   62        2.437498
   63        3.083815
   64        3.093057
   65        6.762730
   66        6.766944
   67        7.073230
   68        7.078006
   69        7.083215
   70        7.087877
   71        7.676993
   72        7.686664
   73        7.896233
   74        8.379280
   75        8.382143
   76        9.070692
   77        9.905064
   78       12.276194
   79       12.505993
   80       12.506533
   81       12.717835
   82       12.721926
   83       12.724131
   84       13.348385
 
  0.1111111E+00  0.2222222E+00  0.0000000E+00  0.6172840E-02
    1      -14.189787
    2      -14.011944
    3      -14.011437
    4      -13.818732
    5      -11.594638
    6      -11.443257
    7      -11.442821
    8      -11.281116
    9      -10.968279
   10      -10.823800
   11      -10.823374
   12      -10.669384
   13       -9.229341
   14       -9.118923
   15       -9.117989
   16       -9.007176
   17       -7.633991
   18       -7.550977
   19       -7.548488
   20       -7.453348
   21       -5.996439
   22       -5.903076
   23       -5.901234
   24       -5.803590
   25       -5.398602
   26       -5.307377
   27       -5.307096
   28       -5.211805
   29       -3.248712
   30       -3.188422
   31       -3.186181
   32       -3.123269
   33       -3.055083
   34       -2.055786
   35       -2.043749
   36       -2.041878
   37       -2.007997
   38       -2.005723
   39       -1.956441
   40       -1.238132
   41       -1.198653
   42       -1.198271
   43       -1.158255
   44       -0.798801
   45        0.004428
   46        0.181728
   47        0.210440
   48        0.213379
   49        0.241156