  32  32   0   0
  0.9254429E+01  0.4932875E-09  0.4932875E-09  0.1405931E-08  0.5000000E-15
  1.000000000000000E-004
  CAR 
 graphite                                
     14.69748858    -17.31432336  301      4.27864417      1.00000000
    -17.314  0.0000E+00  0.0000E+00
    -17.208  0.0000E+00  0.0000E+00
    -17.101  0.0000E+00  0.0000E+00
    -16.994  0.0000E+00  0.0000E+00
    -16.887  0.0000E+00  0.0000E+00
    -16.781  0.0000E+00  0.0000E+00
    -16.674  0.0000E+00  0.0000E+00
    -16.567  0.0000E+00  0.0000E+00
    -16.461  0.0000E+00  0.0000E+00
    -16.354  0.0000E+00  0.0000E+00
    -16.247  0.0000E+00  0.0000E+00
    -16.141  0.0000E+00  0.0000E+00
    -16.034  0.0000E+00  0.0000E+00
    -15.927  0.0000E+00  0.0000E+00
    -15.820  0.0000E+00  0.0000E+00
    -15.714  0.0000E+00  0.0000E+00
    -15.607  0.0000E+00  0.0000E+00
    -15.500  0.0000E+00  0.0000E+00
    -15.394  0.0000E+00  0.0000E+00
    -15.287  0.2010E+00  0.2100E-02
    -15.180  0.2457E+01  0.1273E+00
    -15.073  0.4206E+01  0.4904E+00
    -14.967  0.5106E+01  0.1008E+01
    -14.860  0.4850E+01  0.1513E+01
    -14.753  0.5142E+01  0.2050E+01
    -14.647  0.5032E+01  0.2596E+01
    -14.540  0.4793E+01  0.3119E+01
    -14.433  0.4832E+01  0.3629E+01
    -14.327  0.5051E+01  0.4156E+01
    -14.220  0.5270E+01  0.4707E+01
    -14.113  0.7077E+01  0.5336E+01
    -14.006  0.8055E+01  0.6150E+01
    -13.900  0.6351E+01  0.7005E+01
    -13.793  0.2599E+01  0.7462E+01
    -13.686  0.1886E+01  0.7687E+01
    -13.580  0.2145E+01  0.7898E+01
    -13.473  0.2502E+01  0.8146E+01
    -13.366  0.2860E+01  0.8432E+01
    -13.259  0.6322E+01  0.8828E+01
    -13.153  0.9956E+01  0.9924E+01
    -13.046  0.7416E+01  0.1089E+02
    -12.939  0.3982E+01  0.1138E+02
    -12.833  0.4080E+01  0.1181E+02
    -12.726  0.4178E+01  0.1225E+02
    -12.619  0.4299E+01  0.1271E+02
    -12.513  0.4430E+01  0.1317E+02
    -12.406  0.4553E+01  0.1365E+02
    -12.299  0.4676E+01  0.1414E+02
    -12.192  0.5329E+01  0.1467E+02
    -12.086  0.6238E+01  0.1528E+02
    -11.979  0.6222E+01  0.1597E+02
    -11.872  0.5681E+01  0.1660E+02
    -11.766  0.5379E+01  0.1719E+02
    -11.659  0.5536E+01  0.1777E+02
    -11.552  0.5698E+01  0.1837E+02
    -11.445  0.5861E+01  0.1899E+02
    -11.339  0.6023E+01  0.1962E+02
    -11.232  0.5643E+01  0.2024E+02
    -11.125  0.5305E+01  0.2083E+02
    -11.019  0.5355E+01  0.2140E+02
    -10.912  0.4547E+01  0.2194E+02
    -10.805  0.4285E+01  0.2239E+02
    -10.699  0.4982E+01  0.2289E+02
    -10.592  0.5159E+01  0.2343E+02
    -10.485  0.5335E+01  0.2399E+02
    -10.378  0.7223E+01  0.2463E+02
    -10.272  0.1164E+02  0.2565E+02
    -10.165  0.9366E+01  0.2677E+02
    -10.058  0.7096E+01  0.2764E+02
     -9.952  0.4995E+01  0.2828E+02
     -9.845  0.4423E+01  0.2878E+02
     -9.738  0.3976E+01  0.2923E+02
     -9.631  0.3529E+01  0.2963E+02
     -9.525  0.6692E+01  0.3027E+02
     -9.418  0.2073E+01  0.3085E+02
     -9.311  0.1874E+01  0.3106E+02
     -9.205  0.1675E+01  0.3125E+02
     -9.098  0.1476E+01  0.3142E+02
     -8.991  0.1277E+01  0.3156E+02
     -8.885  0.1385E+01  0.3170E+02
     -8.778  0.1882E+01  0.3187E+02
     -8.671  0.2379E+01  0.3210E+02
     -8.564  0.2876E+01  0.3238E+02
     -8.458  0.5870E+01  0.3280E+02
     -8.351  0.1040E+02  0.3367E+02
     -8.244  0.5071E+01  0.3456E+02
     -8.138  0.5262E+01  0.3509E+02
     -8.031  0.6386E+01  0.3571E+02
     -7.924  0.7509E+01  0.3645E+02
     -7.817  0.8633E+01  0.3731E+02
     -7.711  0.9757E+01  0.3829E+02
     -7.604  0.6326E+01  0.3920E+02
     -7.497  0.5542E+01  0.3980E+02
     -7.391  0.5604E+01  0.4040E+02
     -7.284  0.5562E+01  0.4100E+02
     -7.177  0.5413E+01  0.4158E+02
     -7.071  0.5242E+01  0.4215E+02
     -6.964  0.5114E+01  0.4270E+02
     -6.857  0.4996E+01  0.4324E+02
     -6.750  0.4877E+01  0.4377E+02
     -6.644  0.4759E+01  0.4428E+02
     -6.537  0.4641E+01  0.4479E+02
     -6.430  0.4523E+01  0.4527E+02
     -6.324  0.4403E+01  0.4575E+02
     -6.217  0.4568E+01  0.4622E+02
     -6.110  0.5170E+01  0.4674E+02
     -6.003  0.5745E+01  0.4732E+02
     -5.897  0.6320E+01  0.4797E+02
     -5.790  0.6895E+01  0.4867E+02
     -5.683  0.7470E+01  0.4944E+02
     -5.577  0.8045E+01  0.5027E+02
     -5.470  0.8620E+01  0.5116E+02
     -5.363  0.7196E+01  0.5209E+02
     -5.257  0.4195E+01  0.5259E+02
     -5.150  0.7296E+01  0.5318E+02
     -5.043  0.6275E+01  0.5392E+02
     -4.936  0.4860E+01  0.5452E+02
     -4.830  0.3445E+01  0.5496E+02
     -4.723  0.2030E+01  0.5525E+02
     -4.616  0.1205E+01  0.5540E+02
     -4.510  0.2630E+01  0.5561E+02
     -4.403  0.4055E+01  0.5596E+02
     -4.296  0.5479E+01  0.5647E+02
     -4.189  0.9345E+01  0.5720E+02
     -4.083  0.1116E+02  0.5838E+02
     -3.976  0.1045E+02  0.5953E+02
     -3.869  0.1201E+02  0.6071E+02
     -3.763  0.6906E+01  0.6184E+02
     -3.656  0.5110E+01  0.6243E+02
     -3.549  0.5910E+01  0.6302E+02
     -3.443  0.6924E+01  0.6370E+02
     -3.336  0.1188E+02  0.6469E+02
     -3.229  0.1712E+02  0.6623E+02
     -3.122  0.9892E+01  0.6855E+02
     -3.016  0.6589E+01  0.6927E+02
     -2.909  0.6829E+01  0.6999E+02
     -2.802  0.7179E+01  0.7073E+02
     -2.696  0.7982E+01  0.7153E+02
     -2.589  0.1187E+02  0.7257E+02
     -2.482  0.1584E+02  0.7433E+02
     -2.375  0.1314E+02  0.7587E+02
     -2.269  0.1012E+02  0.7718E+02
     -2.162  0.2041E+02  0.7873E+02
     -2.055  0.1549E+02  0.8181E+02
     -1.949  0.2148E+02  0.8387E+02
     -1.842  0.1305E+02  0.8542E+02
     -1.735  0.1475E+02  0.8689E+02
     -1.629  0.1465E+02  0.8850E+02
     -1.522  0.8200E+01  0.8960E+02
     -1.415  0.6949E+01  0.9035E+02
     -1.308  0.8363E+01  0.9118E+02
     -1.202  0.8645E+01  0.9208E+02
     -1.095  0.9682E+01  0.9306E+02
     -0.988  0.1004E+02  0.9412E+02
     -0.882  0.9951E+01  0.9518E+02
     -0.775  0.1136E+02  0.9632E+02
     -0.668  0.1176E+02  0.9813E+02
     -0.561  0.1130E+02  0.9935E+02
     -0.455  0.1181E+02  0.1006E+03
     -0.348  0.1008E+02  0.1018E+03
     -0.241  0.1056E+02  0.1029E+03
     -0.135  0.9970E+01  0.1040E+03
     -0.028  0.9667E+01  0.1051E+03
      0.079  0.9553E+01  0.1061E+03
      0.185  0.9574E+01  0.1071E+03
      0.292  0.9340E+01  0.1081E+03
      0.399  0.9084E+01  0.1091E+03
      0.506  0.8995E+01  0.1101E+03
      0.612  0.9195E+01  0.1110E+03
      0.719  0.9729E+01  0.1121E+03
      0.826  0.9833E+01  0.1131E+03
      0.932  0.1063E+02  0.1142E+03
      1.039  0.1039E+02  0.1154E+03
      1.146  0.8986E+01  0.1164E+03
      1.253  0.7440E+01  0.1173E+03
      1.359  0.6205E+01  0.1180E+03
      1.466  0.5842E+01  0.1186E+03
      1.573  0.4510E+01  0.1192E+03
      1.679  0.3268E+01  0.1196E+03
      1.786  0.2854E+01  0.1199E+03
      1.893  0.4312E+01  0.1203E+03
      1.999  0.6329E+01  0.1208E+03
      2.106  0.9734E+01  0.1216E+03
      2.213  0.8652E+01  0.1228E+03
      2.320  0.7135E+01  0.1236E+03
      2.426  0.6232E+01  0.1243E+03
      2.533  0.5519E+01  0.1249E+03
      2.640  0.4133E+01  0.1255E+03
      2.746  0.3480E+01  0.1259E+03
      2.853  0.3116E+01  0.1262E+03
      2.960  0.2766E+01  0.1265E+03
      3.067  0.2413E+01  0.1268E+03
      3.173  0.2095E+01  0.1270E+03
      3.280  0.1771E+01  0.1272E+03
      3.387  0.1467E+01  0.1274E+03
      3.493  0.1262E+01  0.1276E+03
      3.600  0.1057E+01  0.1277E+03
      3.707  0.8516E+00  0.1278E+03
      3.813  0.6468E+00  0.1279E+03
      3.920  0.4697E+00  0.1279E+03
      4.027  0.3130E+00  0.1280E+03
      4.134  0.1707E+00  0.1280E+03
      4.240  0.4083E-01  0.1280E+03
      4.347  0.6083E-01  0.1280E+03
      4.454  0.1773E+00  0.1280E+03
      4.560  0.3082E+00  0.1280E+03
      4.667  0.4558E+00  0.1281E+03
      4.774  0.6272E+00  0.1281E+03
      4.881  0.8405E+00  0.1282E+03
      4.987  0.1061E+01  0.1283E+03
      5.094  0.1281E+01  0.1284E+03
      5.201  0.1502E+01  0.1286E+03
      5.307  0.1723E+01  0.1288E+03
      5.414  0.2335E+01  0.1290E+03
      5.521  0.3536E+01  0.1293E+03
      5.627  0.3975E+01  0.1297E+03
      5.734  0.4616E+01  0.1301E+03
      5.841  0.7436E+01  0.1308E+03
      5.948  0.1082E+02  0.1317E+03
      6.054  0.1003E+02  0.1329E+03
      6.161  0.7851E+01  0.1339E+03
      6.268  0.6538E+01  0.1346E+03
      6.374  0.6024E+01  0.1353E+03
      6.481  0.5719E+01  0.1359E+03
      6.588  0.5007E+01  0.1365E+03
      6.695  0.4544E+01  0.1370E+03
      6.801  0.4114E+01  0.1375E+03
      6.908  0.3774E+01  0.1379E+03
      7.015  0.3863E+01  0.1383E+03
      7.121  0.4273E+01  0.1387E+03
      7.228  0.4688E+01  0.1392E+03
      7.335  0.4814E+01  0.1397E+03
      7.441  0.4690E+01  0.1402E+03
      7.548  0.4563E+01  0.1407E+03
      7.655  0.4382E+01  0.1412E+03
      7.762  0.4229E+01  0.1416E+03
      7.868  0.4128E+01  0.1421E+03
      7.975  0.4062E+01  0.1425E+03
      8.082  0.4019E+01  0.1430E+03
      8.188  0.3987E+01  0.1434E+03
      8.295  0.4017E+01  0.1438E+03
      8.402  0.4320E+01  0.1443E+03
      8.509  0.4354E+01  0.1447E+03
      8.615  0.4079E+01  0.1452E+03
      8.722  0.4024E+01  0.1456E+03
      8.829  0.3952E+01  0.1460E+03
      8.935  0.3900E+01  0.1465E+03
      9.042  0.3856E+01  0.1469E+03
      9.149  0.3898E+01  0.1473E+03
      9.255  0.3942E+01  0.1477E+03
      9.362  0.3983E+01  0.1481E+03
      9.469  0.4026E+01  0.1485E+03
      9.576  0.4045E+01  0.1490E+03
      9.682  0.4174E+01  0.1494E+03
      9.789  0.4586E+01  0.1499E+03
      9.896  0.4791E+01  0.1504E+03
     10.002  0.6566E+01  0.1509E+03
     10.109  0.5384E+01  0.1516E+03
     10.216  0.5507E+01  0.1522E+03
     10.323  0.6332E+01  0.1528E+03
     10.429  0.5457E+01  0.1534E+03
     10.536  0.5954E+01  0.1541E+03
     10.643  0.3910E+01  0.1546E+03
     10.749  0.2919E+01  0.1549E+03
     10.856  0.4214E+01  0.1553E+03
     10.963  0.3217E+01  0.1557E+03
     11.069  0.2959E+01  0.1560E+03
     11.176  0.3041E+01  0.1564E+03
     11.283  0.3213E+01  0.1567E+03
     11.390  0.3358E+01  0.1570E+03
     11.496  0.4383E+01  0.1575E+03
     11.603  0.6946E+01  0.1580E+03
     11.710  0.8227E+01  0.1589E+03
     11.816  0.9579E+01  0.1598E+03
     11.923  0.1144E+02  0.1609E+03
     12.030  0.1254E+02  0.1622E+03
     12.137  0.1297E+02  0.1636E+03
     12.243  0.1356E+02  0.1650E+03
     12.350  0.1253E+02  0.1664E+03
     12.457  0.7596E+01  0.1676E+03
     12.563  0.8230E+00  0.1680E+03
     12.670  0.5718E-02  0.1680E+03
     12.777  0.0000E+00  0.1680E+03
     12.883  0.0000E+00  0.1680E+03
     12.990  0.0000E+00  0.1680E+03
     13.097  0.0000E+00  0.1680E+03
     13.204  0.0000E+00  0.1680E+03
     13.310  0.0000E+00  0.1680E+03
     13.417  0.0000E+00  0.1680E+03
     13.524  0.0000E+00  0.1680E+03
     13.630  0.0000E+00  0.1680E+03
     13.737  0.0000E+00  0.1680E+03
     13.844  0.0000E+00  0.1680E+03
     13.951  0.0000E+00  0.1680E+03
     14.057  0.0000E+00  0.1680E+03
     14.164  0.0000E+00  0.1680E+03
     14.271  0.0000E+00  0.1680E+03
     14.377  0.0000E+00  0.1680E+03
     14.484  0.0000E+00  0.1680E+03
     14.591  0.0000E+00  0.1680E+03
     14.697  0.0000E+00  0.1680E+03
