   32   32    1    1
  0.9254429E+01  0.4932875E-09  0.4932875E-09  0.1405931E-08  0.5000000E-15
  1.000000000000000E-004
  CAR 
 graphite                                
    128     76     84
 
  0.0000000E+00  0.0000000E+00  0.0000000E+00  0.6944444E-02
    1      -15.314323
    2      -15.213322
    3      -15.213019
    4      -15.106991
    5      -10.016806
    6      -10.006208
    7      -10.003872
    8       -9.978040
    9       -9.976374
   10       -9.966439
   11       -9.964840
   12       -9.964805
   13       -9.961318
   14       -9.941882
   15       -9.929758
   16       -9.926711
   17       -8.950696
   18       -8.949503
   19       -8.947731
   20       -8.927340
   21       -8.926792
   22       -8.924811
   23       -8.924002
   24       -8.923965
   25       -8.921880
   26       -8.892262
   27       -8.891667
   28       -8.889691
   29       -4.040734
   30       -3.338312
   31       -3.337014
   32       -2.499996
   33       -2.124002
   34       -2.121889
   35       -2.108186
   36       -2.106054
   37       -2.106046
   38       -2.105098
   39       -2.102339
   40       -2.090333
   41       -2.088162
   42       -2.087286
   43       -2.085795
   44       -2.070684
   45        1.265881
   46        1.270526
   47        1.271347
   48        1.274715
   49        1.282909
   50        1.286197
   51        1.286899
   52        1.291464
   53        1.621763
   54        1.625332
   55        1.626961
   56        1.917204
   57        1.920284
   58        1.927164
   59        1.927546
   60        1.927745
   61        1.931764
   62        2.143355
   63        2.158950
   64        2.161418
   65        5.784173
   66        5.787080
   67        5.791217
   68        5.938047
   69        5.939754
   70        5.941933
   71        5.944317
   72        5.944495
   73        5.946620
   74        6.343068
   75        6.349749
   76        6.352219
   77        8.231854
   78       10.521367
   79       10.524742
   80       11.527620
   81       11.531392
   82       11.563295
   83       11.666488
   84       11.667842
 
  0.1666667E+00 -0.1387779E-16  0.0000000E+00  0.1388889E-01
    1      -15.149052
    2      -15.049041
    3      -15.048742
    4      -14.943837
    5      -11.303447
    6      -11.228155
    7      -11.227902
    8      -11.149842
    9      -10.435156
   10      -10.427883
   11      -10.369707
   12      -10.368975
   13      -10.361947
   14      -10.361268
   15      -10.301798
   16      -10.294025
   17       -8.317562
   18       -8.311411
   19       -8.265705
   20       -8.263863
   21       -8.258573
   22       -8.258007
   23       -8.209250
   24       -8.202861
   25       -7.472511
   26       -7.419615
   27       -7.418113
   28       -7.363335
   29       -3.840380
   30       -3.142560
   31       -3.141265
   32       -2.613506
   33       -2.597075
   34       -2.591603
   35       -2.591325
   36       -2.575808
   37       -2.573658
   38       -2.569106
   39       -2.552397
   40       -2.310458
   41       -1.959795
   42       -1.943787
   43       -1.941215
   44       -1.924813
   45        0.573218
   46        0.617265
   47        0.627415
   48        0.631066
   49        0.640158
   50        0.928653
   51        0.936042
   52        0.939771
   53        0.949167
   54        1.080428
   55        1.082541
   56        1.413625
   57        1.418462
   58        1.630123
   59        1.810121
   60        1.812994
   61        1.818798
   62        1.819925
   63        2.187238
   64        2.199057
   65        6.000420
   66        6.002557
   67        6.218440
   68        6.221318
   69        6.224191
   70        6.226486
   71        6.621335
   72        6.628126
   73        6.724880
   74        7.042208
   75        7.045462
   76        7.499541
   77        8.435736
   78       10.706745
   79       10.710043
   80       11.618086
   81       11.749080
   82       11.750282
   83       11.878408
   84       12.261061
 
  0.3333333E+00 -0.2775558E-16  0.0000000E+00  0.1388889E-01
    1      -14.654962
    2      -14.558009
    3      -14.557728
    4      -14.456285
    5      -12.710421
    6      -12.625572
    7      -12.625330
    8      -12.537018
    9      -10.855582
   10      -10.851939
   11      -10.783525
   12      -10.782881
   13      -10.779660
   14      -10.778711
   15      -10.708389
   16      -10.704612
   17       -7.145067
   18       -7.135958
   19       -7.097385
   20       -7.095510
   21       -7.087657
   22       -7.086798
   23       -7.046476
   24       -7.037494
   25       -5.360443
   26       -5.317325
   27       -5.315567
   28       -5.271690
   29       -3.767704
   30       -3.753648
   31       -3.738697
   32       -3.738246
   33       -3.725239
   34       -3.723162
   35       -3.708382
   36       -3.694138
   37       -3.243993
   38       -2.560347
   39       -2.559061
   40       -1.748043
   41       -1.486210
   42       -1.470919
   43       -1.468149
   44       -1.452598
   45       -1.031952
   46       -1.012500
   47       -1.008951
   48       -0.989604
   49       -0.951544
   50       -0.342998
   51       -0.341487
   52        0.131606
   53        0.142646
   54        0.146343
   55        0.158236
   56        0.363149
   57        1.127219
   58        1.130648
   59        1.621999
   60        1.624726
   61        1.627732
   62        1.628689
   63        2.161871
   64        2.167913
   65        6.537571
   66        6.540935
   67        6.793335
   68        6.795224
   69        6.797959
   70        6.800841
   71        7.114538
   72        7.118226
   73        8.883735
   74        9.048103
   75        9.181719
   76        9.184147
   77        9.569004
   78       11.252642
   79       11.255646
   80       11.429407
   81       11.903940
   82       11.972113
   83       11.973775
   84       12.190259
 
  0.5000000E+00  0.0000000E+00  0.0000000E+00  0.6944444E-02
    1      -13.839343
    2      -13.836649
    3      -13.748620
    4      -13.746002
    5      -13.745980
    6      -13.743195
    7      -13.651330
    8      -13.648578
    9      -11.003476
   10      -11.001836
   11      -10.930382
   12      -10.928908
   13      -10.928886
   14      -10.927022
   15      -10.853329
   16      -10.851625
   17       -6.242407
   18       -6.240835
   19       -6.216878
   20       -6.216869
   21       -6.216358
   22       -6.212534
   23       -6.191623
   24       -6.189073
   25       -4.659218
   26       -4.657408
   27       -4.643020
   28       -4.640593
   29       -4.639480
   30       -4.639472
   31       -4.620597
   32       -4.619617
   33       -3.145453
   34       -3.141988
   35       -3.115032
   36       -3.109885
   37       -3.109871
   38       -3.109370
   39       -3.079371
   40       -3.076922
   41       -2.268563
   42       -2.266385
   43       -1.612170
   44       -1.610068
   45       -1.609990
   46       -1.606938
   47       -0.837170
   48       -0.834662
   49       -0.753209
   50       -0.750161
   51       -0.738787
   52       -0.737448
   53       -0.737438
   54       -0.731127
   55       -0.723133
   56       -0.715015
   57        1.013375
   58        1.015306
   59        1.538097
   60        1.541408
   61        1.541697
   62        1.542927
   63        2.130032
   64        2.132335
   65        6.872429
   66        6.874724
   67        7.098250
   68        7.099090
   69        7.099412
   70        7.103938
   71        7.327303
   72        7.329964
   73       10.064093
   74       10.064891
   75       11.296996
   76       11.300562
   77       11.428124
   78       11.434665
   79       11.436342
   80       11.441004
   81       11.766932
   82       11.770245
   83       12.098620
   84       12.102985
 
  0.0000000E+00  0.1666667E+00  0.0000000E+00  0.1388889E-01
    1      -15.149048
    2      -15.049038
    3      -15.048737
    4      -14.943833
    5      -11.303459
    6      -11.228164
    7      -11.227926
    8      -11.149864
    9      -10.435253
   10      -10.427663
   11      -10.369918
   12      -10.368981
   13      -10.361940
   14      -10.360680
   15      -10.301833
   16      -10.293741
   17       -8.317892
   18       -8.312288
   19       -8.265713
   20       -8.265068
   21       -8.258887
   22       -8.258546
   23       -8.209473
   24       -8.203511
   25       -7.471634
   26       -7.418139
   27       -7.417890
   28       -7.362509
   29       -3.840390
   30       -3.142570
   31       -3.141277
   32       -2.612424
   33       -2.596761
   34       -2.591595
   35       -2.589229
   36       -2.575744
   37       -2.573658
   38       -2.567942
   39       -2.552421
   40       -2.310472
   41       -1.960786
   42       -1.943795
   43       -1.943567
   44       -1.926292
   45        0.572757
   46        0.620762
   47        0.631073
   48        0.631471
   49        0.641723
   50        0.927317
   51        0.936028
   52        0.936103
   53        0.944645
   54        1.080128
   55        1.081399
   56        1.413716
   57        1.419356
   58        1.629206
   59        1.810495
   60        1.812960
   61        1.818956
   62        1.821759
   63        2.187362
   64        2.200280
   65        5.998870
   66        6.002026
   67        6.218136
   68        6.219656
   69        6.223627
   70        6.225023
   71        6.620916
   72        6.626549
   73        6.726567
   74        7.044573
   75        7.046024
   76        7.500920
   77        8.435728
   78       10.706714
   79       10.710012
   80       11.617492
   81       11.748872
   82       11.749267
   83       11.877781
   84       12.262841
 
  0.1666667E+00  0.1666667E+00  0.0000000E+00  0.1388889E-01
    1      -14.819069
    2      -14.721158
    3      -14.720870
    4      -14.618259
    5      -11.923802
    6      -11.920980
    7      -11.845220
    8      -11.842531
    9      -11.842508
   10      -11.839532
   11      -11.761001
   12      -11.758108
   13       -9.592273
   14       -9.554918
   15       -9.553656
   16       -9.520823
   17       -8.547399
   18       -8.527565
   19       -8.524349
   20       -8.496769
   21       -6.365316
   22       -6.361921
   23       -6.318919
   24       -6.315100
   25       -6.315078
   26       -6.312365
   27       -6.267701
   28       -6.264455
   29       -3.939353
   30       -3.909448
   31       -3.907565
   32       -3.877032
   33       -3.441686
   34       -2.753229
   35       -2.751940
   36       -2.285649
   37       -2.283210
   38       -2.265475
   39       -2.263908
   40       -2.263900
   41       -2.260091
   42       -2.243299
   43       -2.240083
   44       -1.933981
   45       -0.417352
   46       -0.407237
   47       -0.403495
   48       -0.394815
   49       -0.059994
   50       -0.058056
   51        0.251347
   52        0.257216
   53        0.260810
   54        0.269707
   55        0.505375
   56        0.507424
   57        0.507519
   58        0.510523
   59        1.148715
   60        1.151105
   61        2.221319
   62        2.515322
   63        2.518001
   64        2.732581
   65        5.684786
   66        5.723344
   67        5.727578
   68        5.951701
   69        7.684750
   70        7.687328
   71        7.993176
   72        7.996774
   73        7.996991
   74        7.998768
   75        8.385850
   76        8.388339
   77        8.845555
   78       11.078877
   79       11.082014
   80       12.337383
   81       12.340360
   82       12.517795
   83       12.534268
   84       12.558168
 
  0.3333333E+00  0.1666667E+00  0.0000000E+00  0.1388889E-01
    1      -14.163318
    2      -14.069415
    3      -14.069151
    4      -13.971129
    5      -13.192242
    6      -13.104436
    7      -13.104176
    8      -13.012737
    9      -12.238496
   10      -12.156832
   11      -12.156502
   12      -12.071453
   13       -9.568829
   14       -9.508899
   15       -9.508515
   16       -9.447446
   17       -7.680467
   18       -7.641421
   19       -7.638803
   20       -7.598541
   21       -5.374062
   22       -5.344320
   23       -5.342318
   24       -5.310580
   25       -5.209430
   26       -5.175887
   27       -5.174362
   28       -5.140579
   29       -4.227019
   30       -4.191942
   31       -4.190216
   32       -4.154363
   33       -3.185152
   34       -3.162839
   35       -3.161410
   36       -3.137979
   37       -2.654080
   38       -2.141982
   39       -2.121666
   40       -2.118111
   41       -2.096812
   42       -1.985067
   43       -1.983557
   44       -1.646815
   45       -1.629108
   46       -1.626619
   47       -1.608497
   48       -1.504695
   49       -1.194948
   50       -0.872179
   51       -0.870842
   52       -0.751828
   53       -0.739539
   54       -0.735453
   55       -0.722160
   56       -0.391831
   57       -0.131865
   58        0.199807
   59        0.201059
   60        0.882670
   61        2.528585
   62        2.924026
   63        2.926379
   64        3.306663
   65        5.405567
   66        5.579232
   67        5.582625
   68        5.818967
   69        8.482310
   70        8.710910
   71        8.712755
   72        8.955370
   73        9.664187
   74        9.971285
   75       10.202633
   76       10.204997
   77       10.492856
   78       10.878704
   79       11.785721
   80       11.789750
   81       12.091076
   82       12.213298
   83       12.383754
   84       12.388500
 
  0.5000000E+00  0.1666667E+00  0.0000000E+00  0.1388889E-01
    1      -14.164514
    2      -14.070613
    3      -14.070339
    4      -13.972318
    5      -13.190559
    6      -13.102753
    7      -13.102503
    8      -13.011060
    9      -12.239701
   10      -12.158057
   11      -12.157718
   12      -12.072670
   13       -9.565959
   14       -9.505725
   15       -9.505549
   16       -9.444143
   17       -7.675721
   18       -7.635828
   19       -7.634868
   20       -7.593826
   21       -5.382325
   22       -5.352143
   23       -5.351543
   24       -5.319324
   25       -5.218716
   26       -5.185605
   27       -5.182762
   28       -5.149287
   29       -4.230693
   30       -4.195941
   31       -4.193539
   32       -4.158020
   33       -3.174045
   34       -3.152136
   35       -3.149199
   36       -3.126273
   37       -2.655370
   38       -2.139884
   39       -2.119009
   40       -2.117265
   41       -2.095206
   42       -1.986318
   43       -1.984830
   44       -1.643407
   45       -1.626034
   46       -1.622776
   47       -1.604863
   48       -1.502973
   49       -1.196212
   50       -0.870525
   51       -0.869123
   52       -0.753531
   53       -0.740658
   54       -0.738379
   55       -0.725118
   56       -0.393105
   57       -0.130222
   58        0.198345
   59        0.199677
   60        0.881031
   61        2.529969
   62        2.927937
   63        2.929393
   64        3.313878
   65        5.403100
   66        5.579797
   67        5.581662
   68        5.818728
   69        8.478610
   70        8.707543
   71        8.710003
   72        8.953825
   73        9.662496
   74        9.971425
   75       10.201285
   76       10.204173
   77       10.490753
   78       10.881042
   79       11.784659
   80       11.788641
   81       12.089686
   82       12.211098
   83       12.382779
   84       12.387287
 
 -0.3333333E+00  0.1666667E+00  0.0000000E+00  0.1388889E-01
    1      -14.819785
    2      -14.721859
    3      -14.721562
    4      -14.618967
    5      -11.925990
    6      -11.920200
    7      -11.846283
    8      -11.845965
    9      -11.840434
   10      -11.840204
   11      -11.763309
   12      -11.757492
   13       -9.581632
   14       -9.542916
   15       -9.542729
   16       -9.508555
   17       -8.547642
   18       -8.525901
   19       -8.525737
   20       -8.496302
   21       -6.373234
   22       -6.367559
   23       -6.326057
   24       -6.324005
   25       -6.320285
   26       -6.318576
   27       -6.275914
   28       -6.270294
   29       -3.952881
   30       -3.922226
   31       -3.922012
   32       -3.890682
   33       -3.442478
   34       -2.753994
   35       -2.752714
   36       -2.281225
   37       -2.268182
   38       -2.261521
   39       -2.258810
   40       -2.248339
   41       -2.245927
   42       -2.238643
   43       -2.225704
   44       -1.934765
   45       -0.421707
   46       -0.411277
   47       -0.411126
   48       -0.400896
   49       -0.062967
   50       -0.056825
   51        0.257787
   52        0.264881
   53        0.264933
   54        0.272650
   55        0.502483
   56        0.503928
   57        0.509023
   58        0.510807
   59        1.144595
   60        1.151946
   61        2.224222
   62        2.523988
   63        2.525286
   64        2.747681
   65        5.679581
   66        5.725147
   67        5.726596
   68        5.954815
   69        7.681112
   70        7.684379
   71        7.989211
   72        7.992145
   73        7.992664
   74        7.995622
   75        8.382381
   76        8.383934
   77        8.844508
   78       11.077798
   79       11.080933
   80       12.339313
   81       12.350295
   82       12.517940
   83       12.540261
   84       12.561546
 
 -0.1666667E+00  0.1666667E+00  0.0000000E+00  0.1388889E-01
    1      -15.149286
    2      -15.049277
    3      -15.048972
    4      -14.944069
    5      -11.309758
    6      -11.234513
    7      -11.234273
    8      -11.156267
    9      -10.426524
   10      -10.424616
   11      -10.361273
   12      -10.359611
   13      -10.359585
   14      -10.357286
   15      -10.292818
   16      -10.290745
   17       -8.315676
   18       -8.313888
   19       -8.263947
   20       -8.261400
   21       -8.261381
   22       -8.260531
   23       -8.207139
   24       -8.205496
   25       -7.478976
   26       -7.426259
   27       -7.424364
   28       -7.369744
   29       -3.840657
   30       -3.142835
   31       -3.141544
   32       -2.613154
   33       -2.611223
   34       -2.591630
   35       -2.590765
   36       -2.590756
   37       -2.587246
   38       -2.568937
   39       -2.566308
   40       -2.310737
   41       -1.943724
   42       -1.927556
   43       -1.925304
   44       -1.908932
   45        0.567125
   46        0.609227
   47        0.618331
   48        0.622493
   49        0.633261
   50        0.935848
   51        0.945181
   52        0.948905
   53        0.956069
   54        1.073211
   55        1.074920
   56        1.419412
   57        1.421215
   58        1.620715
   59        1.819164
   60        1.820040
   61        1.820235
   62        1.824037
   63        2.199069
   64        2.201505
   65        5.998243
   66        6.001195
   67        6.218547
   68        6.223344
   69        6.223530
   70        6.224591
   71        6.623862
   72        6.626361
   73        6.723385
   74        7.038081
   75        7.041379
   76        7.494753
   77        8.435369
   78       10.706328
   79       10.709627
   80       11.650419
   81       11.781537
   82       11.782679
   83       11.910521
   84       12.261410
 
 -0.2710505E-19  0.3333333E+00  0.0000000E+00  0.1388889E-01
    1      -14.654946
    2      -14.558000
    3      -14.557705
    4      -14.456268
    5      -12.710386
    6      -12.625550
    7      -12.625281
    8      -12.536982
    9      -10.855902
   10      -10.851698
   11      -10.784289
   12      -10.782892
   13      -10.779656
   14      -10.777940
   15      -10.708628
   16      -10.704296
   17       -7.145566
   18       -7.136868
   19       -7.097395
   20       -7.096887
   21       -7.087851
   22       -7.087630
   23       -7.046833
   24       -7.038163
   25       -5.359440
   26       -5.315587
   27       -5.315375
   28       -5.270758
   29       -3.766594
   30       -3.753342
   31       -3.738246
   32       -3.736409
   33       -3.724696
   34       -3.723160
   35       -3.707100
   36       -3.693897
   37       -3.244036
   38       -2.560389
   39       -2.559118
   40       -1.748103
   41       -1.487299
   42       -1.470928
   43       -1.470764
   44       -1.454291
   45       -1.029774
   46       -1.009106
   47       -1.008933
   48       -0.988204
   49       -0.951730
   50       -0.343190
   51       -0.341928
   52        0.130263
   53        0.142635
   54        0.142794
   55        0.155280
   56        0.362750
   57        1.127268
   58        1.131469
   59        1.622307
   60        1.624662
   61        1.627808
   62        1.630414
   63        2.162097
   64        2.168916
   65        6.536488
   66        6.540019
   67        6.791942
   68        6.793694
   69        6.797951
   70        6.799684
   71        7.113186
   72        7.117409
   73        8.884863
   74        9.048090
   75        9.182987
   76        9.184805
   77        9.569948
   78       11.252515
   79       11.255522
   80       11.429309
   81       11.903253
   82       11.971854
   83       11.972548
   84       12.189591
 
  0.1666667E+00  0.3333333E+00  0.0000000E+00  0.1388889E-01
    1      -14.163304
    2      -14.069406
    3      -14.069132
    4      -13.971114
    5      -13.192207
    6      -13.104417
    7      -13.104122
    8      -13.012699
    9      -12.238541
   10      -12.156848
   11      -12.156576
   12      -12.071499
   13       -9.568768
   14       -9.508782
   15       -9.508504
   16       -9.447378
   17       -7.680801
   18       -7.641426
   19       -7.639606
   20       -7.599030
   21       -5.373630
   22       -5.343600
   23       -5.342314
   24       -5.310271
   25       -5.210728
   26       -5.177010
   27       -5.175891
   28       -5.141946
   29       -4.225703
   30       -4.190215
   31       -4.189374
   32       -4.153098
   33       -3.183603
   34       -3.161404
   35       -3.159752
   36       -3.136400
   37       -2.654116
   38       -2.140723
   39       -2.119924
   40       -2.118106
   41       -2.096133
   42       -1.985096
   43       -1.983598
   44       -1.648194
   45       -1.629673
   46       -1.629112
   47       -1.610264
   48       -1.504898
   49       -1.195001
   50       -0.872388
   51       -0.871125
   52       -0.752433
   53       -0.739542
   54       -0.737314
   55       -0.724090
   56       -0.391527
   57       -0.132163
   58        0.200134
   59        0.201446
   60        0.883107
   61        2.529027
   62        2.924839
   63        2.926479
   64        3.307078
   65        5.405246
   66        5.579157
   67        5.581359
   68        5.818004
   69        8.481209
   70        8.709983
   71        8.711459
   72        8.954200
   73        9.664189
   74        9.972319
   75       10.203664
   76       10.205835
   77       10.493835
   78       10.878665
   79       11.785500
   80       11.789585
   81       12.091103
   82       12.213616
   83       12.384284
   84       12.388819
 
  0.3333333E+00  0.3333333E+00  0.0000000E+00  0.1388889E-01
    1      -13.356250
    2      -13.353651
    3      -13.351168
    4      -13.268983
    5      -13.265768
    6      -13.265744
    7      -13.264334
    8      -13.262861
    9      -13.260609
   10      -13.174503
   11      -13.171963
   12      -13.169394
   13       -8.351431
   14       -8.294017
   15       -8.292194
   16       -8.286646
   17       -8.284556
   18       -8.280353
   19       -8.278244
   20       -8.223143
   21       -6.241983
   22       -6.241821
   23       -6.240143
   24       -6.239547
   25       -3.473826
   26       -3.470197
   27       -3.468734
   28       -3.456860
   29       -3.452591
   30       -3.452570
   31       -3.452089
   32       -3.451577
   33       -3.447424
   34       -3.436443
   35       -3.434624
   36       -3.430733
   37       -2.116631
   38       -2.112215
   39       -2.109883
   40       -2.103691
   41       -2.101157
   42       -2.099513
   43       -2.098531
   44       -2.098521
   45       -2.094528
   46       -2.087023
   47       -2.085806
   48       -2.080412
   49       -1.693281
   50       -1.691185
   51       -1.688599
   52       -1.054597
   53       -1.051426
   54       -1.051306
   55       -1.050111
   56       -1.048712
   57       -1.046134
   58       -0.302388
   59       -0.300107
   60       -0.297423
   61        3.799260
   62        4.267743
   63        4.273809
   64        4.276659
   65        4.278438
   66        4.291329
   67        4.292876
   68        4.816420
   69       10.478087
   70       10.481491
   71       10.484717
   72       10.641816
   73       10.655163
   74       10.655338
   75       10.655979
   76       10.656760
   77       10.657069
   78       10.683915
   79       10.686339
   80       10.697699
   81       10.834481
   82       10.837431
   83       10.840507
   84       12.697489
 
  0.5000000E+00  0.3333333E+00  0.0000000E+00  0.1388889E-01
    1      -14.165213
    2      -14.071321
    3      -14.071027
    4      -13.973015
    5      -13.194097
    6      -13.106326
    7      -13.105978
    8      -13.014584
    9      -12.234696
   10      -12.153003
   11      -12.152770
   12      -12.067672
   13       -9.558634
   14       -9.498518
   15       -9.498199
   16       -9.436927
   17       -7.684072
   18       -7.644431
   19       -7.643757
   20       -7.602960
   21       -5.380647
   22       -5.350704
   23       -5.349785
   24       -5.317799
   25       -5.217091
   26       -5.184148
   27       -5.181674
   28       -5.148452
   29       -4.237575
   30       -4.202811
   31       -4.200109
   32       -4.164525
   33       -3.179788
   34       -3.158300
   35       -3.155054
   36       -3.132329
   37       -2.656201
   38       -2.148913
   39       -2.127910
   40       -2.125864
   41       -2.103741
   42       -1.987220
   43       -1.985751
   44       -1.633036
   45       -1.615316
   46       -1.612329
   47       -1.594561
   48       -1.506977
   49       -1.197085
   50       -0.874554
   51       -0.873256
   52       -0.743497
   53       -0.730371
   54       -0.728365
   55       -0.715068
   56       -0.387779
   57       -0.134454
   58        0.203691
   59        0.205222
   60        0.886679
   61        2.535356
   62        2.932709
   63        2.934305
   64        3.317166
   65        5.405485
   66        5.575763
   67        5.577560
   68        5.808963
   69        8.482319
   70        8.707521
   71        8.710175
   72        8.949166
   73        9.661565
   74        9.965840
   75       10.197416
   76       10.200154
   77       10.489934
   78       10.876391
   79       11.782130
   80       11.786371
   81       12.096374
   82       12.207488
   83       12.382928
   84       12.387634
 
 -0.3333333E+00  0.3333333E+00  0.0000000E+00  0.1388889E-01
    1      -14.655896
    2      -14.558955
    3      -14.558646
    4      -14.457215
    5      -12.714216
    6      -12.629410
    7      -12.629080
    8      -12.541069
    9      -10.848296
   10      -10.846595
   11      -10.776529
   12      -10.774939
   13      -10.774916
   14      -10.773046
   15      -10.701024
   16      -10.699257
   17       -7.144122
   18       -7.142242
   19       -7.096926
   20       -7.094098
   21       -7.094087
   22       -7.093334
   23       -7.045757
   24       -7.044032
   25       -5.369548
   26       -5.326438
   27       -5.324349
   28       -5.280545
   29       -3.765103
   30       -3.763476
   31       -3.736100
   32       -3.735860
   33       -3.735844
   34       -3.732377
   35       -3.706052
   36       -3.703884
   37       -3.245098
   38       -2.561445
   39       -2.560182
   40       -1.749169
   41       -1.471258
   42       -1.455796
   43       -1.453262
   44       -1.437825
   45       -1.041876
   46       -1.022344
   47       -1.019040
   48       -0.999376
   49       -0.955808
   50       -0.347440
   51       -0.346135
   52        0.142115
   53        0.153786
   54        0.157273
   55        0.168433
   56        0.358199
   57        1.133763
   58        1.135588
   59        1.630045
   60        1.631069
   61        1.631260
   62        1.634850
   63        2.170166
   64        2.172503
   65        6.537666
   66        6.540343
   67        6.790692
   68        6.795421
   69        6.795635
   70        6.796598
   71        7.109999
   72        7.112588
   73        8.878023
   74        9.046739
   75        9.175621
   76        9.178520
   77        9.564496
   78       11.251186
   79       11.254212
   80       11.427676
   81       11.933730
   82       12.001265
   83       12.002795
   84       12.217885
 
 -0.1666667E+00  0.3333333E+00  0.0000000E+00  0.1388889E-01
    1      -14.819774
    2      -14.721853
    3      -14.721545
    4      -14.618955
    5      -11.926393
    6      -11.919922
    7      -11.847214
    8      -11.846228
    9      -11.840360
   10      -11.839082
   11      -11.763602
   12      -11.757076
   13       -9.580979
   14       -9.542890
   15       -9.541345
   16       -9.507795
   17       -8.549382
   18       -8.528687
   19       -8.525907
   20       -8.497660
   21       -6.373764
   22       -6.366511
   23       -6.326064
   24       -6.325612
   25       -6.318579
   26       -6.317250
   27       -6.276283
   28       -6.268979
   29       -3.951962
   30       -3.922211
   31       -3.920014
   32       -3.889570
   33       -3.442508
   34       -2.754027
   35       -2.752751
   36       -2.282391
   37       -2.268456
   38       -2.261527
   39       -2.261003
   40       -2.247934
   41       -2.245925
   42       -2.239662
   43       -2.225427
   44       -1.934807
   45       -0.420350
   46       -0.411263
   47       -0.407451
   48       -0.397192
   49       -0.063087