 vasp.5.3.5 31Mar14 (build Nov 04 2014 22:34:45) complex                        
  
 executed on         atom-AMD-MKL date 2016.10.14  16:55:26
 running on    6 total cores
 distrk:  each k-point on    6 cores,    1 groups
 distr:  one band on NCORES_PER_BAND=   1 cores,    6 groups


--------------------------------------------------------------------------------------------------------


 INCAR:
 POTCAR:   PAW_PBE C 08Apr2002                    

 ----------------------------------------------------------------------------- 
|                                                                             |
|           W    W    AA    RRRRR   N    N  II  N    N   GGGG   !!!           |
|           W    W   A  A   R    R  NN   N  II  NN   N  G    G  !!!           |
|           W    W  A    A  R    R  N N  N  II  N N  N  G       !!!           |
|           W WW W  AAAAAA  RRRRR   N  N N  II  N  N N  G  GGG   !            |
|           WW  WW  A    A  R   R   N   NN  II  N   NN  G    G                |
|           W    W  A    A  R    R  N    N  II  N    N   GGGG   !!!           |
|                                                                             |
|      For optimal performance we recommend to set                            |
|        NCORE= 4 - approx SQRT( number of cores)                             |
|      NCORE specifies how many cores store one orbital (NPAR=cpu/NCORE).     |
|      This setting can  greatly improve the performance of VASP for DFT.     |
|      The default, NPAR=number of cores might be grossly inefficient         |
|      on modern multi-core architectures or massively parallel machines.     |
|      Do your own testing !!!!                                               |
|      Unfortunately you need to use the default for GW and RPA calculations. |
|      (for HF NCORE is supported but not extensively tested yet)             |
|                                                                             |
 ----------------------------------------------------------------------------- 

 POTCAR:   PAW_PBE C 08Apr2002                    
   VRHFIN =C: s2p2                                                              
   LEXCH  = PE                                                                  
   EATOM  =   147.1560 eV,   10.8157 Ry                                         
                                                                                
   TITEL  = PAW_PBE C 08Apr2002                                                 
   LULTRA =        F    use ultrasoft PP ?                                      
   IUNSCR =        0    unscreen: 0-lin 1-nonlin 2-no                           
   RPACOR =     .000    partial core radius                                     
   POMASS =   12.011; ZVAL   =    4.000    mass and valenz                      
   RCORE  =    1.500    outmost cutoff radius                                   
   RWIGS  =    1.630; RWIGS  =     .863    wigner-seitz radius (au A)           
   ENMAX  =  400.000; ENMIN  =  300.000 eV                                      
   ICORE  =        2    local potential                                         
   LCOR   =        T    correct aug charges                                     
   LPAW   =        T    paw PP                                                  
   EAUG   =  644.873                                                            
   DEXC   =     .000                                                            
   RMAX   =    2.266    core radius for proj-oper                               
   RAUG   =    1.300    factor for augmentation sphere                          
   RDEP   =    1.501    radius for radial grids                                 
   RDEPT  =    1.300    core radius for aug-charge                              
   QCUT   =   -5.516; QGAM   =   11.032    optimization parameters              
                                                                                
   Description                                                                  
     l     E      TYP  RCUT    TYP  RCUT                                        
     0   .000     23  1.200                                                     
     0   .000     23  1.200                                                     
     1   .000     23  1.500                                                     
     1  2.500     23  1.500                                                     
     2   .000      7  1.500                                                     
  local pseudopotential read in
  atomic valenz-charges read in
  non local Contribution for L=           0  read in
    real space projection operators read in
  non local Contribution for L=           0  read in
    real space projection operators read in
  non local Contribution for L=           1  read in
    real space projection operators read in
  non local Contribution for L=           1  read in
    real space projection operators read in
    PAW grid and wavefunctions read in
 
   number of l-projection  operators is LMAX  =           4
   number of lm-projection operators is LMMAX =           8
 

 ----------------------------------------------------------------------------- 
|                                                                             |
|  ADVICE TO THIS USER RUNNING 'VASP/VAMP'   (HEAR YOUR MASTER'S VOICE ...):  |
|                                                                             |
|      You have a (more or less) 'large supercell' and for larger cells       |
|      it might be more efficient to use real space projection operators      |
|      So try LREAL= Auto  in the INCAR   file.                               |
|      Mind: If you want to do a very accurate calculations keep the          |
|      reciprocal projection scheme          (i.e. LREAL=.FALSE.)             |
|                                                                             |
 ----------------------------------------------------------------------------- 

 PAW_PBE C 08Apr2002                    :
 energy of atom  1       EATOM= -147.1560
 kinetic energy error for atom=    0.0057 (will be added to EATOM!!)
 
 
 POSCAR: C                                       
  positions in direct lattice
  No initial velocities read in
 exchange correlation table for  LEXCH =        8
   RHO(1)=    0.500       N(1)  =     2000
   RHO(2)=  100.500       N(2)  =     4000
 


--------------------------------------------------------------------------------------------------------


 ion  position               nearest neighbor table
   1  0.499  0.000  0.124-  19 1.42  18 1.42  20 1.43
   2  1.000  0.000  0.125-  17 1.42  20 1.42  19 1.42
   3  0.500  0.500  0.125-  20 1.42  17 1.42  18 1.42
   4  1.000  0.500  0.125-  19 1.42  18 1.42  17 1.42
   5  0.500  0.000  0.625-  22 1.42  23 1.42  24 1.42
   6  1.000  0.000  0.625-  21 1.42  24 1.42  23 1.42
   7  0.500  0.500  0.625-  24 1.42  21 1.42  22 1.42
   8  1.000  0.500  0.625-  23 1.42  22 1.42  21 1.42
   9  0.000  0.500  0.375-  27 1.42  26 1.42  28 1.42
  10  0.500  0.500  0.375-  28 1.42  25 1.42  27 1.42
  11  0.000  1.000  0.375-  25 1.42  28 1.42  26 1.42
  12  0.500  1.000  0.375-  26 1.42  27 1.42  25 1.42
  13  0.000  0.500  0.875-  31 1.42  30 1.42  32 1.42
  14  0.500  0.500  0.875-  32 1.42  29 1.42  31 1.42
  15  0.000  1.000  0.875-  29 1.42  32 1.42  30 1.42
  16  0.500  1.000  0.875-  30 1.42  31 1.42  29 1.42
  17  0.166  0.334  0.125-   2 1.42   3 1.42   4 1.42
  18  0.666  0.334  0.125-   4 1.42   1 1.42   3 1.42
  19  0.166  0.834  0.125-   1 1.42   4 1.42   2 1.42
  20  0.666  0.834  0.125-   3 1.42   2 1.42   1 1.43
  21  0.166  0.334  0.625-   6 1.42   7 1.42   8 1.42
  22  0.666  0.334  0.625-   5 1.42   8 1.42   7 1.42
  23  0.166  0.834  0.625-   8 1.42   5 1.42   6 1.42
  24  0.666  0.834  0.625-   7 1.42   6 1.42   5 1.42
  25  0.334  0.166  0.375-  11 1.42  10 1.42  12 1.42
  26  0.834  0.166  0.375-  12 1.42   9 1.42  11 1.42
  27  0.334  0.666  0.375-   9 1.42  12 1.42  10 1.42
  28  0.834  0.666  0.375-  10 1.42  11 1.42   9 1.42
  29  0.334  0.166  0.875-  15 1.42  14 1.42  16 1.42
  30  0.834  0.166  0.875-  16 1.42  13 1.42  15 1.42
  31  0.334  0.666  0.875-  13 1.42  16 1.42  14 1.42
  32  0.834  0.666  0.875-  14 1.42  15 1.42  13 1.42
 
  LATTYP: Found a base centered orthorhombic cell.
 ALAT       =     4.9295501972
 B/A-ratio  =     1.7336081796
 C/A-ratio  =     2.8520475462
  
  Lattice vectors:
  
 A1 = (   4.9328744980,  -0.0019192860,   0.0000000000)
 A2 = (  -2.4680993993,   4.2710349859,   0.0000000000)
 A3 = (   0.0000000000,   0.0000000000,  14.0593115437)


Analysis of symmetry for initial positions (statically):
=====================================================================
 Subroutine PRICEL returns:
 Original cell was already a primitive cell.
 

 Routine SETGRP: Setting up the symmetry group for a 
 base centered orthorhombic supercell.


 Subroutine GETGRP returns: Found  1 space group operations
 (whereof  1 operations were pure point group operations)
 out of a pool of  8 trial point group operations.


The static configuration has the point symmetry C_1 .


Analysis of symmetry for dynamics (positions and initial velocities):
=====================================================================
 Subroutine PRICEL returns:
 Original cell was already a primitive cell.
 

 Routine SETGRP: Setting up the symmetry group for a 
 base centered orthorhombic supercell.


 Subroutine GETGRP returns: Found  1 space group operations
 (whereof  1 operations were pure point group operations)
 out of a pool of  8 trial point group operations.


The dynamic configuration has the point symmetry C_1 .
 
 
 KPOINTS: B4C B11C-CBC                            

Automatic generation of k-mesh.
Space group operators:
 irot       det(A)        alpha          n_x          n_y          n_z        tau_x        tau_y        tau_z
    1     1.000000     0.000000     1.000000     0.000000     0.000000     0.000000     0.000000     0.000000
 
 Subroutine IBZKPT returns following result:
 ===========================================
 
 Found     76 irreducible k-points:
 
 Following reciprocal coordinates:
            Coordinates               Weight
  0.000000  0.000000  0.000000      1.000000
  0.166667 -0.000000  0.000000      2.000000
  0.333333 -0.000000  0.000000      2.000000
  0.500000  0.000000  0.000000      1.000000
  0.000000  0.166667  0.000000      2.000000
  0.166667  0.166667  0.000000      2.000000
  0.333333  0.166667  0.000000      2.000000
  0.500000  0.166667  0.000000      2.000000
 -0.333333  0.166667  0.000000      2.000000
 -0.166667  0.166667  0.000000      2.000000
 -0.000000  0.333333  0.000000      2.000000
  0.166667  0.333333  0.000000      2.000000
  0.333333  0.333333  0.000000      2.000000
  0.500000  0.333333  0.000000      2.000000
 -0.333333  0.333333  0.000000      2.000000
 -0.166667  0.333333  0.000000      2.000000
  0.000000  0.500000  0.000000      1.000000
  0.166667  0.500000  0.000000      2.000000
  0.333333  0.500000  0.000000      2.000000
  0.500000  0.500000  0.000000      1.000000
  0.000000  0.000000  0.250000      2.000000
  0.166667 -0.000000  0.250000      2.000000
  0.333333 -0.000000  0.250000      2.000000
  0.500000  0.000000  0.250000      2.000000
 -0.333333  0.000000  0.250000      2.000000
 -0.166667  0.000000  0.250000      2.000000
  0.000000  0.166667  0.250000      2.000000
  0.166667  0.166667  0.250000      2.000000
  0.333333  0.166667  0.250000      2.000000
  0.500000  0.166667  0.250000      2.000000
 -0.333333  0.166667  0.250000      2.000000
 -0.166667  0.166667  0.250000      2.000000
 -0.000000  0.333333  0.250000      2.000000
  0.166667  0.333333  0.250000      2.000000
  0.333333  0.333333  0.250000      2.000000
  0.500000  0.333333  0.250000      2.000000
 -0.333333  0.333333  0.250000      2.000000
 -0.166667  0.333333  0.250000      2.000000
  0.000000  0.500000  0.250000      2.000000
  0.166667  0.500000  0.250000      2.000000
  0.333333  0.500000  0.250000      2.000000
  0.500000  0.500000  0.250000      2.000000
 -0.333333  0.500000  0.250000      2.000000
 -0.166667  0.500000  0.250000      2.000000
  0.000000 -0.333333  0.250000      2.000000
  0.166667 -0.333333  0.250000      2.000000
  0.333333 -0.333333  0.250000      2.000000
  0.500000 -0.333333  0.250000      2.000000
 -0.333333 -0.333333  0.250000      2.000000
 -0.166667 -0.333333  0.250000      2.000000
  0.000000 -0.166667  0.250000      2.000000
  0.166667 -0.166667  0.250000      2.000000
  0.333333 -0.166667  0.250000      2.000000
  0.500000 -0.166667  0.250000      2.000000
 -0.333333 -0.166667  0.250000      2.000000
 -0.166667 -0.166667  0.250000      2.000000
  0.000000  0.000000  0.500000      1.000000
  0.166667 -0.000000  0.500000      2.000000
  0.333333 -0.000000  0.500000      2.000000
  0.500000  0.000000  0.500000      1.000000
  0.000000  0.166667  0.500000      2.000000
  0.166667  0.166667  0.500000      2.000000
  0.333333  0.166667  0.500000      2.000000
  0.500000  0.166667  0.500000      2.000000
 -0.333333  0.166667  0.500000      2.000000
 -0.166667  0.166667  0.500000      2.000000
 -0.000000  0.333333  0.500000      2.000000
  0.166667  0.333333  0.500000      2.000000
  0.333333  0.333333  0.500000      2.000000
  0.500000  0.333333  0.500000      2.000000
 -0.333333  0.333333  0.500000      2.000000
 -0.166667  0.333333  0.500000      2.000000
  0.000000  0.500000  0.500000      1.000000
  0.166667  0.500000  0.500000      2.000000
  0.333333  0.500000  0.500000      2.000000
  0.500000  0.500000  0.500000      1.000000
 
 Following cartesian coordinates:
            Coordinates               Weight
  0.000000  0.000000  0.000000      1.000000
  0.033795  0.019529  0.000000      2.000000
  0.067589  0.039058  0.000000      2.000000
  0.101384  0.058586  0.000000      1.000000
  0.000015  0.039031  0.000000      2.000000
  0.033810  0.058560  0.000000      2.000000
  0.067604  0.078089  0.000000      2.000000
  0.101399  0.097618  0.000000      2.000000
 -0.067574 -0.000026  0.000000      2.000000
 -0.033779  0.019503  0.000000      2.000000
  0.000030  0.078063  0.000000      2.000000
  0.033825  0.097591  0.000000      2.000000
  0.067619  0.117120  0.000000      2.000000
  0.101414  0.136649  0.000000      2.000000
 -0.067559  0.039005  0.000000      2.000000
 -0.033764  0.058534  0.000000      2.000000
  0.000046  0.117094  0.000000      1.000000
  0.033840  0.136623  0.000000      2.000000
  0.067635  0.156152  0.000000      2.000000
  0.101429  0.175680  0.000000      1.000000
  0.000000  0.000000  0.017782      2.000000
  0.033795  0.019529  0.017782      2.000000
  0.067589  0.039058  0.017782      2.000000
  0.101384  0.058586  0.017782      2.000000
 -0.067589 -0.039058  0.017782      2.000000
 -0.033795 -0.019529  0.017782      2.000000
  0.000015  0.039031  0.017782      2.000000
  0.033810  0.058560  0.017782      2.000000
  0.067604  0.078089  0.017782      2.000000
  0.101399  0.097618  0.017782      2.000000
 -0.067574 -0.000026  0.017782      2.000000
 -0.033779  0.019503  0.017782      2.000000
  0.000030  0.078063  0.017782      2.000000
  0.033825  0.097591  0.017782      2.000000
  0.067619  0.117120  0.017782      2.000000
  0.101414  0.136649  0.017782      2.000000
 -0.067559  0.039005  0.017782      2.000000
 -0.033764  0.058534  0.017782      2.000000
  0.000046  0.117094  0.017782      2.000000
  0.033840  0.136623  0.017782      2.000000
  0.067635  0.156152  0.017782      2.000000
  0.101429  0.175680  0.017782      2.000000
 -0.067543  0.078036  0.017782      2.000000
 -0.033749  0.097565  0.017782      2.000000
 -0.000030 -0.078063  0.017782      2.000000
  0.033764 -0.058534  0.017782      2.000000
  0.067559 -0.039005  0.017782      2.000000
  0.101353 -0.019476  0.017782      2.000000
 -0.067619 -0.117120  0.017782      2.000000
 -0.033825 -0.097591  0.017782      2.000000
 -0.000015 -0.039031  0.017782      2.000000
  0.033779 -0.019503  0.017782      2.000000
  0.067574  0.000026  0.017782      2.000000
  0.101368  0.019555  0.017782      2.000000
 -0.067604 -0.078089  0.017782      2.000000
 -0.033810 -0.058560  0.017782      2.000000
  0.000000  0.000000  0.035564      1.000000
  0.033795  0.019529  0.035564      2.000000
  0.067589  0.039058  0.035564      2.000000
  0.101384  0.058586  0.035564      1.000000
  0.000015  0.039031  0.035564      2.000000
  0.033810  0.058560  0.035564      2.000000
  0.067604  0.078089  0.035564      2.000000
  0.101399  0.097618  0.035564      2.000000
 -0.067574 -0.000026  0.035564      2.000000
 -0.033779  0.019503  0.035564      2.000000
  0.000030  0.078063  0.035564      2.000000
  0.033825  0.097591  0.035564      2.000000
  0.067619  0.117120  0.035564      2.000000
  0.101414  0.136649  0.035564      2.000000
 -0.067559  0.039005  0.035564      2.000000
 -0.033764  0.058534  0.035564      2.000000
  0.000046  0.117094  0.035564      1.000000
  0.033840  0.136623  0.035564      2.000000
  0.067635  0.156152  0.035564      2.000000
  0.101429  0.175680  0.035564      1.000000
 
 TETIRR: Found    432 inequivalent tetrahedra from      864


--------------------------------------------------------------------------------------------------------




 Dimension of arrays:
   k-points           NKPTS =     76   k-points in BZ     NKDIM =     76   number of bands    NBANDS=     84
   number of dos      NEDOS =    301   number of ions     NIONS =     32
   non local maximal  LDIM  =      4   non local SUM 2l+1 LMDIM =      8
   total plane-waves  NPLWV = 179200
   max r-space proj   IRMAX =      1   max aug-charges    IRDMAX=   7340
   dimension x,y,z NGX =    40 NGY =   40 NGZ =  112
   dimension x,y,z NGXF=    80 NGYF=   80 NGZF=  224
   support grid    NGXF=    80 NGYF=   80 NGZF=  224
   ions per type =              32
 NGX,Y,Z   is equivalent  to a cutoff of  13.48, 13.48, 13.24 a.u.
 NGXF,Y,Z  is equivalent  to a cutoff of  26.96, 26.96, 26.49 a.u.


 I would recommend the setting:
   dimension x,y,z NGX =    39 NGY =   39 NGZ =  112
 SYSTEM =  graphite                                
 POSCAR =  C                                       

 Startparameter for this run:
   NWRITE =      2    write-flag & timer
   PREC   = accura    normal or accurate (medium, high low for compatibility)
   ISTART =      0    job   : 0-new  1-cont  2-samecut
   ICHARG =      2    charge: 1-file 2-atom 10-const
   ISPIN  =      1    spin polarized calculation?
   LNONCOLLINEAR =      F non collinear calculations
   LSORBIT =      F    spin-orbit coupling
   INIWAV =      1    electr: 0-lowe 1-rand  2-diag
   LASPH  =      F    aspherical Exc in radial PAW
   METAGGA=      F    non-selfconsistent MetaGGA calc.

 Electronic Relaxation 1
   ENCUT  =  600.0 eV  44.10 Ry    6.64 a.u.   9.85  9.85 28.08*2*pi/ulx,y,z
   ENINI  =  600.0     initial cutoff
   ENAUG  =  644.9 eV  augmentation charge cutoff
   NELM   =    200;   NELMIN=  2; NELMDL=  0     # of ELM steps 
   EDIFF  = 0.1E-07   stopping-criterion for ELM
   LREAL  =      F    real-space projection
   NLSPLINE    = F    spline interpolate recip. space projectors
   LCOMPAT=      F    compatible to vasp.4.4
   GGA_COMPAT  = T    GGA compatible to vasp.4.4-vasp.4.6
   LMAXPAW     = -100 max onsite density
   LMAXMIX     =    2 max onsite mixed and CHGCAR
   VOSKOWN=      0    Vosko Wilk Nusair interpolation
   ROPT   =    0.00000
 Ionic relaxation
   EDIFFG = 0.1E-02   stopping-criterion for IOM
   NSW    =      0    number of steps for IOM
   NBLOCK =      1;   KBLOCK =      1    inner block; outer block 
   IBRION =     -1    ionic relax: 0-MD 1-quasi-New 2-CG
   NFREE  =      0    steps in history (QN), initial steepest desc. (CG)
   ISIF   =      2    stress and relaxation
   IWAVPR =     10    prediction:  0-non 1-charg 2-wave 3-comb
   ISYM   =      2    0-nonsym 1-usesym 2-fastsym
   LCORR  =      T    Harris-Foulkes like correction to forces

   POTIM  = 0.5000    time-step for ionic-motion
   TEIN   =    0.0    initial temperature
   TEBEG  =    0.0;   TEEND  =   0.0 temperature during run
   SMASS  =  -3.00    Nose mass-parameter (am)
   estimated Nose-frequenzy (Omega)   =  0.10E-29 period in steps =****** mass=  -0.556E-27a.u.
   SCALEE = 1.0000    scale energy and forces
   NPACO  =    256;   APACO  = 16.0  distance and # of slots for P.C.
   PSTRESS=    0.0 pullay stress

  Mass of Ions in am
   POMASS =  12.01
  Ionic Valenz
   ZVAL   =   4.00
  Atomic Wigner-Seitz radii
   RWIGS  =  -1.00
  virtual crystal weights 
   VCA    =   1.00
   NELECT =     128.0000    total number of electrons
   NUPDOWN=      -1.0000    fix difference up-down

 DOS related values:
   EMIN   =  10.00;   EMAX   =-10.00  energy-range for DOS
   EFERMI =   0.00
   ISMEAR =    -5;   SIGMA  =   0.20  broadening in eV -4-tet -1-fermi 0-gaus

 Electronic relaxation 2 (details)
   IALGO  =     38    algorithm
   LDIAG  =      T    sub-space diagonalisation (order eigenvalues)
   LSUBROT=      F    optimize rotation matrix (better conditioning)
   TURBO    =      0    0=normal 1=particle mesh
   IRESTART =      0    0=no restart 2=restart with 2 vectors
   NREBOOT  =      0    no. of reboots
   NMIN     =      0    reboot dimension
   EREF     =   0.00    reference energy to select bands
   IMIX   =      4    mixing-type and parameters
     AMIX     =   0.40;   BMIX     =  1.00
     AMIX_MAG =   1.60;   BMIX_MAG =  1.00
     AMIN     =   0.10
     WC   =   100.;   INIMIX=   1;  MIXPRE=   1;  MAXMIX= -45

 Intra band minimization:
   WEIMIN = 0.0000     energy-eigenvalue tresh-hold
   EBREAK =  0.30E-10  absolut break condition
   DEPER  =   0.30     relativ break condition  

   TIME   =   0.40     timestep for ELM

  volume/ion in A,a.u.               =       9.25        62.45
  Fermi-wavevector in a.u.,A,eV,Ry     =   1.237784  2.339073 20.845620  1.532110
  Thomas-Fermi vector in A             =   2.372337
 
 Write flags
   LWAVE  =      F    write WAVECAR
   LCHARG =      F    write CHGCAR
   LVTOT  =      F    write LOCPOT, total local potential
   LVHAR  =      F    write LOCPOT, Hartree potential only
   LELF   =      F    write electronic localiz. function (ELF)
   LORBIT =      0    0 simple, 1 ext, 2 COOP (PROOUT)


 Dipole corrections
   LMONO  =      F    monopole corrections only (constant potential shift)
   LDIPOL =      F    correct potential (dipole corrections)
   IDIPOL =      0    1-x, 2-y, 3-z, 4-all directions 
   EPSILON=  1.0000000 bulk dielectric constant

 Exchange correlation treatment:
   GGA     =    PE    GGA type
   LEXCH   =     8    internal setting for exchange type
   VOSKOWN=      0    Vosko Wilk Nusair interpolation
   LHFCALC =     F    Hartree Fock is set to
   LHFONE  =     F    Hartree Fock one center treatment
   AEXX    =    0.0000 exact exchange contribution

 Linear response parameters
   LEPSILON=     F    determine dielectric tensor
   LRPA    =     F    only Hartree local field effects (RPA)
   LNABLA  =     F    use nabla operator in PAW spheres
   LVEL    =     F    velocity operator in full k-point grid
   LINTERFAST=   F  fast interpolation
   KINTER  =     0    interpolate to denser k-point grid
   CSHIFT  =0.1000    complex shift for real part using Kramers Kronig
   OMEGAMAX=  -1.0    maximum frequency
   DEG_THRESHOLD= 0.2000000E-02 threshold for treating states as degnerate
   RTIME   =    0.100 relaxation time in fs

 Orbital magnetization related:
   ORBITALMAG=     F  switch on orbital magnetization
   LCHIMAG   =     F  perturbation theory with respect to B field
   DQ        =  0.001000  dq finite difference perturbation B field



--------------------------------------------------------------------------------------------------------


 Static calculation
 charge density and potential will be updated during run
 non-spin polarized calculation
 Variant of blocked Davidson
 Davidson routine will perform the subspace rotation
 perform sub-space diagonalisation
    after iterative eigenvector-optimisation
 modified Broyden-mixing scheme, WC =      100.0
 initial mixing is a Kerker type mixing with AMIX =  0.4000 and BMIX =      1.0000
 Hartree-type preconditioning will be used
 using additional bands           20
 reciprocal scheme for non local part
 calculate Harris-corrections to forces 
   (improved forces if not selfconsistent)
 use gradient corrections 
 use of overlap-Matrix (Vanderbilt PP)
 Fermi weights with tetrahedron method with Bloechl corrections


--------------------------------------------------------------------------------------------------------


  energy-cutoff  :      600.00
  volume of cell :      296.14
      direct lattice vectors                 reciprocal lattice vectors
     4.932874498 -0.001919286  0.000000000     0.202767147  0.117172881  0.000000000
    -2.468099399  4.271034986  0.000000000     0.000091118  0.234187941  0.000000000
     0.000000000  0.000000000 14.059311544     0.000000000  0.000000000  0.071127238

  length of vectors
     4.932874871  4.932874871 14.059311544     0.234187958  0.234187958  0.071127238


 
 k-points in units of 2pi/SCALE and weight: B4C B11C-CBC                            
   0.00000000  0.00000000  0.00000000       0.007
   0.03379452  0.01952881  0.00000000       0.014
   0.06758905  0.03905763  0.00000000       0.014
   0.10138357  0.05858644  0.00000000       0.007
   0.00001519  0.03903132  0.00000000       0.014
   0.03380971  0.05856014  0.00000000       0.014
   0.06760424  0.07808895  0.00000000       0.014
   0.10139876  0.09761776  0.00000000       0.014
  -0.06757386 -0.00002630  0.00000000       0.014
  -0.03377934  0.01950251  0.00000000       0.014
   0.00003037  0.07806265  0.00000000       0.014
   0.03382490  0.09759146  0.00000000       0.014
   0.06761942  0.11712027  0.00000000       0.014
   0.10141395  0.13664909  0.00000000       0.014
  -0.06755868  0.03900502  0.00000000       0.014
  -0.03376415  0.05853383  0.00000000       0.014
   0.00004556  0.11709397  0.00000000       0.007
   0.03384008  0.13662278  0.00000000       0.014
   0.06763461  0.15615160  0.00000000       0.014
   0.10142913  0.17568041  0.00000000       0.007
   0.00000000  0.00000000  0.01778181       0.014
   0.03379452  0.01952881  0.01778181       0.014
   0.06758905  0.03905763  0.01778181       0.014
   0.10138357  0.05858644  0.01778181       0.014
  -0.06758905 -0.03905763  0.01778181       0.014
  -0.03379452 -0.01952881  0.01778181       0.014
   0.00001519  0.03903132  0.01778181       0.014
   0.03380971  0.05856014  0.01778181       0.014
   0.06760424  0.07808895  0.01778181       0.014
   0.10139876  0.09761776  0.01778181       0.014
  -0.06757386 -0.00002630  0.01778181       0.014
  -0.03377934  0.01950251  0.01778181       0.014
   0.00003037  0.07806265  0.01778181       0.014
   0.03382490  0.09759146  0.01778181       0.014
   0.06761942  0.11712027  0.01778181       0.014
   0.10141395  0.13664909  0.01778181       0.014
  -0.06755868  0.03900502  0.01778181       0.014
  -0.03376415  0.05853383  0.01778181       0.014
   0.00004556  0.11709397  0.01778181       0.014
   0.03384008  0.13662278  0.01778181       0.014
   0.06763461  0.15615160  0.01778181       0.014
   0.10142913  0.17568041  0.01778181       0.014
  -0.06754349  0.07803634  0.01778181       0.014
  -0.03374897  0.09756516  0.01778181       0.014
  -0.00003037 -0.07806265  0.01778181       0.014
   0.03376415 -0.05853383  0.01778181       0.014
   0.06755868 -0.03900502  0.01778181       0.014
   0.10135320 -0.01947621  0.01778181       0.014
  -0.06761942 -0.11712027  0.01778181       0.014
  -0.03382490 -0.09759146  0.01778181       0.014
  -0.00001519 -0.03903132  0.01778181       0.014
   0.03377934 -0.01950251  0.01778181       0.014
   0.06757386  0.00002630  0.01778181       0.014
   0.10136839  0.01955512  0.01778181       0.014
  -0.06760424 -0.07808895  0.01778181       0.014
  -0.03380971 -0.05856014  0.01778181       0.014
   0.00000000  0.00000000  0.03556362       0.007
   0.03379452  0.01952881  0.03556362       0.014
   0.06758905  0.03905763  0.03556362       0.014
   0.10138357  0.05858644  0.03556362       0.007
   0.00001519  0.03903132  0.03556362       0.014
   0.03380971  0.05856014  0.03556362       0.014
   0.06760424  0.07808895  0.03556362       0.014
   0.10139876  0.09761776  0.03556362       0.014
  -0.06757386 -0.00002630  0.03556362       0.014
  -0.03377934  0.01950251  0.03556362       0.014
   0.00003037  0.07806265  0.03556362       0.014
   0.03382490  0.09759146  0.03556362       0.014
   0.06761942  0.11712027  0.03556362       0.014
   0.10141395  0.13664909  0.03556362       0.014
  -0.06755868  0.03900502  0.03556362       0.014
  -0.03376415  0.05853383  0.03556362       0.014
   0.00004556  0.11709397  0.03556362       0.007
   0.03384008  0.13662278  0.03556362       0.014
   0.06763461  0.15615160  0.03556362       0.014
   0.10142913  0.17568041  0.03556362       0.007
 
 k-points in reciprocal lattice and weights: B4C B11C-CBC                            
   0.00000000  0.00000000  0.00000000       0.007
   0.16666667 -0.00000000  0.00000000       0.014
   0.33333333 -0.00000000  0.00000000       0.014
   0.50000000  0.00000000  0.00000000       0.007
   0.00000000  0.16666667  0.00000000       0.014
   0.16666667  0.16666667  0.00000000       0.014
   0.33333333  0.16666667  0.00000000       0.014
   0.50000000  0.16666667  0.00000000       0.014
  -0.33333333  0.16666667  0.00000000       0.014
  -0.16666667  0.16666667  0.00000000       0.014
  -0.00000000  0.33333333  0.00000000       0.014
   0.16666667  0.33333333  0.00000000       0.014
   0.33333333  0.33333333  0.00000000       0.014
   0.50000000  0.33333333  0.00000000       0.014
  -0.33333333  0.33333333  0.00000000       0.014
  -0.16666667  0.33333333  0.00000000       0.014
   0.00000000  0.50000000  0.00000000       0.007
   0.16666667  0.50000000  0.00000000       0.014
   0.33333333  0.50000000  0.00000000       0.014
   0.50000000  0.50000000  0.00000000       0.007
   0.00000000  0.00000000  0.25000000       0.014
   0.16666667 -0.00000000  0.25000000       0.014
   0.33333333 -0.00000000  0.25000000       0.014
   0.50000000  0.00000000  0.25000000       0.014
  -0.33333333  0.00000000  0.25000000       0.014
  -0.16666667  0.00000000  0.25000000       0.014
   0.00000000  0.16666667  0.25000000       0.014
   0.16666667  0.16666667  0.25000000       0.014
   0.33333333  0.16666667  0.25000000       0.014
   0.50000000  0.16666667  0.25000000       0.014
  -0.33333333  0.16666667  0.25000000       0.014
  -0.16666667  0.16666667  0.25000000       0.014
  -0.00000000  0.33333333  0.25000000       0.014
   0.16666667  0.33333333  0.25000000       0.014
   0.33333333  0.33333333  0.25000000       0.014
   0.50000000  0.33333333  0.25000000       0.014
  -0.33333333  0.33333333  0.25000000       0.014
  -0.16666667  0.33333333  0.25000000       0.014
   0.00000000  0.50000000  0.25000000       0.014
   0.16666667  0.50000000  0.25000000       0.014
   0.33333333  0.50000000  0.25000000       0.014
   0.50000000  0.50000000  0.25000000       0.014
  -0.33333333  0.50000000  0.25000000       0.014
  -0.16666667  0.50000000  0.25000000       0.014
   0.00000000 -0.33333333  0.25000000       0.014
   0.16666667 -0.33333333  0.25000000       0.014
   0.33333333 -0.33333333  0.25000000       0.014
   0.50000000 -0.33333333  0.25000000       0.014
  -0.33333333 -0.33333333  0.25000000       0.014
  -0.16666667 -0.33333333  0.25000000       0.014
   0.00000000 -0.16666667  0.25000000       0.014
   0.16666667 -0.16666667  0.25000000       0.014
   0.33333333 -0.16666667  0.25000000       0.014
   0.50000000 -0.16666667  0.25000000       0.014
  -0.33333333 -0.16666667  0.25000000       0.014
  -0.16666667 -0.16666667  0.25000000       0.014
   0.00000000  0.00000000  0.50000000       0.007
   0.16666667 -0.00000000  0.50000000       0.014
   0.33333333 -0.00000000  0.50000000       0.014
   0.50000000  0.00000000  0.50000000       0.007
   0.00000000  0.16666667  0.50000000       0.014
   0.16666667  0.16666667  0.50000000       0.014
   0.33333333  0.16666667  0.50000000       0.014
   0.50000000  0.16666667  0.50000000       0.014
  -0.33333333  0.16666667  0.50000000       0.014
  -0.16666667  0.16666667  0.50000000       0.014
  -0.00000000  0.33333333  0.50000000       0.014
   0.16666667  0.33333333  0.50000000       0.014
   0.33333333  0.33333333  0.50000000       0.014
   0.50000000  0.33333333  0.50000000       0.014
  -0.33333333  0.33333333  0.50000000       0.014
  -0.16666667  0.33333333  0.50000000       0.014
   0.00000000  0.50000000  0.50000000       0.007
   0.16666667  0.50000000  0.50000000       0.014
   0.33333333  0.50000000  0.50000000       0.014
   0.50000000  0.50000000  0.50000000       0.007
 
 position of ions in fractional coordinates (direct lattice) 
   0.49900214  0.00032672  0.12432884
   0.99967330  0.00032672  0.12500000
   0.49967330  0.50032672  0.12500000
   0.99967330  0.50032672  0.12500000
   0.49967330  0.00032672  0.62500000
   0.99967330  0.00032672  0.62500000
   0.49967330  0.50032672  0.62500000
   0.99967330  0.50032672  0.62500000
   0.00032672  0.49967330  0.37500000
   0.50032672  0.49967330  0.37500000
   0.00032672  0.99967330  0.37500000
   0.50032672  0.99967330  0.37500000
   0.00032672  0.49967330  0.87500000
   0.50032672  0.49967330  0.87500000
   0.00032672  0.99967330  0.87500000
   0.50032672  0.99967330  0.87500000
   0.16629246  0.33370753  0.12500000
   0.66629246  0.33370753  0.12500000
   0.16629246  0.83370753  0.12500000
   0.66629246  0.83370753  0.12500000
   0.16629246  0.33370753  0.62500000
   0.66629246  0.33370753  0.62500000
   0.16629246  0.83370753  0.62500000
   0.66629246  0.83370753  0.62500000
   0.33370753  0.16629246  0.37500000
   0.83370753  0.16629246  0.37500000
   0.33370753  0.66629246  0.37500000
   0.83370753  0.66629246  0.37500000
   0.33370753  0.16629246  0.87500000
   0.83370753  0.16629246  0.87500000
   0.33370753  0.66629246  0.87500000
   0.83370753  0.66629246  0.87500000
 
 position of ions in cartesian coordinates  (Angst):
   2.46070858  0.00043770  1.74797790
   4.93045658 -0.00052323  1.75741394
   1.22996963  2.13595390  1.75741394
   3.69640688  2.13499426  1.75741394
   2.46401933  0.00043641  8.78706971
   4.93045658 -0.00052323  8.78706971
   1.22996963  2.13595390  8.78706971
   3.69640688  2.13499426  8.78706971
  -1.23163172  2.13412154  5.27224183
   1.23480553  2.13316189  5.27224183
  -2.46568142  4.26963903  5.27224183
   0.00075583  4.26867939  5.27224183
  -1.23163172  2.13412154 12.30189760
   1.23480553  2.13316189 12.30189760
  -2.46568142  4.26963903 12.30189760
   0.00075583  4.26867939 12.30189760
  -0.00332350  1.42495737  1.75741394
   2.46311374  1.42399773  1.75741394
  -1.23737320  3.56047486  1.75741394
   1.22906405  3.55951522  1.75741394
  -0.00332350  1.42495737  8.78706971
   2.46311374  1.42399773  8.78706971
  -1.23737320  3.56047486  8.78706971
   1.22906405  3.55951522  8.78706971
   1.23571103  0.70960044  5.27224183
   3.70214828  0.70864080  5.27224183
   0.00166133  2.84511794  5.27224183
   2.46809858  2.84415829  5.27224183
   1.23571103  0.70960044 12.30189760
   3.70214828  0.70864080 12.30189760
   0.00166133  2.84511794 12.30189760
   2.46809858  2.84415829 12.30189760
 


--------------------------------------------------------------------------------------------------------


 k-point  1 :   0.0000 0.0000 0.0000  plane waves:    9853
 k-point  2 :   0.1667-0.0000 0.0000  plane waves:    9871
 k-point  3 :   0.3333-0.0000 0.0000  plane waves:    9893
 k-point  4 :   0.5000 0.0000 0.0000  plane waves:    9898
 k-point  5 :   0.0000 0.1667 0.0000  plane waves:    9871
 k-point  6 :   0.1667 0.1667 0.0000  plane waves:    9872
 k-point  7 :   0.3333 0.1667 0.0000  plane waves:    9885
 k-point  8 :   0.5000 0.1667 0.0000  plane waves:    9883
 k-point  9 :  -0.3333 0.1667 0.0000  plane waves:    9880
 k-point 10 :  -0.1667 0.1667 0.0000  plane waves:    9871
 k-point 11 :  -0.0000 0.3333 0.0000  plane waves:    9893
 k-point 12 :   0.1667 0.3333 0.0000  plane waves:    9885
 k-point 13 :   0.3333 0.3333 0.0000  plane waves:    9886
 k-point 14 :   0.5000 0.3333 0.0000  plane waves:    9879
 k-point 15 :  -0.3333 0.3333 0.0000  plane waves:    9899
 k-point 16 :  -0.1667 0.3333 0.0000  plane waves:    9880
 k-point 17 :   0.0000 0.5000 0.0000  plane waves:    9898
 k-point 18 :   0.1667 0.5000 0.0000  plane waves:    9883
 k-point 19 :   0.3333 0.5000 0.0000  plane waves:    9879
 k-point 20 :   0.5000 0.5000 0.0000  plane waves:    9900
 k-point 21 :   0.0000 0.0000 0.2500  plane waves:    9828
 k-point 22 :   0.1667-0.0000 0.2500  plane waves:    9860
 k-point 23 :   0.3333-0.0000 0.2500  plane waves:    9884
 k-point 24 :   0.5000 0.0000 0.2500  plane waves:    9882
 k-point 25 :  -0.3333 0.0000 0.2500  plane waves:    9884
 k-point 26 :  -0.1667 0.0000 0.2500  plane waves:    9860
 k-point 27 :   0.0000 0.1667 0.2500  plane waves:    9860
 k-point 28 :   0.1667 0.1667 0.2500  plane waves:    9881
 k-point 29 :   0.3333 0.1667 0.2500  plane waves:    9888
 k-point 30 :   0.5000 0.1667 0.2500  plane waves:    9893
 k-point 31 :  -0.3333 0.1667 0.2500  plane waves:    9880
 k-point 32 :  -0.1667 0.1667 0.2500  plane waves:    9862
 k-point 33 :  -0.0000 0.3333 0.2500  plane waves:    9884
 k-point 34 :   0.1667 0.3333 0.2500  plane waves:    9888
 k-point 35 :   0.3333 0.3333 0.2500  plane waves:    9888
 k-point 36 :   0.5000 0.3333 0.2500  plane waves:    9893
 k-point 37 :  -0.3333 0.3333 0.2500  plane waves:    9884
 k-point 38 :  -0.1667 0.3333 0.2500  plane waves:    9880
 k-point 39 :   0.0000 0.5000 0.2500  plane waves:    9882
 k-point 40 :   0.1667 0.5000 0.2500  plane waves:    9893
 k-point 41 :   0.3333 0.5000 0.2500  plane waves:    9893
 k-point 42 :   0.5000 0.5000 0.2500  plane waves:    9880
 k-point 43 :  -0.3333 0.5000 0.2500  plane waves:    9893
 k-point 44 :  -0.1667 0.5000 0.2500  plane waves:    9893
 k-point 45 :   0.0000-0.3333 0.2500  plane waves:    9884
 k-point 46 :   0.1667-0.3333 0.2500  plane waves:    9880
 k-point 47 :   0.3333-0.3333 0.2500  plane waves:    9884
 k-point 48 :   0.5000-0.3333 0.2500  plane waves:    9893
 k-point 49 :  -0.3333-0.3333 0.2500  plane waves:    9888
 k-point 50 :  -0.1667-0.3333 0.2500  plane waves:    9888
 k-point 51 :   0.0000-0.1667 0.2500  plane waves:    9860
 k-point 52 :   0.1667-0.1667 0.2500  plane waves:    9862
 k-point 53 :   0.3333-0.1667 0.2500  plane waves:    9880
 k-point 54 :   0.5000-0.1667 0.2500  plane waves:    9893
 k-point 55 :  -0.3333-0.1667 0.2500  plane waves:    9888
 k-point 56 :  -0.1667-0.1667 0.2500  plane waves:    9881
 k-point 57 :   0.0000 0.0000 0.5000  plane waves:    9800
 k-point 58 :   0.1667-0.0000 0.5000  plane waves:    9864
 k-point 59 :   0.3333-0.0000 0.5000  plane waves:    9904
 k-point 60 :   0.5000 0.0000 0.5000  plane waves:    9904
 k-point 61 :   0.0000 0.1667 0.5000  plane waves:    9864
 k-point 62 :   0.1667 0.1667 0.5000  plane waves:    9872
 k-point 63 :   0.3333 0.1667 0.5000  plane waves:    9882
 k-point 64 :   0.5000 0.1667 0.5000  plane waves:    9884
 k-point 65 :  -0.3333 0.1667 0.5000  plane waves:    9874
 k-point 66 :  -0.1667 0.1667 0.5000  plane waves:    9870
 k-point 67 :  -0.0000 0.3333 0.5000  plane waves:    9904
 k-point 68 :   0.1667 0.3333 0.5000  plane waves:    9882
 k-point 69 :   0.3333 0.3333 0.5000  plane waves:    9908
 k-point 70 :   0.5000 0.3333 0.5000  plane waves:    9882
 k-point 71 :  -0.3333 0.3333 0.5000  plane waves:    9906
 k-point 72 :  -0.1667 0.3333 0.5000  plane waves:    9874
 k-point 73 :   0.0000 0.5000 0.5000  plane waves:    9904
 k-point 74 :   0.1667 0.5000 0.5000  plane waves:    9884
 k-point 75 :   0.3333 0.5000 0.5000  plane waves:    9882
 k-point 76 :   0.5000 0.5000 0.5000  plane waves:    9904

 maximum and minimum number of plane-waves per node :      9908     9800

 maximum number of plane-waves:      9908
 maximum index in each direction: 
   IXMAX=   10   IYMAX=   10   IZMAX=   28
   IXMIN=  -10   IYMIN=  -10   IZMIN=  -28

 WARNING: aliasing errors must be expected set NGX to  42 to avoid them
 WARNING: aliasing errors must be expected set NGY to  42 to avoid them
 WARNING: aliasing errors must be expected set NGZ to 114 to avoid them
 aliasing errors are usually negligible using standard VASP settings
 and one can safely disregard these warnings

 serial   3D FFT for wavefunctions
 parallel 3D FFT for charge:
    minimum data exchange during FFTs selected (reduces bandwidth)


 total amount of memory used by VASP on root node   284929. kBytes
========================================================================

   base      :      30000. kBytes
   nonl-proj :      53286. kBytes
   fftplans  :       9104. kBytes
   grid      :      19307. kBytes
   one-center:         98. kBytes
   wavefun   :     173134. kBytes
 
     INWAV:  cpu time    0.00: real time    0.00
 Broyden mixing: mesh for mixing (old mesh)
   NGX = 19   NGY = 19   NGZ = 57
  (NGX  = 80   NGY  = 80   NGZ  =224)
  gives a total of  20577 points

 initial charge density was supplied:
 charge density of overlapping atoms calculated
 number of electron     128.0000000 magnetization 
 keeping initial charge density in first step


--------------------------------------------------------------------------------------------------------


 Maximum index for augmentation-charges         1406 (set IRDMAX)


--------------------------------------------------------------------------------------------------------


 First call to EWALD:  gamma=   0.266
 Maximum number of real-space cells 4x 4x 2
 Maximum number of reciprocal cells 2x 2x 5

 FEWALD executed in parallel
    FEWALD:  cpu time    0.01: real time    0.01


----------------------------------------- Iteration    1(   1)  ---------------------------------------


    POTLOK:  cpu time    1.02: real time    1.02
    SETDIJ:  cpu time    0.04: real time    0.04
     EDDAV:  cpu time  251.78: real time  251.92
 BZINTS: Fermi energy: 15.533843;128.000000 electrons
         Band energy:  14.848903;  BLOECHL correction: -0.117048
       DOS:  cpu time    0.10: real time    0.10
    --------------------------------------------
      LOOP:  cpu time  252.93: real time  253.11

 eigenvalue-minimisations  : 12768
 total energy-change (2. order) : 0.6161570E+03  (-0.7119803E+04)
 number of electron     128.0000000 magnetization 
 augmentation part      128.0000000 magnetization 

 Free energy of the ion-electron system (eV)
  ---------------------------------------------------
  alpha Z        PSCENC =       281.74243124
  Ewald energy   TEWEN  =     -3451.21587581
  -Hartree energ DENC   =     -1343.73873345
  -exchange      EXHF   =         0.00000000
  -V(xc)+E(xc)   XCENC  =       442.52645689
  PAW double counting   =      1210.60617908    -1247.42152856
  entropy T*S    EENTRO =         0.00000000
  eigenvalues    EBANDS =        14.84890264
  atomic energy  EATOM  =      4708.80920826
  ---------------------------------------------------
  free energy    TOTEN  =       616.15704030 eV

  energy without entropy =      616.15704030  energy(sigma->0) =      616.15704030


--------------------------------------------------------------------------------------------------------




----------------------------------------- Iteration    1(   2)  ---------------------------------------


     EDDAV:  cpu time  295.47: real time  295.62
 BZINTS: Fermi energy:  3.310810;128.000000 electrons
         Band energy:-861.535385;  BLOECHL correction:  0.000000
       DOS:  cpu time    0.03: real time    0.03
    --------------------------------------------
      LOOP:  cpu time  295.59: real time  295.75

 eigenvalue-minimisations  : 15924
 total energy-change (2. order) :-0.8763843E+03  (-0.8453122E+03)
 number of electron     128.0000000 magnetization 
 augmentation part      128.0000000 magnetization 

 Free energy of the ion-electron system (eV)
  ---------------------------------------------------
  alpha Z        PSCENC =       281.74243124
  Ewald energy   TEWEN  =     -3451.21587581
  -Hartree energ DENC   =     -1343.73873345
  -exchange      EXHF   =         0.00000000
  -V(xc)+E(xc)   XCENC  =       442.52645689
  PAW double counting   =      1210.60617908    -1247.42152856
  entropy T*S    EENTRO =         0.00000000
  eigenvalues    EBANDS =      -861.53538499
  atomic energy  EATOM  =      4708.80920826
  ---------------------------------------------------
  free energy    TOTEN  =      -260.22724733 eV

  energy without entropy =     -260.22724733  energy(sigma->0) =     -260.22724733


--------------------------------------------------------------------------------------------------------




----------------------------------------- Iteration    1(   3)  ---------------------------------------


     EDDAV:  cpu time  295.67: real time  295.82
 BZINTS: Fermi energy:  2.692720;128.000000 electrons
         Band energy:-914.334603;  BLOECHL correction: -0.000004
       DOS:  cpu time    0.05: real time    0.05
    --------------------------------------------
      LOOP:  cpu time  295.75: real time  295.91

 eigenvalue-minimisations  : 15540
 total energy-change (2. order) :-0.5279922E+02  (-0.5229022E+02)
 number of electron     128.0000000 magnetization 
 augmentation part      128.0000000 magnetization 

 Free energy of the ion-electron system (eV)
  ---------------------------------------------------
  alpha Z        PSCENC =       281.74243124
  Ewald energy   TEWEN  =     -3451.21587581
  -Hartree energ DENC   =     -1343.73873345
  -exchange      EXHF   =         0.00000000
  -V(xc)+E(xc)   XCENC  =       442.52645689
  PAW double counting   =      1210.60617908    -1247.42152856
  entropy T*S    EENTRO =         0.00000000
  eigenvalues    EBANDS =      -914.33460319
  atomic energy  EATOM  =      4708.80920826
  ---------------------------------------------------
  free energy    TOTEN  =      -313.02646553 eV

  energy without entropy =     -313.02646553  energy(sigma->0) =     -313.02646553


--------------------------------------------------------------------------------------------------------




----------------------------------------- Iteration    1(   4)  ---------------------------------------


     EDDAV:  cpu time  300.25: real time  300.41
 BZINTS: Fermi energy:  2.686959;128.000000 electrons
         Band energy:-915.382619;  BLOECHL correction: -0.000000
       DOS:  cpu time    0.05: real time    0.05
    --------------------------------------------
      LOOP:  cpu time  300.34: real time  300.50

 eigenvalue-minimisations  : 16368
 total energy-change (2. order) :-0.1048016E+01  (-0.1046098E+01)
 number of electron     128.0000000 magnetization 
 augmentation part      128.0000000 magnetization 

 Free energy of the ion-electron system (eV)
  ---------------------------------------------------
  alpha Z        PSCENC =       281.74243124
  Ewald energy   TEWEN  =     -3451.21587581
  -Hartree energ DENC   =     -1343.73873345
  -exchange      EXHF   =         0.00000000
  -V(xc)+E(xc)   XCENC  =       442.52645689
  PAW double counting   =      1210.60617908    -1247.42152856
  entropy T*S    EENTRO =         0.00000000
  eigenvalues    EBANDS =      -915.38261938
  atomic energy  EATOM  =      4708.80920826
  ---------------------------------------------------
  free energy    TOTEN  =      -314.07448172 eV

  energy without entropy =     -314.07448172  energy(sigma->0) =     -314.07448172


--------------------------------------------------------------------------------------------------------




----------------------------------------- Iteration    1(   5)  ---------------------------------------


     EDDAV:  cpu time  308.80: real time  308.96
 BZINTS: Fermi energy:  2.687111;128.000000 electrons
         Band energy:-915.412116;  BLOECHL correction: -0.000000
       DOS:  cpu time    0.05: real time    0.05
    CHARGE:  cpu time    6.05: real time    6.05
    MIXING:  cpu time    0.03: real time    0.04
    --------------------------------------------
      LOOP:  cpu time  314.98: real time  315.15

 eigenvalue-minimisations  : 16440
 total energy-change (2. order) :-0.2949632E-01  (-0.2948690E-01)
 number of electron     128.0000013 magnetization 
 augmentation part        3.4034778 magnetization 

 Broyden mixing:
  rms(total) = 0.22090E+01    rms(broyden)= 0.22087E+01
  rms(prec ) = 0.25810E+01
  weight for this iteration     100.00

 Free energy of the ion-electron system (eV)
  ---------------------------------------------------
  alpha Z        PSCENC =       281.74243124
  Ewald energy   TEWEN  =     -3451.21587581
  -Hartree energ DENC   =     -1343.73873345
  -exchange      EXHF   =         0.00000000
  -V(xc)+E(xc)   XCENC  =       442.52645689
  PAW double counting   =      1210.60617908    -1247.42152856
  entropy T*S    EENTRO =         0.00000000
  eigenvalues    EBANDS =      -915.41211570
  atomic energy  EATOM  =      4708.80920826
  ---------------------------------------------------
  free energy    TOTEN  =      -314.10397804 eV

  energy without entropy =     -314.10397804  energy(sigma->0) =     -314.10397804


--------------------------------------------------------------------------------------------------------




----------------------------------------- Iteration    1(   6)  ---------------------------------------


    POTLOK:  cpu time    1.03: real time    1.03
    SETDIJ:  cpu time    0.04: real time    0.04
     EDDAV:  cpu time  278.60: real time  278.75
 BZINTS: Fermi energy:  3.489412;128.000000 electrons
         Band energy:-769.990980;  BLOECHL correction: -0.000002
       DOS:  cpu time    0.05: real time    0.06
    CHARGE:  cpu time    6.18: real time    6.18
    MIXING:  cpu time    0.01: real time    0.01
    --------------------------------------------
      LOOP:  cpu time  285.92: real time  286.08

 eigenvalue-minimisations  : 14592
 total energy-change (2. order) : 0.1463646E+02  (-0.1504652E+01)
 number of electron     128.0000012 magnetization 
 augmentation part        3.2467681 magnetization 

 Broyden mixing:
  rms(total) = 0.11592E+01    rms(broyden)= 0.11592E+01
  rms(prec ) = 0.13473E+01
  weight for this iteration     100.00

 eigenvalues of (default mixing * dielectric matrix)
  average eigenvalue GAMMA=   2.0327
  2.0327

 Free energy of the ion-electron system (eV)
  ---------------------------------------------------
  alpha Z        PSCENC =       281.74243124
  Ewald energy   TEWEN  =     -3451.21587581
  -Hartree energ DENC   =     -1480.01988768
  -exchange      EXHF   =         0.00000000
  -V(xc)+E(xc)   XCENC  =       450.96106283
  PAW double counting   =      1642.54783934    -1682.30131840
  entropy T*S    EENTRO =         0.00000000
  eigenvalues    EBANDS =      -769.99097954
  atomic energy  EATOM  =      4708.80920826
  ---------------------------------------------------
  free energy    TOTEN  =      -299.46751975 eV

  energy without entropy =     -299.46751975  energy(sigma->0) =     -299.46751975


--------------------------------------------------------------------------------------------------------




----------------------------------------- Iteration    1(   7)  ---------------------------------------


    POTLOK:  cpu time    0.95: real time    0.95
    SETDIJ:  cpu time    0.03: real time    0.03
     EDDAV:  cpu time  273.32: real time  273.46
 BZINTS: Fermi energy:  4.283034;128.000000 electrons
         Band energy:-620.534873;  BLOECHL correction:  0.000000
       DOS:  cpu time    0.04: real time    0.04
    CHARGE:  cpu time    5.60: real time    5.60
    MIXING:  cpu time    0.11: real time    0.11
    --------------------------------------------
      LOOP:  cpu time  280.05: real time  280.19

 eigenvalue-minimisations  : 14424
 total energy-change (2. order) : 0.4680500E+01  (-0.1631557E+01)
 number of electron     128.0000010 magnetization 
 augmentation part        3.0794294 magnetization 

 Broyden mixing:
  rms(total) = 0.20190E+00    rms(broyden)= 0.20184E+00
  rms(prec ) = 0.22860E+00
  weight for this iteration     100.00

 eigenvalues of (default mixing * dielectric matrix)
  average eigenvalue GAMMA=   1.9589
  1.9589  1.9589

 Free energy of the ion-electron system (eV)
  ---------------------------------------------------
  alpha Z        PSCENC =       281.74243124
  Ewald energy   TEWEN  =     -3451.21587581
  -Hartree energ DENC   =     -1632.04680107
  -exchange      EXHF   =         0.00000000
  -V(xc)+E(xc)   XCENC  =       460.60677155
  PAW double counting   =      2181.63436501    -2223.78224572
  entropy T*S    EENTRO =         0.00000000
  eigenvalues    EBANDS =      -620.53487322
  atomic energy  EATOM  =      4708.80920826
  ---------------------------------------------------
  free energy    TOTEN  =      -294.78701973 eV

  energy without entropy =     -294.78701973  energy(sigma->0) =     -294.78701973


--------------------------------------------------------------------------------------------------------




----------------------------------------- Iteration    1(   8)  ---------------------------------------


    POTLOK:  cpu time    1.17: real time    1.18
    SETDIJ:  cpu time    0.04: real time    0.04
     EDDAV:  cpu time  289.78: real time  289.92
 BZINTS: Fermi energy:  4.262280;128.000000 electrons
         Band energy:-621.569235;  BLOECHL correction:  0.000000
       DOS:  cpu time    0.05: real time    0.05
    CHARGE:  cpu time    5.78: real time    5.78
    MIXING:  cpu time    0.02: real time    0.02
    --------------------------------------------
      LOOP:  cpu time  296.85: real time  297.01

 eigenvalue-minimisations  : 15300
 total energy-change (2. order) :-0.4924839E-01  (-0.6664002E-01)
 number of electron     128.0000010 magnetization 
 augmentation part        3.0687920 magnetization 

 Broyden mixing:
  rms(total) = 0.10561E+00    rms(broyden)= 0.10559E+00
  rms(prec ) = 0.13323E+00
  weight for this iteration     100.00

 eigenvalues of (default mixing * dielectric matrix)
  average eigenvalue GAMMA=   1.6601
  2.3492  2.0651  0.5661

 Free energy of the ion-electron system (eV)
  ---------------------------------------------------
  alpha Z        PSCENC =       281.74243124
  Ewald energy   TEWEN  =     -3451.21587581
  -Hartree energ DENC   =     -1631.47997807
  -exchange      EXHF   =         0.00000000
  -V(xc)+E(xc)   XCENC  =       460.57150802
  PAW double counting   =      2199.66871118    -2241.36303805
  entropy T*S    EENTRO =         0.00000000
  eigenvalues    EBANDS =      -621.56923490
  atomic energy  EATOM  =      4708.80920826
  ---------------------------------------------------
  free energy    TOTEN  =      -294.83626812 eV

  energy without entropy =     -294.83626812  energy(sigma->0) =     -294.83626812


--------------------------------------------------------------------------------------------------------




----------------------------------------- Iteration    1(   9)  ---------------------------------------


    POTLOK:  cpu time    0.99: real time    1.00
    SETDIJ:  cpu time    0.06: real time    0.06
     EDDAV:  cpu time  274.18: real time  274.32
 BZINTS: Fermi energy:  4.260439;128.000000 electrons
         Band energy:-621.326215;  BLOECHL correction:  0.000000
       DOS:  cpu time    0.03: real time    0.03
    CHARGE:  cpu time    7.28: real time    7.28
    MIXING:  cpu time    0.01: real time    0.01
    --------------------------------------------
      LOOP:  cpu time  282.56: real time  282.71

 eigenvalue-minimisations  : 14412
 total energy-change (2. order) :-0.8564912E-02  (-0.6336382E-02)
 number of electron     128.0000010 magnetization 
 augmentation part        3.0692921 magnetization 

 Broyden mixing:
  rms(total) = 0.38769E-01    rms(broyden)= 0.38766E-01
  rms(prec ) = 0.71620E-01
  weight for this iteration     100.00

 eigenvalues of (default mixing * dielectric matrix)
  average eigenvalue GAMMA=   1.4929
  2.4476  2.0115  0.7562  0.7562

 Free energy of the ion-electron system (eV)
  ---------------------------------------------------
  alpha Z        PSCENC =       281.74243124
  Ewald energy   TEWEN  =     -3451.21587581
  -Hartree energ DENC   =     -1632.15889767
  -exchange      EXHF   =         0.00000000
  -V(xc)+E(xc)   XCENC  =       460.63067053
  PAW double counting   =      2217.58411177    -2258.91026615
  entropy T*S    EENTRO =         0.00000000
  eigenvalues    EBANDS =      -621.32621521
  atomic energy  EATOM  =      4708.80920826
  ---------------------------------------------------
  free energy    TOTEN  =      -294.84483303 eV

  energy without entropy =     -294.84483303  energy(sigma->0) =     -294.84483303


--------------------------------------------------------------------------------------------------------




----------------------------------------- Iteration    1(  10)  ---------------------------------------


    POTLOK:  cpu time    1.07: real time    1.07
    SETDIJ:  cpu time    0.02: real time    0.02
     EDDAV:  cpu time  380.45: real time  380.66
 BZINTS: Fermi energy:  4.270156;128.000000 electrons
         Band energy:-620.026009;  BLOECHL correction:  0.000000
       DOS:  cpu time    0.03: real time    0.03
    CHARGE:  cpu time    5.48: real time    5.48
    MIXING:  cpu time    0.02: real time    0.02
    --------------------------------------------
      LOOP:  cpu time  387.07: real time  387.29

 eigenvalue-minimisations  : 20508
 total energy-change (2. order) :-0.3171890E-02  (-0.1392491E-01)
 number of electron     128.0000010 magnetization 
 augmentation part        3.0685415 magnetization 

 Broyden mixing:
  rms(total) = 0.35746E-01    rms(broyden)= 0.35704E-01
  rms(prec ) = 0.72126E-01
  weight for this iteration     100.00

 eigenvalues of (default mixing * dielectric matrix)
  average eigenvalue GAMMA=   1.3747
  2.5329  1.9571  1.2231  0.5803  0.5803

 Free energy of the ion-electron system (eV)
  ---------------------------------------------------
  alpha Z        PSCENC =       281.74243124
  Ewald energy   TEWEN  =     -3451.21587581
  -Hartree energ DENC   =     -1633.55742038
  -exchange      EXHF   =         0.00000000
  -V(xc)+E(xc)   XCENC  =       460.72547287
  PAW double counting   =      2221.44951879    -2262.77533077
  entropy T*S    EENTRO =         0.00000000
  eigenvalues    EBANDS =      -620.02600912
  atomic energy  EATOM  =      4708.80920826
  ---------------------------------------------------
  free energy    TOTEN  =      -294.84800492 eV

  energy without entropy =     -294.84800492  energy(sigma->0) =     -294.84800492


--------------------------------------------------------------------------------------------------------




----------------------------------------- Iteration    1(  11)  ---------------------------------------


    POTLOK:  cpu time    1.40: real time    1.40
    SETDIJ:  cpu time    0.02: real time    0.02
     EDDAV:  cpu time  284.02: real time  284.18
 BZINTS: Fermi energy:  4.273733;128.000000 electrons
         Band energy:-619.408526;  BLOECHL correction: -0.000001
       DOS:  cpu time    0.05: real time    0.05
    CHARGE:  cpu time    5.83: real time    5.84
    MIXING:  cpu time    0.02: real time    0.02
    --------------------------------------------
      LOOP:  cpu time  291.35: real time  291.52

 eigenvalue-minimisations  : 14760
 total energy-change (2. order) : 0.5185508E-02  (-0.1272204E-02)
 number of electron     128.0000010 magnetization 
 augmentation part        3.0678461 magnetization 

 Broyden mixing:
  rms(total) = 0.14318E-01    rms(broyden)= 0.14317E-01
  rms(prec ) = 0.26374E-01
  weight for this iteration     100.00

 eigenvalues of (default mixing * dielectric matrix)
  average eigenvalue GAMMA=   1.4010
  2.6226  1.9323  1.9323  0.7175  0.6007  0.6007

 Free energy of the ion-electron system (eV)
  ---------------------------------------------------
  alpha Z        PSCENC =       281.74243124
  Ewald energy   TEWEN  =     -3451.21587581
  -Hartree energ DENC   =     -1634.21411664
  -exchange      EXHF   =         0.00000000
  -V(xc)+E(xc)   XCENC  =       460.77015596
  PAW double counting   =      2222.97617298    -2264.30226921
  entropy T*S    EENTRO =         0.00000000
  eigenvalues    EBANDS =      -619.40852621
  atomic energy  EATOM  =      4708.80920826
  ---------------------------------------------------
  free energy    TOTEN  =      -294.84281942 eV

  energy without entropy =     -294.84281942  energy(sigma->0) =     -294.84281942


--------------------------------------------------------------------------------------------------------




----------------------------------------- Iteration    1(  12)  ---------------------------------------


    POTLOK:  cpu time    1.33: real time    1.33
    SETDIJ:  cpu time    0.07: real time    0.07
     EDDAV:  cpu time  309.55: real time  309.72
 BZINTS: Fermi energy:  4.275545;128.000000 electrons
         Band energy:-618.865664;  BLOECHL correction:  0.000000
       DOS:  cpu time    0.03: real time    0.03
    CHARGE:  cpu time    5.86: real time    5.86
    MIXING:  cpu time    0.04: real time    0.04
    --------------------------------------------
      LOOP:  cpu time  316.87: real time  317.05

 eigenvalue-minimisations  : 16776
 total energy-change (2. order) :-0.2628050E-02  (-0.3626673E-02)
 number of electron     128.0000010 magnetization 
 augmentation part        3.0675113 magnetization 

 Broyden mixing:
  rms(total) = 0.28582E-01    rms(broyden)= 0.28557E-01
  rms(prec ) = 0.59658E-01
  weight for this iteration     100.00

 eigenvalues of (default mixing * dielectric matrix)
  average eigenvalue GAMMA=   1.2957
  2.5704  2.1290  1.9328  0.8995  0.5212  0.5084  0.5084

 Free energy of the ion-electron system (eV)
  ---------------------------------------------------
  alpha Z        PSCENC =       281.74243124
  Ewald energy   TEWEN  =     -3451.21587581
  -Hartree energ DENC   =     -1634.80063460
  -exchange      EXHF   =         0.00000000
  -V(xc)+E(xc)   XCENC  =       460.81064620
  PAW double counting   =      2223.20938250    -2264.53494164
  entropy T*S    EENTRO =         0.00000000
  eigenvalues    EBANDS =      -618.86566363
  atomic energy  EATOM  =      4708.80920826
  ---------------------------------------------------
  free energy    TOTEN  =      -294.84544747 eV

  energy without entropy =     -294.84544747  energy(sigma->0) =     -294.84544747


--------------------------------------------------------------------------------------------------------




----------------------------------------- Iteration    1(  13)  ---------------------------------------


    POTLOK:  cpu time    1.41: real time    1.41
    SETDIJ:  cpu time    0.04: real time    0.04
     EDDAV:  cpu time  277.11: real time  277.26
 BZINTS: Fermi energy:  4.278044;128.000000 electrons
         Band energy:-618.845390;  BLOECHL correction: -0.000003
       DOS:  cpu time    0.05: real time    0.05
    CHARGE:  cpu time    5.57: real time    5.58
    MIXING:  cpu time    0.11: real time    0.11
    --------------------------------------------
      LOOP:  cpu time  284.30: real time  284.46

 eigenvalue-minimisations  : 14568
 total energy-change (2. order) : 0.1795608E-02  (-0.4288905E-03)
 number of electron     128.0000010 magnetization 
 augmentation part        3.0674088 magnetization 

 Broyden mixing:
  rms(total) = 0.16123E-01    rms(broyden)= 0.16119E-01
  rms(prec ) = 0.32798E-01
  weight for this iteration     100.00

 eigenvalues of (default mixing * dielectric matrix)
  average eigenvalue GAMMA=   1.1548
  2.5000  2.2448  1.8597  0.9945  0.5410  0.5410  0.2788  0.2788

 Free energy of the ion-electron system (eV)
  ---------------------------------------------------
  alpha Z        PSCENC =       281.74243124
  Ewald energy   TEWEN  =     -3451.21587581
  -Hartree energ DENC   =     -1634.82168365
  -exchange      EXHF   =         0.00000000
  -V(xc)+E(xc)   XCENC  =       460.81242799
  PAW double counting   =      2222.55905494    -2263.88382503
  entropy T*S    EENTRO =         0.00000000
  eigenvalues    EBANDS =      -618.84538981
  atomic energy  EATOM  =      4708.80920826
  ---------------------------------------------------
  free energy    TOTEN  =      -294.84365186 eV

  energy without entropy =     -294.84365186  energy(sigma->0) =     -294.84365186


--------------------------------------------------------------------------------------------------------




----------------------------------------- Iteration    1(  14)  ---------------------------------------


    POTLOK:  cpu time    1.46: real time    1.46
    SETDIJ:  cpu time    0.03: real time    0.03
     EDDAV:  cpu time  281.48: real time  281.66
 BZINTS: Fermi energy:  4.276885;128.000000 electrons
         Band energy:-618.901716;  BLOECHL correction: -0.000000
       DOS:  cpu time    0.04: real time    0.04
    CHARGE:  cpu time    5.76: real time    5.76
    MIXING:  cpu time    0.03: real time    0.03
    --------------------------------------------
      LOOP:  cpu time  288.80: real time  288.98

 eigenvalue-minimisations  : 14880
 total energy-change (2. order) :-0.2874348E-03  (-0.2628839E-03)
 number of electron     128.0000010 magnetization 
 augmentation part        3.0674105 magnetization 

 Broyden mixing:
  rms(total) = 0.22672E-01    rms(broyden)= 0.22669E-01
  rms(prec ) = 0.46818E-01
  weight for this iteration     100.00

 eigenvalues of (default mixing * dielectric matrix)
  average eigenvalue GAMMA=   1.1876
  2.7778  2.4893  1.9236  0.9147  0.9147  0.5711  0.5711  0.3061  0.2202

 Free energy of the ion-electron system (eV)
  ---------------------------------------------------
  alpha Z        PSCENC =       281.74243124
  Ewald energy   TEWEN  =     -3451.21587581
  -Hartree energ DENC   =     -1634.76265633
  -exchange      EXHF   =         0.00000000
  -V(xc)+E(xc)   XCENC  =       460.80849327
  PAW double counting   =      2222.31660114    -2263.64042508
  entropy T*S    EENTRO =         0.00000000
  eigenvalues    EBANDS =      -618.90171599
  atomic energy  EATOM  =      4708.80920826
  ---------------------------------------------------
  free energy    TOTEN  =      -294.84393929 eV

  energy without entropy =     -294.84393929  energy(sigma->0) =     -294.84393929


--------------------------------------------------------------------------------------------------------




----------------------------------------- Iteration    1(  15)  ---------------------------------------


    POTLOK:  cpu time    0.99: real time    0.99
    SETDIJ:  cpu time    0.05: real time    0.06
     EDDAV:  cpu time  376.29: real time  376.50
 BZINTS: Fermi energy:  4.279392;128.000000 electrons
         Band energy:-618.699969;  BLOECHL correction:  0.000000
       DOS:  cpu time    0.03: real time    0.03
    CHARGE:  cpu time    5.82: real time    5.82
    MIXING:  cpu time    0.08: real time    0.08
    --------------------------------------------
      LOOP:  cpu time  383.25: real time  383.48

 eigenvalue-minimisations  : 21756
 total energy-change (2. order) :-0.1108868E-02  (-0.3763110E-02)
 number of electron     128.0000010 magnetization 
 augmentation part        3.0673872 magnetization 

 Broyden mixing:
  rms(total) = 0.27565E-01    rms(broyden)= 0.27530E-01
  rms(prec ) = 0.57527E-01
  weight for this iteration     100.00

 eigenvalues of (default mixing * dielectric matrix)
  average eigenvalue GAMMA=   1.1455
  2.9138  2.4669  1.9215  0.9321  0.9321  0.7568  0.5097  0.5097  0.2656  0.2471

 Free energy of the ion-electron system (eV)
  ---------------------------------------------------
  alpha Z        PSCENC =       281.74243124
  Ewald energy   TEWEN  =     -3451.21587581
  -Hartree energ DENC   =     -1634.98111082
  -exchange      EXHF   =         0.00000000
  -V(xc)+E(xc)   XCENC  =       460.82351940
  PAW double counting   =      2222.07444915    -2263.39770045
  entropy T*S    EENTRO =         0.00000000
  eigenvalues    EBANDS =      -618.69996913
  atomic energy  EATOM  =      4708.80920826
  ---------------------------------------------------
  free energy    TOTEN  =      -294.84504816 eV

  energy without entropy =     -294.84504816  energy(sigma->0) =     -294.84504816


--------------------------------------------------------------------------------------------------------




----------------------------------------- Iteration    1(  16)  ---------------------------------------


    POTLOK:  cpu time    1.05: real time    1.05
    SETDIJ:  cpu time    0.04: real time    0.04
     EDDAV:  cpu time  357.44: real time  357.65
 BZINTS: Fermi energy:  4.278974;128.000000 electrons
         Band energy:-618.677607;  BLOECHL correction: -0.000003
       DOS:  cpu time    0.07: real time    0.07
    CHARGE:  cpu time    5.60: real time    5.60
    MIXING:  cpu time    0.07: real time    0.07
    --------------------------------------------
      LOOP:  cpu time  364.28: real time  364.51

 eigenvalue-minimisations  : 20700
 total energy-change (2. order) : 0.1478422E-02  (-0.1204132E-02)
 number of electron     128.0000010 magnetization 
 augmentation part        3.0673412 magnetization 

 Broyden mixing:
  rms(total) = 0.12145E-01    rms(broyden)= 0.12115E-01
  rms(prec ) = 0.25133E-01
  weight for this iteration     100.00

 eigenvalues of (default mixing * dielectric matrix)
  average eigenvalue GAMMA=   1.1281
  2.9101  2.4471  1.9369  1.0177  1.0177  0.9078  0.6705  0.4940  0.4940  0.2901
  0.2229

 Free energy of the ion-electron system (eV)
  ---------------------------------------------------
  alpha Z        PSCENC =       281.74243124
  Ewald energy   TEWEN  =     -3451.21587581
  -Hartree energ DENC   =     -1635.00488134
  -exchange      EXHF   =         0.00000000
  -V(xc)+E(xc)   XCENC  =       460.82510972
  PAW double counting   =      2222.03573498    -2263.35769023
  entropy T*S    EENTRO =         0.00000000
  eigenvalues    EBANDS =      -618.67760657
  atomic energy  EATOM  =      4708.80920826
  ---------------------------------------------------
  free energy    TOTEN  =      -294.84356974 eV

  energy without entropy =     -294.84356974  energy(sigma->0) =     -294.84356974


--------------------------------------------------------------------------------------------------------




----------------------------------------- Iteration    1(  17)  ---------------------------------------


    POTLOK:  cpu time    1.18: real time    1.18
    SETDIJ:  cpu time    0.04: real time    0.04
     EDDAV:  cpu time  283.05: real time  283.22
 BZINTS: Fermi energy:  4.279118;128.000000 electrons
         Band energy:-618.657781;  BLOECHL correction: -0.000001
       DOS:  cpu time    0.05: real time    0.05
    CHARGE:  cpu time    5.90: real time    5.90
    MIXING:  cpu time    0.12: real time    0.12
    --------------------------------------------
      LOOP:  cpu time  290.33: real time  290.51

 eigenvalue-minimisations  : 14940
 total energy-change (2. order) : 0.3529033E-04  (-0.3258088E-03)
 number of electron     128.0000010 magnetization 
 augmentation part        3.0673330 magnetization 

 Broyden mixing:
  rms(total) = 0.97134E-02    rms(broyden)= 0.97023E-02
  rms(prec ) = 0.20457E-01
  weight for this iteration     100.00

 eigenvalues of (default mixing * dielectric matrix)
  average eigenvalue GAMMA=   1.1055
  2.9291  2.4553  1.9412  1.1346  1.1346  0.8754  0.8754  0.5150  0.5150  0.3375
  0.3375  0.2154

 Free energy of the ion-electron system (eV)
  ---------------------------------------------------
  alpha Z        PSCENC =       281.74243124
  Ewald energy   TEWEN  =     -3451.21587581
  -Hartree energ DENC   =     -1635.02528470
  -exchange      EXHF   =         0.00000000
  -V(xc)+E(xc)   XCENC  =       460.82623878
  PAW double counting   =      2222.05266001    -2263.37513106
  entropy T*S    EENTRO =         0.00000000
  eigenvalues    EBANDS =      -618.65778118
  atomic energy  EATOM  =      4708.80920826
  ---------------------------------------------------
  free energy    TOTEN  =      -294.84353445 eV

  energy without entropy =     -294.84353445  energy(sigma->0) =     -294.84353445


--------------------------------------------------------------------------------------------------------




----------------------------------------- Iteration    1(  18)  ---------------------------------------


    POTLOK:  cpu time    1.44: real time    1.44
    SETDIJ:  cpu time    0.06: real time    0.06
     EDDAV:  cpu time  275.97: real time  276.15
 BZINTS: Fermi energy:  4.278926;128.000000 electrons
         Band energy:-618.653650;  BLOECHL correction: -0.000001
       DOS:  cpu time    0.05: real time    0.05
    CHARGE:  cpu time    5.35: real time    5.35
    MIXING:  cpu time    0.05: real time    0.05
    --------------------------------------------
      LOOP:  cpu time  282.92: real time  283.11

 eigenvalue-minimisations  : 14676
 total energy-change (2. order) : 0.3766929E-04  (-0.1883535E-04)
 number of electron     128.0000010 magnetization 
 augmentation part        3.0673147 magnetization 

 Broyden mixing:
  rms(total) = 0.57548E-02    rms(broyden)= 0.57542E-02
  rms(prec ) = 0.11970E-01
  weight for this iteration     100.00

 eigenvalues of (default mixing * dielectric matrix)
  average eigenvalue GAMMA=   1.0358
  2.9094  2.4983  1.9014  1.1911  0.8545  0.8545  0.5953  0.5740  0.5740  0.5002
  0.5002  0.2932  0.2197

 Free energy of the ion-electron system (eV)
  ---------------------------------------------------
  alpha Z        PSCENC =       281.74243124
  Ewald energy   TEWEN  =     -3451.21587581
  -Hartree energ DENC   =     -1635.02963261
  -exchange      EXHF   =         0.00000000
  -V(xc)+E(xc)   XCENC  =       460.82643376
  PAW double counting   =      2222.02083341    -2263.34324499
  entropy T*S    EENTRO =         0.00000000
  eigenvalues    EBANDS =      -618.65365004
  atomic energy  EATOM  =      4708.80920826
  ---------------------------------------------------
  free energy    TOTEN  =      -294.84349678 eV

  energy without entropy =     -294.84349678  energy(sigma->0) =     -294.84349678


--------------------------------------------------------------------------------------------------------




----------------------------------------- Iteration    1(  19)  ---------------------------------------


    POTLOK:  cpu time    1.48: real time    1.48
    SETDIJ:  cpu time    0.07: real time    0.07
     EDDAV:  cpu time  362.95: real time  363.16
 BZINTS: Fermi energy:  4.278529;128.000000 electrons
         Band energy:-618.663384;  BLOECHL correction: -0.000000
       DOS:  cpu time    0.04: real time    0.04
    CHARGE:  cpu time    5.38: real time    5.38
    MIXING:  cpu time    0.10: real time    0.10
    --------------------------------------------
      LOOP:  cpu time  370.02: real time  370.24

 eigenvalue-minimisations  : 20832
 total energy-change (2. order) : 0.2328211E-04  (-0.2212500E-04)
 number of electron     128.0000010 magnetization 
 augmentation part        3.0673182 magnetization 

 Broyden mixing:
  rms(total) = 0.11473E-02    rms(broyden)= 0.11357E-02
  rms(prec ) = 0.23009E-02
  weight for this iteration     100.00

 eigenvalues of (default mixing * dielectric matrix)
  average eigenvalue GAMMA=   1.0762
  3.0509  2.4953  1.8427  1.8427  1.0480  0.9293  0.9293  0.6462  0.5150  0.5150
  0.3817  0.3817  0.2668  0.2219

 Free energy of the ion-electron system (eV)
  ---------------------------------------------------
  alpha Z        PSCENC =       281.74243124
  Ewald energy   TEWEN  =     -3451.21587581
  -Hartree energ DENC   =     -1635.01944175
  -exchange      EXHF   =         0.00000000
  -V(xc)+E(xc)   XCENC  =       460.82574109
  PAW double counting   =      2221.97373374    -2263.29588644
  entropy T*S    EENTRO =         0.00000000
  eigenvalues    EBANDS =      -618.66338384
  atomic energy  EATOM  =      4708.80920826
  ---------------------------------------------------
  free energy    TOTEN  =      -294.84347350 eV

  energy without entropy =     -294.84347350  energy(sigma->0) =     -294.84347350


--------------------------------------------------------------------------------------------------------




----------------------------------------- Iteration    1(  20)  ---------------------------------------


    POTLOK:  cpu time    1.39: real time    1.39
    SETDIJ:  cpu time    0.05: real time    0.05
     EDDAV:  cpu time  284.04: real time  284.21
 BZINTS: Fermi energy:  4.278776;128.000000 electrons
         Band energy:-618.658803;  BLOECHL correction: -0.000000
       DOS:  cpu time    0.07: real time    0.07
    CHARGE:  cpu time    5.91: real time    5.91
    MIXING:  cpu time    0.04: real time    0.04
    --------------------------------------------
      LOOP:  cpu time  291.50: real time  291.68

 eigenvalue-minimisations  : 14700
 total energy-change (2. order) :-0.8684429E-05  (-0.1218008E-04)
 number of electron     128.0000010 magnetization 
 augmentation part        3.0673254 magnetization 

 Broyden mixing:
  rms(total) = 0.32585E-02    rms(broyden)= 0.32567E-02
  rms(prec ) = 0.68140E-02
  weight for this iteration     100.00

 eigenvalues of (default mixing * dielectric matrix)
  average eigenvalue GAMMA=   1.0667
  3.0546  2.5081  1.8234  1.8234  1.1797  1.1797  0.8226  0.6785  0.6785  0.5175
  0.5175  0.3667  0.3667  0.2211  0.2626

 Free energy of the ion-electron system (eV)
  ---------------------------------------------------
  alpha Z        PSCENC =       281.74243124
  Ewald energy   TEWEN  =     -3451.21587581
  -Hartree energ DENC   =     -1635.02444035
  -exchange      EXHF   =         0.00000000
  -V(xc)+E(xc)   XCENC  =       460.82596074
  PAW double counting   =      2221.94369370    -2263.26565648
  entropy T*S    EENTRO =         0.00000000
  eigenvalues    EBANDS =      -618.65880348
  atomic energy  EATOM  =      4708.80920826
  ---------------------------------------------------
  free energy    TOTEN  =      -294.84348218 eV

  energy without entropy =     -294.84348218  energy(sigma->0) =     -294.84348218


--------------------------------------------------------------------------------------------------------




----------------------------------------- Iteration    1(  21)  ---------------------------------------


    POTLOK:  cpu time    1.22: real time    1.22
    SETDIJ:  cpu time    0.05: real time    0.05
     EDDAV:  cpu time  294.58: real time  294.78
 BZINTS: Fermi energy:  4.278639;128.000000 electrons
         Band energy:-618.653003;  BLOECHL correction: -0.000000
       DOS:  cpu time    0.06: real time    0.06
    CHARGE:  cpu time    6.27: real time    6.28
    MIXING:  cpu time    0.04: real time    0.05
    --------------------------------------------
      LOOP:  cpu time  302.23: real time  302.45

 eigenvalue-minimisations  : 15876
 total energy-change (2. order) : 0.6043836E-05  (-0.1643322E-04)
 number of electron     128.0000010 magnetization 
 augmentation part        3.0673232 magnetization 

 Broyden mixing:
  rms(total) = 0.16395E-02    rms(broyden)= 0.16349E-02
  rms(prec ) = 0.33218E-02
  weight for this iteration     100.00

 eigenvalues of (default mixing * dielectric matrix)
  average eigenvalue GAMMA=   1.1042
  3.3138  2.6221  2.4863  1.8808  1.2268  0.8530  0.8530  0.9621  0.7913  0.5094
  0.5094  0.5432  0.3012  0.3012  0.2941  0.2199

 Free energy of the ion-electron system (eV)
  ---------------------------------------------------
  alpha Z        PSCENC =       281.74243124
[...]
     79      11.4601      0.00000
     80      11.4638      0.00000
     81      12.2552      0.00000
     82      12.2565      0.00000
     83      12.4722      0.00000
     84      12.4742      0.00000

 k-point    75 :       0.3333    0.5000    0.5000
  band No.  band energies     occupation 
      1     -14.1382      2.00000
      2     -14.1379      2.00000
      3     -14.0023      2.00000
      4     -14.0021      2.00000
      5     -13.1689      2.00000
      6     -13.1686      2.00000
      7     -13.0419      2.00000
      8     -13.0417      2.00000
      9     -12.2112      2.00000
     10     -12.2110      2.00000
     11     -12.0931      2.00000
     12     -12.0929      2.00000
     13      -9.5412      2.00000
     14      -9.5406      2.00000
     15      -9.4552      2.00000
     16      -9.4545      2.00000
     17      -7.6745      2.00000
     18      -7.6723      2.00000
     19      -7.6169      2.00000
     20      -7.6149      2.00000
     21      -5.3723      2.00000
     22      -5.3702      2.00000
     23      -5.3279      2.00000
     24      -5.3256      2.00000
     25      -5.2070      2.00000
     26      -5.2058      2.00000
     27      -5.1586      2.00000
     28      -5.1574      2.00000
     29      -4.2283      2.00000
     30      -4.2264      2.00000
     31      -4.1768      2.00000
     32      -4.1747      2.00000
     33      -3.1745      2.00000
     34      -3.1728      2.00000
     35      -3.1413      2.00000
     36      -3.1395      2.00000
     37      -2.4702      2.00000
     38      -2.4694      2.00000
     39      -2.1432      2.00000
     40      -2.1399      2.00000
     41      -2.1113      2.00000
     42      -2.1070      2.00000
     43      -1.6281      2.00000
     44      -1.6257      2.00000
     45      -1.6011      2.00000
     46      -1.5990      2.00000
     47      -1.4458      2.00000
     48      -1.4447      2.00000
     49      -1.3303      2.00000
     50      -1.3293      2.00000
     51      -0.7431      2.00000
     52      -0.7383      2.00000
     53      -0.7217      2.00000
     54      -0.7185      2.00000
     55      -0.3658      2.00000
     56      -0.3649      2.00000
     57      -0.2223      2.00000
     58      -0.2212      2.00000
     59       0.6742      2.00000
     60       0.6754      2.00000
     61       2.6513      2.00000
     62       2.6535      2.00000
     63       3.2080      2.00000
     64       3.2106      2.00000
     65       5.4458      0.00000
     66       5.4490      0.00000
     67       5.7322      0.00000
     68       5.7353      0.00000
     69       8.5462      0.00000
     70       8.5479      0.00000
     71       8.8769      0.00000
     72       8.8789      0.00000
     73      10.0185      0.00000
     74      10.0212      0.00000
     75      10.2601      0.00000
     76      10.2615      0.00000
     77      10.4000      0.00000
     78      10.4018      0.00000
     79      11.4564      0.00000
     80      11.4602      0.00000
     81      12.2519      0.00000
     82      12.2535      0.00000
     83      12.4697      0.00000
     84      12.4718      0.00000

 k-point    76 :       0.5000    0.5000    0.5000
  band No.  band energies     occupation 
      1     -13.8161      2.00000
      2     -13.8136      2.00000
      3     -13.8136      2.00000
      4     -13.8107      2.00000
      5     -13.6832      2.00000
      6     -13.6807      2.00000
      7     -13.6807      2.00000
      8     -13.6777      2.00000
      9     -10.9764      2.00000
     10     -10.9748      2.00000
     11     -10.9748      2.00000
     12     -10.9731      2.00000
     13     -10.8703      2.00000
     14     -10.8687      2.00000
     15     -10.8687      2.00000
     16     -10.8669      2.00000
     17      -6.2436      2.00000
     18      -6.2393      2.00000
     19      -6.2391      2.00000
     20      -6.2391      2.00000
     21      -6.2077      2.00000
     22      -6.2042      2.00000
     23      -6.2041      2.00000
     24      -6.2041      2.00000
     25      -4.6537      2.00000
     26      -4.6537      2.00000
     27      -4.6524      2.00000
     28      -4.6503      2.00000
     29      -4.6275      2.00000
     30      -4.6275      2.00000
     31      -4.6261      2.00000
     32      -4.6229      2.00000
     33      -3.1458      2.00000
     34      -3.1454      2.00000
     35      -3.1454      2.00000
     36      -3.1405      2.00000
     37      -3.0998      2.00000
     38      -3.0994      2.00000
     39      -3.0994      2.00000
     40      -3.0931      2.00000
     41      -2.0887      2.00000
     42      -2.0863      2.00000
     43      -2.0862      2.00000
     44      -2.0840      2.00000
     45      -1.0838      2.00000
     46      -1.0810      2.00000
     47      -1.0809      2.00000
     48      -1.0786      2.00000
     49      -0.7419      2.00000
     50      -0.7318      2.00000
     51      -0.7318      2.00000
     52      -0.7303      2.00000
     53      -0.7157      2.00000
     54      -0.7105      2.00000
     55      -0.7105      2.00000
     56      -0.7087      2.00000
     57       1.1679      2.00000
     58       1.1689      2.00000
     59       1.1690      2.00000
     60       1.1721      2.00000
     61       1.9549      2.00000
     62       1.9559      2.00000
     63       1.9560      2.00000
     64       1.9597      2.00000
     65       6.9366      0.00000
     66       6.9411      0.00000
     67       6.9412      0.00000
     68       6.9419      0.00000
     69       7.2495      0.00000
     70       7.2543      0.00000
     71       7.2545      0.00000
     72       7.2552      0.00000
     73      10.6131      0.00000
     74      10.6171      0.00000
     75      10.6175      0.00000
     76      10.6211      0.00000
     77      11.3850      0.00000
     78      11.3891      0.00000
     79      11.3895      0.00000
     80      11.3963      0.00000
     81      11.6702      0.00000
     82      11.6720      0.00000
     83      11.6727      0.00000
     84      11.6775      0.00000


--------------------------------------------------------------------------------------------------------


 soft charge-density along one line, spin component           1
         0         1         2         3         4         5         6         7         8         9
 total charge-density along one line
 
 pseudopotential strength for first ion, spin component:           1
  9.798   0.006  -0.000   0.000  -0.000   0.000  -0.000   0.000
  0.006  -0.002   0.000  -0.000  -0.000   0.000  -0.000   0.000
 -0.000   0.000  -3.966  -0.000  -0.000  -0.015  -0.000  -0.000
  0.000  -0.000  -0.000  -3.960   0.000  -0.000  -0.012   0.000
 -0.000  -0.000  -0.000   0.000  -3.966  -0.000   0.000  -0.015
  0.000   0.000  -0.015  -0.000  -0.000  -0.764  -0.000  -0.000
 -0.000  -0.000  -0.000  -0.012   0.000  -0.000  -0.764   0.000
  0.000   0.000  -0.000   0.000  -0.015  -0.000   0.000  -0.764
 total augmentation occupancy for first ion, spin component:           1
  1.469  -1.109   0.000  -0.001  -0.003   0.000   0.001  -0.001
 -1.109   1.040  -0.000  -0.007   0.003  -0.000  -0.002   0.001
  0.000  -0.000   1.224  -0.000   0.003   0.225   0.000   0.001
 -0.001  -0.007  -0.000   0.929  -0.000   0.000   0.103  -0.000
 -0.003   0.003   0.003  -0.000   1.224   0.001  -0.000   0.225
  0.000  -0.000   0.225   0.000   0.001   0.047   0.000   0.000
  0.001  -0.002   0.000   0.103  -0.000   0.000   0.013  -0.000
 -0.001   0.001   0.001  -0.000   0.225   0.000  -0.000   0.047


------------------------ aborting loop because EDIFF is reached ----------------------------------------


    CHARGE:  cpu time    5.61: real time    5.61
    FORLOC:  cpu time    0.11: real time    0.11
    FORNL :  cpu time   37.80: real time   37.83
    STRESS:  cpu time   71.30: real time   71.35
    FORHAR:  cpu time    0.35: real time    0.35
    MIXING:  cpu time    0.09: real time    0.09
    OFIELD:  cpu time    0.00: real time    0.00

 ---------------------------------------------------------------------------------------------

         DFTD3 V3.0 Rev 1        
 IVDW         = 12
 DF pbe       
 parameters
 VDW_S6       =    1.0000
 VDW_S8       =    0.7875
 VDW_A1       =    0.4289
 VDW_A2       =    4.4407
 k1-k3        =   16.0000    1.3333   -4.0000
 VDW_RADIUS   =   50.2022 A
 VDW_CNRADIUS =   21.1671 A
 Edisp (eV)   -4.73048

 E6    (eV) :    -3.3982
 E8    (eV) :    -1.3322
 % E8        : 28.16
    FORVDW:  cpu time    0.29: real time    0.30

  FORCE on cell =-STRESS in cart. coord.  units (eV):
  Direction    XX          YY          ZZ          XY          YZ          ZX
  --------------------------------------------------------------------------------------
  Alpha Z   281.74243   281.74243   281.74243
  Ewald     851.98722   851.51655 -5154.73826     0.31662     0.00059    -0.00897
  Hartree  1454.44457  1454.46278 -1273.86934     0.11876     0.00029    -0.00223
  E(xc)    -467.34458  -467.35108  -484.98302    -0.00271     0.00005    -0.00012
  Local   -3916.80254 -3916.46431  4547.77032    -0.40181    -0.00004     0.00748
  n-local  -112.48836  -112.60192  -102.57767    -0.09398     0.00077    -0.00168
  augment   -12.37340   -12.37247   -11.33919    -0.00031    -0.00001     0.00006
  Kinetic  1921.46443  1922.21549  2200.95534     0.51638    -0.01110     0.02510
  Fock        0.00000     0.00000     0.00000     0.00000     0.00000     0.00000
  vdW        -0.80037    -0.79116    -5.69364     0.00766    -0.00000    -0.00001
  -------------------------------------------------------------------------------------
  Total      -0.17061     0.35632    -2.73303     0.46060    -0.00945     0.01963
  in kB      -0.92301     1.92774   -14.78618     2.49192    -0.05112     0.10618
  external pressure =       -4.59 kB  Pullay stress =        0.00 kB


 VOLUME and BASIS-vectors are now :
 -----------------------------------------------------------------------------
  energy-cutoff  :      600.00
  volume of cell :      296.14
      direct lattice vectors                 reciprocal lattice vectors
     4.932874498 -0.001919286  0.000000000     0.202767147  0.117172881  0.000000000
    -2.468099399  4.271034986  0.000000000     0.000091118  0.234187941  0.000000000
     0.000000000  0.000000000 14.059311544     0.000000000  0.000000000  0.071127238

  length of vectors
     4.932874871  4.932874871 14.059311544     0.234187958  0.234187958  0.071127238


 FORCES acting on ions
    electron-ion (+dipol)            ewald-force                    non-local-force                 convergence-correction
 -----------------------------------------------------------------------------------------------
   -.846E+00 0.651E-01 0.185E+01   0.942E+00 -.594E-01 -.190E+01   0.825E-01 0.316E-02 0.175E+00   0.213E-08 0.763E-09 0.572E-07
   0.661E-01 0.670E-01 -.392E+00   -.102E+00 -.621E-01 0.374E+00   -.254E-01 0.307E-02 0.218E-01   -.211E-09 0.572E-09 0.565E-07
   -.101E+00 -.295E-01 -.392E+00   0.894E-01 0.483E-01 0.374E+00   -.152E-01 0.891E-02 0.218E-01   0.119E-08 0.150E-08 0.564E-07
   -.101E+00 0.164E+00 -.393E+00   0.897E-01 -.173E+00 0.375E+00   -.151E-01 -.299E-02 0.220E-01   0.849E-09 0.213E-10 0.564E-07
   -.114E+00 0.679E-01 0.921E-01   0.108E+00 -.622E-01 -.926E-01   -.435E-02 0.326E-02 -.251E-02   -.382E-08 0.542E-09 -.565E-07
   -.114E+00 0.679E-01 0.917E-01   0.108E+00 -.622E-01 -.921E-01   -.434E-02 0.326E-02 -.252E-02   -.356E-08 0.563E-09 -.565E-07
   -.114E+00 0.679E-01 0.917E-01   0.108E+00 -.621E-01 -.921E-01   -.434E-02 0.326E-02 -.252E-02   -.361E-08 0.499E-09 -.566E-07
   -.114E+00 0.680E-01 0.917E-01   0.108E+00 -.622E-01 -.921E-01   -.434E-02 0.327E-02 -.252E-02   -.380E-08 0.599E-09 -.565E-07
   0.118E+00 -.678E-01 0.819E-01   -.108E+00 0.590E-01 -.815E-01   0.571E-02 -.409E-02 0.261E-02   -.253E-08 0.216E-08 0.112E-07
   0.118E+00 -.738E-01 0.817E-01   -.108E+00 0.652E-01 -.814E-01   0.580E-02 -.421E-02 0.280E-02   -.395E-08 0.294E-08 0.113E-07
   0.123E+00 -.709E-01 0.817E-01   -.113E+00 0.622E-01 -.813E-01   0.586E-02 -.423E-02 0.270E-02   -.392E-08 0.348E-08 0.111E-07
   0.112E+00 -.709E-01 0.127E+00   -.102E+00 0.622E-01 -.126E+00   0.568E-02 -.418E-02 0.241E-02   -.255E-08 0.264E-08 0.112E-07
   0.117E+00 -.618E-01 0.816E-01   -.108E+00 0.589E-01 -.813E-01   0.539E-02 -.227E-02 0.266E-02   0.113E-08 -.773E-09 -.931E-08
   0.117E+00 -.682E-01 0.818E-01   -.108E+00 0.655E-01 -.813E-01   0.528E-02 -.238E-02 0.247E-02   0.113E-08 -.343E-09 -.931E-08
   0.122E+00 -.649E-01 0.817E-01   -.113E+00 0.621E-01 -.813E-01   0.544E-02 -.224E-02 0.257E-02   0.882E-09 -.106E-08 -.925E-08
   0.110E+00 -.648E-01 0.127E+00   -.101E+00 0.621E-01 -.127E+00   0.526E-02 -.230E-02 0.241E-02   0.142E-08 -.980E-09 -.941E-08
   0.198E+00 -.666E-01 -.329E+00   -.181E+00 0.622E-01 0.327E+00   0.682E-02 -.274E-02 -.992E-02   -.170E-08 -.582E-09 0.561E-07
   -.101E+00 -.597E-01 -.854E+00   0.116E+00 0.544E-01 0.887E+00   -.171E-01 -.239E-02 -.801E-01   -.367E-09 -.313E-09 0.562E-07
   0.435E+00 0.243E+00 -.858E+00   -.471E+00 -.278E+00 0.891E+00   -.981E-02 0.147E-02 -.804E-01   -.111E-08 -.106E-08 0.562E-07
   0.445E+00 -.381E+00 -.850E+00   -.482E+00 0.406E+00 0.882E+00   -.877E-02 -.749E-02 -.797E-01   -.720E-09 -.412E-09 0.562E-07
   0.112E+00 -.670E-01 0.917E-01   -.107E+00 0.620E-01 -.921E-01   0.373E-02 -.287E-02 0.756E-03   0.374E-08 -.376E-09 -.567E-07
   0.112E+00 -.670E-01 0.920E-01   -.107E+00 0.620E-01 -.923E-01   0.373E-02 -.287E-02 0.753E-03   0.360E-08 -.292E-09 -.567E-07
   0.112E+00 -.670E-01 0.920E-01   -.107E+00 0.620E-01 -.923E-01   0.373E-02 -.287E-02 0.751E-03   0.365E-08 -.683E-09 -.566E-07
   0.112E+00 -.670E-01 0.920E-01   -.107E+00 0.620E-01 -.923E-01   0.373E-02 -.287E-02 0.751E-03   0.381E-08 -.789E-09 -.565E-07
   -.133E+00 0.777E-01 0.919E-01   0.123E+00 -.696E-01 -.915E-01   -.539E-02 0.383E-02 -.103E-02   0.203E-08 -.197E-08 0.113E-07
   -.101E+00 0.809E-01 0.103E+00   0.910E-01 -.730E-01 -.103E+00   -.544E-02 0.392E-02 -.762E-03   0.420E-08 -.277E-08 0.113E-07
   -.120E+00 0.516E-01 0.972E-01   0.110E+00 -.434E-01 -.970E-01   -.549E-02 0.391E-02 -.904E-03   0.379E-08 -.350E-08 0.113E-07
   -.115E+00 0.701E-01 0.775E-01   0.105E+00 -.621E-01 -.771E-01   -.531E-02 0.389E-02 -.594E-03   0.248E-08 -.226E-08 0.113E-07
   -.983E-01 0.529E-01 0.103E+00   0.909E-01 -.507E-01 -.103E+00   -.458E-02 0.191E-02 -.857E-03   -.121E-08 0.663E-09 -.943E-08
   -.131E+00 0.565E-01 0.916E-01   0.124E+00 -.544E-01 -.912E-01   -.456E-02 0.200E-02 -.110E-02   -.155E-08 0.622E-09 -.930E-08
   -.118E+00 0.827E-01 0.972E-01   0.110E+00 -.808E-01 -.970E-01   -.464E-02 0.193E-02 -.946E-03   -.127E-08 0.112E-08 -.935E-08
   -.112E+00 0.640E-01 0.774E-01   0.105E+00 -.620E-01 -.770E-01   -.447E-02 0.195E-02 -.654E-03   -.144E-08 0.990E-09 -.927E-08
 -----------------------------------------------------------------------------------------------
   -.428E-04 0.845E-05 0.315E-02   -.237E-13 0.202E-13 0.171E-12   0.539E-04 0.207E-06 -.309E-02   -.131E-08 0.154E-08 0.138E-07
 
 
 POSITION                                       TOTAL-FORCE (eV/Angst)
 -----------------------------------------------------------------------------------
      2.46071      0.00044      1.74798         0.179343      0.008855      0.132650
      4.93046     -0.00052      1.75741        -0.062089      0.008018      0.004316
      1.22997      2.13595      1.75741        -0.026985      0.028284      0.004386
      3.69641      2.13499      1.75741        -0.027093     -0.012289      0.004332
      2.46402      0.00044      8.78707        -0.010307      0.009070     -0.002982
      4.93046     -0.00052      8.78707        -0.010328      0.009070     -0.002998
      1.22997      2.13595      8.78707        -0.010320      0.009073     -0.002998
      3.69641      2.13499      8.78707        -0.010320      0.009065     -0.002998
     -1.23163      2.13412      5.27224         0.016167     -0.012904      0.003081
      1.23481      2.13316      5.27224         0.016273     -0.012831      0.003116
     -2.46568      4.26964      5.27224         0.016159     -0.012960      0.003096
      0.00076      4.26868      5.27224         0.016280     -0.012889      0.002710
     -1.23163      2.13412     12.30190         0.014353     -0.005171      0.003045
      1.23481      2.13316     12.30190         0.014241     -0.005107      0.003004
     -2.46568      4.26964     12.30190         0.014242     -0.005031      0.003025
      0.00076      4.26868     12.30190         0.014350     -0.005082      0.002767
     -0.00332      1.42496      1.75741         0.024245     -0.007268     -0.011926
      2.46311      1.42400      1.75741        -0.001894     -0.007739     -0.047583
     -1.23737      3.56047      1.75741        -0.046024     -0.032691     -0.047202
      1.22906      3.55952      1.75741        -0.045650      0.017969     -0.047885
     -0.00332      1.42496      8.78707         0.008446     -0.007878      0.000427
      2.46311      1.42400      8.78707         0.008446     -0.007879      0.000420
     -1.23737      3.56047      8.78707         0.008445     -0.007879      0.000418
      1.22906      3.55952      8.78707         0.008444     -0.007877      0.000418
      1.23571      0.70960      5.27224        -0.015020      0.011959     -0.000680
      3.70215      0.70864      5.27224        -0.015290      0.011893     -0.000701
      0.00166      2.84512      5.27224        -0.015096      0.012150     -0.000698
      2.46810      2.84416      5.27224        -0.015220      0.012003     -0.000237
      1.23571      0.70960     12.30190        -0.012124      0.004155     -0.000730
      3.70215      0.70864     12.30190        -0.011773      0.004086     -0.000681
      0.00166      2.84512     12.30190        -0.011889      0.003806     -0.000676
      2.46810      2.84416     12.30190        -0.012012      0.004017     -0.000236
 -----------------------------------------------------------------------------------
    total drift:                                0.000011      0.000009      0.000054


--------------------------------------------------------------------------------------------------------



  FREE ENERGIE OF THE ION-ELECTRON SYSTEM (eV)
  ---------------------------------------------------
  free  energy   TOTEN  =      -299.57395185 eV

  energy  without entropy=     -299.57395185  energy(sigma->0) =     -299.57395185
 


--------------------------------------------------------------------------------------------------------


    POTLOK:  cpu time    1.31: real time    1.32


--------------------------------------------------------------------------------------------------------


     LOOP+:  cpu time11258.08: real time11265.23
    4ORBIT:  cpu time    0.00: real time    0.00
 BZINTS: Fermi energy:  4.278644;128.000000 electrons
         Band energy:-618.645744;  BLOECHL correction: -0.000000

 total amount of memory used by VASP on root node   284929. kBytes
========================================================================

   base      :      30000. kBytes
   nonl-proj :      53286. kBytes
   fftplans  :       9104. kBytes
   grid      :      19307. kBytes
   one-center:         98. kBytes
   wavefun   :     173134. kBytes
 
  
  
 General timing and accounting informations for this job:
 ========================================================
  
                  Total CPU time used (sec):    11351.974
                            User time (sec):     5843.951
                          System time (sec):     5508.023
                         Elapsed time (sec):    11359.369
  
                   Maximum memory used (kb):      370552.
                   Average memory used (kb):           0.
  
                          Minor page faults:     51659671
                          Major page faults:            1
                 Voluntary context switches:         1281
