    4    4  200    1
  0.1009960E+02  0.2466143E-09  0.2466143E-09  0.7659506E-09  0.5000000E-15
  1.000000000000000E-004
  CAR 
 graphite                                
     16    455     12
 
  0.0000000E+00  0.0000000E+00  0.0000000E+00  0.3858025E-03
    1      -15.956054
    2      -15.856526
    3       -4.468447
    4       -3.518747
    5        0.546703
    6        0.550927
    7        0.569977
    8        0.574200
    9        7.060440
   10       11.489268
   11       11.910863
   12       11.925618
 
  0.5555556E-01  0.3469447E-17  0.0000000E+00  0.1543210E-02
    1      -15.883042
    2      -15.784069
    3       -4.380258
    4       -3.433849
    5        0.252678
    6        0.258869
    7        0.408623
    8        0.414231
    9        7.153098
   10       11.570679
   11       11.916118
   12       11.937097
 
  0.1111111E+00  0.6938894E-17  0.0000000E+00  0.1543210E-02
    1      -15.664283
    2      -15.566933
    3       -4.116482
    4       -3.179920
    5       -0.568511
    6       -0.557492
    7       -0.005803
    8        0.002152
    9        7.431464
   10       11.811315
   11       11.949423
   12       11.996211
 
  0.1666667E+00 -0.1387779E-16  0.0000000E+00  0.1543210E-02
    1      -15.300926
    2      -15.206159
    3       -3.679923
    4       -2.760678
    5       -1.746761
    6       -1.729278
    7       -0.562900
    8       -0.552840
    9        7.895663
   10       11.877649
   11       11.953668
   12       12.176822
 
  0.2222222E+00  0.1387779E-16  0.0000000E+00  0.1543210E-02
    1      -14.794889
    2      -14.703599
    3       -3.124098
    4       -3.099616
    5       -3.076338
    6       -2.183093
    7       -1.154590
    8       -1.143145
    9        8.544316
   10       11.424154
   11       11.618817
   12       11.697508
 
  0.2777778E+00  0.0000000E+00  0.0000000E+00  0.1543210E-02
    1      -14.149397
    2      -14.062411
    3       -4.586376
    4       -4.554310
    5       -2.316165
    6       -1.705630
    7       -1.693171
    8       -1.460596
    9        9.373438
   10        9.880064
   11       10.182633
   12       11.469272
 
  0.3333333E+00 -0.2775558E-16  0.0000000E+00  0.1543210E-02
    1      -13.369473
    2      -13.287913
    3       -6.056378
    4       -6.016937
    5       -2.168802
    6       -2.155489
    7       -1.419546
    8       -0.619757
    9        8.291938
   10        8.688736
   11       10.367308
   12       11.250512
 
  0.3888889E+00  0.2775558E-16  0.0000000E+00  0.1543210E-02
    1      -12.465220
    2      -12.389679
    3       -7.479092
    4       -7.432734
    5       -2.515311
    6       -2.501558
    7       -0.430873
    8        0.277630
    9        6.791798
   10        7.253764
   11       11.043739
   12       11.149777
 
  0.4444444E+00  0.2775558E-16  0.0000000E+00  0.1543210E-02
    1      -11.466748
    2      -11.400326
    3       -8.795392
    4       -8.744413
    5       -2.728820
    6       -2.714923
    7        0.528269
    8        1.060478
    9        5.592863
   10        6.047171
   11       10.945103
   12       11.079133
 
  0.5000000E+00  0.0000000E+00  0.0000000E+00  0.7716049E-03
    1      -10.706354
    2      -10.671418
    3       -9.636557
    4       -9.608992
    5       -2.800783
    6       -2.787085
    7        1.046868
    8        1.359371
    9        5.107994
   10        5.487786
   11       10.907029
   12       11.045817
 
  0.5555556E-01  0.5555556E-01  0.0000000E+00  0.7716049E-03
    1      -15.737488
    2      -15.639606
    3       -4.204656
    4       -3.264811
    5       -0.279380
    6       -0.273120
    7        0.097180
    8        0.102125
    9        7.338207
   10       11.731757
   11       12.013186
   12       12.051080
 
  0.1111111E+00  0.5555556E-01  0.0000000E+00  0.1543210E-02
    1      -15.446725
    2      -15.350918
    3       -3.854746
    4       -2.928479
    5       -1.222639
    6       -1.211116
    7       -0.446554
    8       -0.438767
    9        7.709471
   10       12.046128
   11       12.128652
   12       12.191269
 
  0.1666667E+00  0.5555556E-01  0.0000000E+00  0.1543210E-02
    1      -15.012361
    2      -14.919574
    3       -3.334804
    4       -2.457419
    5       -2.438216
    6       -2.430023
    7       -1.066496
    8       -1.055637
    9        8.266287
   10       12.030533
   11       12.077237
   12       12.167774
 
  0.2222222E+00  0.5555556E-01  0.0000000E+00  0.1543210E-02
    1      -14.436893
    2      -14.348019
    3       -3.851175
    4       -3.823946
    5       -2.652365
    6       -1.778995
    7       -1.665423
    8       -1.652383
    9        9.006273
   10       10.590189
   11       10.828089
   12       11.898987
 
  0.2777778E+00  0.5555556E-01  0.0000000E+00  0.1543210E-02
    1      -13.724296
    2      -13.640265
    3       -5.302578
    4       -5.267409
    5       -2.187541
    6       -2.173074
    7       -1.821727
    8       -0.993842
    9        9.038192
   10        9.373050
   11        9.923686
   12       11.679996
 
  0.3333333E+00  0.5555556E-01  0.0000000E+00  0.1543210E-02
    1      -12.881929
    2      -12.803546
    3       -6.741543
    4       -6.699152
    5       -2.599864
    6       -2.584543
    7       -0.871720
    8       -0.113429
    9        7.497440
   10        7.915537
   11       10.986214
   12       11.485637
 
  0.3888889E+00  0.5555556E-01  0.0000000E+00  0.1543210E-02
    1      -11.925223
    2      -11.854079
    3       -8.113228
    4       -8.064279
    5       -2.882943
    6       -2.867219
    7        0.127322
    8        0.762485
    9        6.122585
   10        6.578622
   11       11.316077
   12       11.445528
 
  0.4444444E+00  0.5555556E-01  0.0000000E+00  0.1543210E-02
    1      -10.935186
    2      -10.879121
    3       -9.307519
    4       -9.260790
    5       -3.026305
    6       -3.010338
    7        0.957645
    8        1.355087
    9        5.224673
   10        5.617879
   11       11.241945
   12       11.386104
 
  0.5000000E+00  0.5555556E-01  0.0000000E+00  0.1543210E-02
    1      -10.930927
    2      -10.875029
    3       -9.312394
    4       -9.265804
    5       -3.024988
    6       -3.009033
    7        0.960057
    8        1.356346
    9        5.222796
   10        5.615706
   11       11.240799
   12       11.384978
 
 -0.4444444E+00  0.5555556E-01  0.0000000E+00  0.1543210E-02
    1      -11.920507
    2      -11.849384
    3       -8.120149
    4       -8.071341
    5       -2.879036
    6       -2.863330
    7        0.131505
    8        0.765932
    9        6.118174
   10        6.574531
   11       11.312911
   12       11.442638
 
 -0.3888889E+00  0.5555556E-01  0.0000000E+00  0.1543210E-02
    1      -12.877769
    2      -12.799404
    3       -6.749307
    4       -6.706996
    5       -2.593475
    6       -2.578206
    7       -0.867427
    8       -0.109497
    9        7.492500
   10        7.911443
   11       10.992181
   12       11.480083
 
 -0.3333333E+00  0.5555556E-01  0.0000000E+00  0.1543210E-02
    1      -13.720835
    2      -13.636770
    3       -5.311123
    4       -5.275854
    5       -2.179126
    6       -2.164796
    7       -1.817827
    8       -0.990168
    9        9.033860
   10        9.369898
   11        9.928800
   12       11.673089
 
 -0.2777778E+00  0.5555556E-01  0.0000000E+00  0.1543210E-02
    1      -14.434045
    2      -14.345183
    3       -3.859643
    4       -3.832383
    5       -2.649054
    6       -1.775800
    7       -1.656032
    8       -1.643019
    9        9.010424
   10       10.587242
   11       10.826375
   12       11.891991
 
 -0.2222222E+00  0.5555556E-01  0.0000000E+00  0.1543210E-02
    1      -15.010144
    2      -14.917379
    3       -3.332164
    4       -2.464327
    5       -2.445024
    6       -2.427456
    7       -1.058103
    8       -1.047197
    9        8.269544
   10       12.029085
   11       12.073926
   12       12.163148
 
 -0.1666667E+00  0.5555556E-01  0.0000000E+00  0.1543210E-02
    1      -15.445150
    2      -15.349349
    3       -3.852834
    4       -2.926613
    5       -1.223991
    6       -1.212228
    7       -0.443967
    8       -0.436073
    9        7.711840
   10       12.047762
   11       12.134102
   12       12.196155
 
 -0.1111111E+00  0.5555556E-01  0.0000000E+00  0.1543210E-02
    1      -15.736523
    2      -15.638660
    3       -4.203500
    4       -3.263677
    5       -0.267834
    6       -0.261403
    7        0.086416
    8        0.091356
    9        7.339661
   10       11.732986
   11       12.031925
   12       12.069484
 
 -0.5555556E-01  0.5555556E-01  0.0000000E+00  0.7716049E-03
    1      -15.882727
    2      -15.783755
    3       -4.379872
    4       -3.433470
    5        0.272739
    6        0.278889
    7        0.388743
    8        0.394377
    9        7.153587
   10       11.571107
   11       11.935417
   12       11.959291
 
  0.1111111E+00  0.1111111E+00  0.0000000E+00  0.7716049E-03
    1      -15.084991
    2      -14.991683
    3       -3.421216
    4       -2.512674
    5       -2.117110
    6       -2.106841
    7       -1.154194
    8       -1.147034
    9        8.174029
   10       12.272782
   11       12.414087
   12       12.433971
 
  0.1666667E+00  0.1111111E+00  0.0000000E+00  0.1543210E-02
    1      -14.581207
    2      -14.491336
    3       -3.254310
    4       -3.236563
    5       -2.821533
    6       -1.939600
    7       -1.896580
    8       -1.885222
    9        8.823448
   10       11.026488
   11       11.202433
   12       12.746489
 
  0.2222222E+00  0.1111111E+00  0.0000000E+00  0.1543210E-02
    1      -13.938614
    2      -13.853124
    3       -4.570475
    4       -4.542696
    5       -2.536391
    6       -2.520475
    7       -2.065938
    8       -1.221897
    9        9.614815
   10        9.654232
   11        9.860712
   12       12.658451
 
  0.2777778E+00  0.1111111E+00  0.0000000E+00  0.1543210E-02
    1      -13.162806
    2      -13.082616
    3       -5.957761
    4       -5.921211
    5       -3.043040
    6       -3.024469
    7       -1.173652
    8       -0.384842
    9        8.135251
   10        8.466195
   11       10.659690
   12       12.467200
 
  0.3333333E+00  0.1111111E+00  0.0000000E+00  0.1543210E-02
    1      -12.264487
    2      -12.190478
    3       -7.332809
    4       -7.288620
    5       -3.409499
    6       -3.389390
    7       -0.186843
    8        0.513713
    9        6.707633
   10        7.106466
   11       11.810692
   12       12.300924
 
  0.3888889E+00  0.1111111E+00  0.0000000E+00  0.1543210E-02
    1      -11.274222
    2      -11.209126
    3       -8.621244
    4       -8.572042
    5       -3.630800
    6       -3.609847
    7        0.779059
    8        1.310341
    9        5.540897
   10        5.934529
   11       12.165911
   12       12.327935
 
  0.4444444E+00  0.1111111E+00  0.0000000E+00  0.1543210E-02
    1      -10.518203
    2      -10.484086
    3       -9.453479
    4       -9.427185
    5       -3.703310
    6       -3.682135
    7        1.313644
    8        1.623433
    9        5.063280
   10        5.366129
   11       12.126983
   12       12.298896
 
  0.5000000E+00  0.1111111E+00  0.0000000E+00  0.1543210E-02
    1      -11.264439
    2      -11.199539
    3       -8.633902
    4       -8.584758
    5       -3.626033
    6       -3.605107
    7        0.786503
    8        1.315717
    9        5.534130
   10        5.927748
   11       12.162385
   12       12.324850
 
 -0.4444444E+00  0.1111111E+00  0.0000000E+00  0.1543210E-02
    1      -12.255555
    2      -12.181494
    3       -7.347738
    4       -7.303549
    5       -3.400258
    6       -3.380164
    7       -0.178110
    8        0.521472
    9        6.698377
   10        7.098642
   11       11.823895
   12       12.293106
 
 -0.3888889E+00  0.1111111E+00  0.0000000E+00  0.1543210E-02
    1      -13.155150
    2      -13.074957
    3       -5.973989
    4       -5.937287
    5       -3.029817
    6       -3.011329
    7       -1.165351
    8       -0.377067
    9        8.126651
   10        8.459881
   11       10.670714
   12       12.456628
 
 -0.3333333E+00  0.1111111E+00  0.0000000E+00  0.1543210E-02
    1      -13.932232
    2      -13.846772
    3       -4.586526
    4       -4.558722
    5       -2.521148
    6       -2.505292
    7       -2.058664
    8       -1.214874
    9        9.608808
   10        9.663280
   11        9.857316
   12       12.641150
 
 -0.2777778E+00  0.1111111E+00  0.0000000E+00  0.1543210E-02
    1      -14.576124
    2      -14.486265
    3       -3.266139
    4       -3.248120
    5       -2.815543
    6       -1.933793
    7       -1.884372
    8       -1.872940
    9        8.830693
   10       11.024544
   11       11.202404
   12       12.741758
 
 -0.2222222E+00  0.1111111E+00  0.0000000E+00  0.1543210E-02
    1      -15.081198
    2      -14.987908
    3       -3.416647
    4       -2.508222
    5       -2.115999
    6       -2.105600
    7       -1.154391
    8       -1.147227
    9        8.179519
   10       12.275422
   11       12.416814
   12       12.533670
 
 -0.1666667E+00  0.1111111E+00  0.0000000E+00  0.1543210E-02
    1      -15.444207
    2      -15.348411
    3       -3.851666
    4       -2.925463
    5       -1.205120
    6       -1.193896
    7       -0.463465
    8       -0.455818
    9        7.713181
   10       12.050128
   11       12.112038
   12       12.174356
 
 -0.1111111E+00  0.1111111E+00  0.0000000E+00  0.7716049E-03
    1      -15.663004
    2      -15.565673
    3       -4.114938
    4       -3.178401
    5       -0.544385
    6       -0.533373
    7       -0.030045
    8       -0.022024
    9        7.433340
   10       11.813314
   11       11.939559
   12       11.986567
 
  0.1666667E+00  0.1666667E+00  0.0000000E+00  0.7716049E-03
    1      -14.010268
    2      -13.924272
    3       -4.166838
    4       -4.151767
    5       -2.818106
    6       -2.807170
    7       -2.147751
    8       -1.298454
    9        9.563783
   10        9.845545
   11       10.037109
   12       13.506992
 
  0.2222222E+00  0.1666667E+00  0.0000000E+00  0.1543210E-02
    1      -13.304231
    2      -13.223073
    3       -5.280082
    4       -5.255756
    5       -3.581470
    6       -3.564420
    7       -1.326799
    8       -0.523500
    9        8.546084
   10        8.779388
   11       10.481905
   12       13.778213
 
  0.2777778E+00  0.1666667E+00  0.0000000E+00  0.1543210E-02
    1      -12.471175
    2      -12.395561
    3       -6.538468
    4       -6.502617
    5       -4.112061
    6       -4.089333
    7       -0.384842
    8        0.351298
    9        7.199380
   10        7.498641
   11       11.568846
   12       13.653821
 
  0.3333333E+00  0.1666667E+00  0.0000000E+00  0.1543210E-02
    1      -11.528189
    2      -11.459663
    3       -7.815345
    4       -7.770798
    5       -4.445501
    6       -4.419871
    7        0.616239
    8        1.239869
    9        5.938311
   10        6.280321
   11       12.801334
   12       13.512197
 
  0.3888889E+00  0.1666667E+00  0.0000000E+00  0.1543210E-02
    1      -10.556285
    2      -10.502670
    3       -8.959422
    4       -8.916172
    5       -4.606837
    6       -4.579630
    7        1.475008
    8        1.872999
    9        5.077373
   10        5.338252
   11       13.412995
   12       13.648402
 
  0.4444444E+00  0.1666667E+00  0.0000000E+00  0.1543210E-02
    1      -10.543416
    2      -10.490224
    3       -8.974216
    4       -8.931558
    5       -4.603675
    6       -4.576495
    7        1.482886
    8        1.877253
    9        5.072018
   10        5.331608
   11       13.411433
   12       13.648039
 
  0.5000000E+00  0.1666667E+00  0.0000000E+00  0.1543210E-02
    1      -11.513938
    2      -11.445481
    3       -7.836457
    4       -7.791925
    5       -4.436236
    6       -4.410676
    7        0.629166
    8        1.250803
    9        5.926136
   10        6.269774
   11       12.822968
   12       13.505236
 
 -0.4444444E+00  0.1666667E+00  0.0000000E+00  0.1543210E-02
    1      -12.458645
    2      -12.383195
    3       -6.561712
    4       -6.525633
    5       -4.097829
    6       -4.075154
    7       -0.371785
    8        0.363388
    9        7.187278
   10        7.489767
   11       11.586548
   12       13.643592
 
 -0.3888889E+00  0.1666667E+00  0.0000000E+00  0.1543210E-02
    1      -13.293660
    2      -13.212547
    3       -5.301213
    4       -5.276558
    5       -3.566426
    6       -3.549266
    7       -1.314977
    8       -0.512224
    9        8.537714
   10        8.774567
   11       10.496570
   12       13.765644
 
 -0.3333333E+00  0.1666667E+00  0.0000000E+00  0.1543210E-02
    1      -14.001663
    2      -13.915712
    3       -4.176314
    4       -4.161057
    5       -2.812468
    6       -2.801400
    7       -2.137720
    8       -1.288747
    9        9.575718
   10        9.843445
   11       10.037272
   12       13.510221
 
 -0.2777778E+00  0.1666667E+00  0.0000000E+00  0.1543210E-02
    1      -14.574543
    2      -14.484683
    3       -3.245778
    4       -3.228501
    5       -2.813556
    6       -1.931820
    7       -1.907189
    8       -1.896085
    9        8.832755
   10       11.031382
   11       11.208040
   12       12.688693
 
 -0.2222222E+00  0.1666667E+00  0.0000000E+00  0.1543210E-02
    1      -15.007622
    2      -14.914865
    3       -3.329028
    4       -2.435864
    5       -2.424362
    6       -2.416953
    7       -1.090134
    8       -1.079333
    9        8.272971
   10       12.022889
   11       12.043865
   12       12.113510
 
 -0.1666667E+00  0.1666667E+00  0.0000000E+00  0.7716049E-03
    1      -15.298090
    2      -15.203341
    3       -3.676430
    4       -2.757245
    5       -1.718938
    6       -1.701689
    7       -0.592860
    8       -0.582723
    9        7.899687
   10       11.835349
   11       11.911221
   12       12.185651
 
  0.2222222E+00  0.2222222E+00  0.0000000E+00  0.7716049E-03
    1      -12.540624
    2      -12.464504
    3       -6.072378
    4       -6.052692
    5       -4.548051
    6       -4.533116
    7       -0.452300
    8        0.295156
    9        7.404562
   10        7.638614
   11       11.479937
   12       14.412907
 
  0.2777778E+00  0.2222222E+00  0.0000000E+00  0.1543210E-02
    1      -11.659652
    2      -11.590077
    3       -7.075830
    4       -7.045017
    5       -5.205678
    6       -5.183192
    7        0.523571
    8        1.190530
    9        6.229406
   10        6.495439
   11       12.632379
   12       14.652282
 
  0.3333333E+00  0.2222222E+00  0.0000000E+00  0.1543210E-02
    1      -10.694878
    2      -10.633768
    3       -8.191277
    4       -8.150083
    5       -5.544290
    6       -5.515371
    7        1.510237
    8        2.035266
    9        5.172648
   10        5.437591
   11       13.901041
   12       14.867878
 
  0.3888889E+00  0.2222222E+00  0.0000000E+00  0.1543210E-02
    1       -9.954764
    2       -9.922849
    3       -8.970290
    4       -8.950832
    5       -5.645601
    6       -5.614807
    7        2.107750
    8        2.408831
    9        4.742424
   10        4.799987
   11       14.790622
   12       14.873120
 
  0.4444444E+00  0.2222222E+00  0.0000000E+00  0.1543210E-02
    1      -10.675102
    2      -10.614160
    3       -8.217094
    4       -8.175996
    5       -5.537171
    6       -5.508222
    7        1.526480
    8        2.047905
    9        5.159464
   10        5.425331
   11       13.932392
   12       14.861768
 
  0.5000000E+00  0.2222222E+00  0.0000000E+00  0.1543210E-02
    1      -11.641532
    2      -11.571885
    3       -7.103607
    4       -7.072555
    5       -5.194308
    6       -5.171623
    7        0.541646
    8        1.207025
    9        6.214620
   10        6.484357
   11       12.657815
   12       14.663691
 
 -0.4444444E+00  0.2222222E+00  0.0000000E+00  0.1543210E-02
    1      -12.525126
    2      -12.449062
    3       -6.091173
    4       -6.071232
    5       -4.542521
    6       -4.527325
    7       -0.435385
    8        0.311223
    9        7.394761
   10        7.632020
   11       11.501062
   12       14.425679
 
 -0.3888889E+00  0.2222222E+00  0.0000000E+00  0.1543210E-02
    1      -13.291428
    2      -13.210194
    3       -5.281042
    4       -5.257183
    5       -3.590410
    6       -3.573733
    7       -1.312041
    8       -0.509235
    9        8.544435
   10        8.778478
   11       10.499276
   12       13.689279
 
 -0.3333333E+00  0.2222222E+00  0.0000000E+00  0.1543210E-02
    1      -13.928426
    2      -13.842984
    3       -4.557260
    4       -4.529838
    5       -2.557616
    6       -2.541845
    7       -2.053805
    8       -1.210054
    9        9.621609
   10        9.668047
   11        9.866069
   12       12.565982
 
 -0.2777778E+00  0.2222222E+00  0.0000000E+00  0.1543210E-02
    1      -14.429297
    2      -14.340469
    3       -3.828084
    4       -3.801081
    5       -2.643112
    6       -1.769898
    7       -1.695684
    8       -1.682495
    9        9.016592
   10       10.603539
   11       10.838938
   12       11.820886
 
 -0.2222222E+00  0.2222222E+00  0.0000000E+00  0.7716049E-03
    1      -14.789850
    2      -14.698585
    3       -3.094796
    4       -3.070477
    5       -3.070103
    6       -2.176945
    7       -1.190050
    8       -1.178614
    9        8.551179
   10       11.440563
   11       11.631555
   12       11.654538
 
  0.2777778E+00  0.2777778E+00  0.0000000E+00  0.7716049E-03
    1      -10.749625
    2      -10.687219
    3       -7.697647
    4       -7.673352
    5       -6.078842
    6       -6.061552
    7        1.512087
    8        2.085997
    9        5.229026
   10        5.494631
   11       13.814732
   12       14.528746
 
  0.3333333E+00  0.2777778E+00  0.0000000E+00  0.1543210E-02
    1       -9.815541
    2       -9.766135
    3       -8.512137
    4       -8.481888
    5       -6.507755
    6       -6.484254
    7        2.455828
    8        2.862343
    9        4.364725
   10        4.591547
   11       14.447052
   12       14.709188
 
  0.3888889E+00  0.2777778E+00  0.0000000E+00  0.1543210E-02
    1       -9.791639
    2       -9.742751
    3       -8.538206
    4       -8.508666
    5       -6.504955
    6       -6.481255
    7        2.473469
    8        2.874037
    9        4.352669
   10        4.578281
   11       14.455156
   12       14.700156
 
  0.4444444E+00  0.2777778E+00  0.0000000E+00  0.1543210E-02
    1      -10.724733
    2      -10.662472
    3       -7.724111
    4       -7.699498
    5       -6.077448
    6       -6.059825
    7        1.535550
    8        2.107260
    9        5.211167
   10        5.480622
   11       13.849593
   12       14.538493
 
  0.5000000E+00  0.2777778E+00  0.0000000E+00  0.1543210E-02
    1      -11.638278
    2      -11.568704
    3       -7.086379
    4       -7.055807
    5       -5.216144
    6       -5.193935
    7        0.546203
    8        1.211965
    9        6.217981
   10        6.486110
   11       12.661006
   12       14.887820
 
 -0.4444444E+00  0.2777778E+00  0.0000000E+00  0.1543210E-02
    1      -12.453286
    2      -12.377729
    3       -6.534950
    4       -6.499403
    5       -4.133504
    6       -4.111057
    7       -0.364622
    8        0.370849
    9        7.197217
   10        7.495656
   11       11.592401
   12       13.547823
 
 -0.3888889E+00  0.2777778E+00  0.0000000E+00  0.1543210E-02
    1      -13.148310
    2      -13.068195
    3       -5.943737
    4       -5.907450
    5       -3.072558
    6       -3.053870
    7       -1.156559
    8       -0.368120
    9        8.142173
   10        8.470310
   11       10.678501
   12       12.367396
 
 -0.3333333E+00  0.2777778E+00  0.0000000E+00  0.1543210E-02
    1      -13.713134
    2      -13.629157
    3       -5.280383
    4       -5.245349
    5       -2.223290
    6       -2.208839
    7       -1.808158
    8       -0.980479
    9        9.052376
   10        9.383312
   11        9.937988
   12       11.588992
 
 -0.2777778E+00  0.2777778E+00  0.0000000E+00  0.7716049E-03
    1      -14.141473
    2      -14.054529
    3       -4.557693
    4       -4.525855
    5       -2.306345
    6       -1.745769
    7       -1.733210
    8       -1.450879
    9        9.383635
   10        9.898102
   11       10.196282
   12       11.388031
 
  0.3333333E+00  0.3333333E+00  0.0000000E+00  0.7716049E-03
    1       -9.034986
    2       -9.005709
    3       -8.982625
    4       -8.954697
    5       -6.939410
    6       -6.939349
    7        3.298755
    8        3.576169
    9        3.577197
   10        3.879778
   11       14.363713
   12       14.377233
 
  0.3888889E+00  0.3333333E+00  0.0000000E+00  0.1543210E-02
    1       -9.780378
    2       -9.730875
    3       -8.536757
    4       -8.506388
    5       -6.519105
    6       -6.495856
    7        2.485885
    8        2.888764
    9        4.340856
   10        4.572997
   11       14.453503
   12       14.692230
 
  0.4444444E+00  0.3333333E+00  0.0000000E+00  0.1543210E-02
    1      -10.665365
    2      -10.604162
    3       -8.200319
    4       -8.159221
    5       -5.566495
    6       -5.537738
    7        1.539419
    8        2.062423
    9        5.157864
   10        5.424063
   11       13.937903
   12       14.758495
 
  0.5000000E+00  0.3333333E+00  0.0000000E+00  0.1543210E-02
    1      -11.503765
    2      -11.435254
    3       -7.812752
    4       -7.768325
    5       -4.475247
    6       -4.449764
    7        0.642808
    8        1.265425
    9        5.933657
   10        6.273784
   11       12.829505
   12       13.403008
 
 -0.4444444E+00  0.3333333E+00  0.0000000E+00  0.1543210E-02
    1      -12.244653
    2      -12.170471
    3       -7.320995
    4       -7.276972
    5       -3.445203
    6       -3.424885
    7       -0.163835
    8        0.536255
    9        6.712395
   10        7.107704
   11       11.826866
   12       12.198346
 
 -0.3888889E+00  0.3333333E+00  0.0000000E+00  0.1543210E-02
    1      -12.866341
    2      -12.787987
    3       -6.721963
    4       -6.679785
    5       -2.640246
    6       -2.624823
    7       -0.852863
    8       -0.094803
    9        7.510027
   10        7.923707
   11       10.995531
   12       11.389492
 
 -0.3333333E+00  0.3333333E+00  0.0000000E+00  0.7716049E-03
    1      -13.357914
    2      -13.276164
    3       -6.030107
    4       -5.991028
    5       -2.212605
    6       -2.199190
    7       -1.405177
    8       -0.605441
    9        8.309660
   10        8.701488
   11       10.378736
   12       11.160186
 
  0.3888889E+00  0.3888889E+00  0.0000000E+00  0.7716049E-03
    1       -9.917796
    2       -9.886340
    3       -8.981205
    4       -8.962499
    5       -5.673992
    6       -5.643257
    7        2.137918
    8        2.434342
    9        4.733458
   10        4.782091
   11       14.686318
   12       14.898897
 
  0.4444444E+00  0.3888889E+00  0.0000000E+00  0.1543210E-02
    1      -10.520804
    2      -10.467022
    3       -8.964525
    4       -8.921103
    5       -4.642004
    6       -4.614890
    7        1.507992
    8        1.902105
    9        5.071735
   10        5.326180
   11       13.303784
   12       13.540239
 
  0.5000000E+00  0.3888889E+00  0.0000000E+00  0.1543210E-02
    1      -11.246495
    2      -11.181323
    3       -8.615290
    4       -8.566036
    5       -3.670953
    6       -3.649821
    7        0.809051
    8        1.338922
    9        5.542195
   10        5.930534
   11       12.059964
   12       12.223184
 
 -0.4444444E+00  0.3888889E+00  0.0000000E+00  0.1543210E-02
    1      -11.903644
    2      -11.832374
    3       -8.098602
    4       -8.049828
    5       -2.926874
    6       -2.911011
    7        0.152741
    8        0.787595
    9        6.131258
   10        6.582257
   11       11.215296
   12       11.346790
 
 -0.3888889E+00  0.3888889E+00  0.0000000E+00  0.7716049E-03
    1      -12.448911
    2      -12.373371
    3       -7.457404
    4       -7.411163
    5       -2.561719
    6       -2.547878
    7       -0.410706
    8        0.297882
    9        6.806424
   10        7.263257
   11       10.951465
   12       11.061795
 
  0.4444444E+00  0.4444444E+00  0.0000000E+00  0.7716049E-03
    1      -10.478703
    2      -10.445021
    3       -9.457019
    4       -9.431322
    5       -3.746548
    6       -3.725254
    7        1.347221
    8        1.652231
    9        5.066130
   10        5.358564
   11       12.021184
   12       12.192584
 
  0.5000000E+00  0.4444444E+00  0.0000000E+00  0.1543210E-02
    1      -10.902152
    2      -10.845817
    3       -9.303845
    4       -9.256807
    5       -3.072646
    6       -3.056535
    7        0.990616
    8        1.385074
    9        5.230163
   10        5.614651
   11       11.139164
   12       11.283320
 
 -0.4444444E+00  0.4444444E+00  0.0000000E+00  0.7716049E-03
    1      -11.442960
    2      -11.376401
    3       -8.781290
    4       -8.730052
    5       -2.776753
    6       -2.762982
    7        0.556041
    8        1.087776
    9        5.602277
   10        6.050151
   11       10.845109
   12       10.979499
 
  0.5000000E+00  0.5000000E+00  0.0000000E+00  0.3858025E-03
    1      -10.665955
    2      -10.631515
    3       -9.638340
    4       -9.611381
    5       -2.849281
    6       -2.835456
    7        1.081571
    8        1.389256
    9        5.115243
   10        5.484338
   11       10.805846
   12       10.944611
 