graphite                                
           1
     2.466141    0.002940    0.000000
    -1.230525    2.137211    0.000000
     0.000000    0.000000    7.659506
   C 
   4
Direct configuration=     1
   0.99981862  0.00018142  0.25000000
   0.00018142  0.99981862  0.75000000
   0.33262049  0.66737949  0.25000000
   0.66737949  0.33262049  0.75000000
Direct configuration=     2
   0.99839608  0.00160397  0.25000000
   0.00160397  0.99839608  0.75000000
   0.33402395  0.66597603  0.25000000
   0.66597603  0.33402395  0.75000000
Direct configuration=     3
   0.99950914  0.00049091  0.25000000
   0.00049091  0.99950914  0.75000000
   0.33292583  0.66707416  0.25000000
   0.66707416  0.33292583  0.75000000
