  32  32   0   0
  0.8381369E+01  0.4932875E-09  0.4932875E-09  0.1273296E-08  0.5000000E-15
  1.000000000000000E-004
  CAR 
 graphite                                
     16.75349632    -16.54604387  301      5.13551222      1.00000000
    -16.546  0.0000E+00  0.0000E+00
    -16.435  0.0000E+00  0.0000E+00
    -16.324  0.0000E+00  0.0000E+00
    -16.213  0.0000E+00  0.0000E+00
    -16.102  0.0000E+00  0.0000E+00
    -15.991  0.0000E+00  0.0000E+00
    -15.880  0.0000E+00  0.0000E+00
    -15.769  0.0000E+00  0.0000E+00
    -15.658  0.0000E+00  0.0000E+00
    -15.547  0.0000E+00  0.0000E+00
    -15.436  0.0000E+00  0.0000E+00
    -15.325  0.0000E+00  0.0000E+00
    -15.214  0.0000E+00  0.0000E+00
    -15.103  0.0000E+00  0.0000E+00
    -14.992  0.0000E+00  0.0000E+00
    -14.881  0.0000E+00  0.0000E+00
    -14.770  0.0000E+00  0.0000E+00
    -14.659  0.0000E+00  0.0000E+00
    -14.548  0.0000E+00  0.0000E+00
    -14.437  0.1147E+01  0.4854E-01
    -14.326  0.2173E+01  0.2570E+00
    -14.215  0.2916E+01  0.5371E+00
    -14.104  0.4014E+01  0.9155E+00
    -13.993  0.5234E+01  0.1443E+01
    -13.882  0.4814E+01  0.1996E+01
    -13.771  0.4913E+01  0.2535E+01
    -13.660  0.4998E+01  0.3085E+01
    -13.549  0.4966E+01  0.3639E+01
    -13.438  0.5121E+01  0.4195E+01
    -13.327  0.6568E+01  0.4830E+01
    -13.216  0.7091E+01  0.5594E+01
    -13.105  0.6417E+01  0.6353E+01
    -12.994  0.6139E+01  0.7063E+01
    -12.883  0.2511E+01  0.7548E+01
    -12.772  0.1861E+01  0.7784E+01
    -12.661  0.1855E+01  0.7984E+01
    -12.550  0.2380E+01  0.8217E+01
    -12.439  0.6023E+01  0.8591E+01
    -12.328  0.6144E+01  0.9484E+01
    -12.217  0.6918E+01  0.1019E+02
    -12.106  0.6786E+01  0.1098E+02
    -11.995  0.4089E+01  0.1158E+02
    -11.884  0.4232E+01  0.1204E+02
    -11.773  0.4422E+01  0.1252E+02
    -11.662  0.4619E+01  0.1302E+02
    -11.551  0.4800E+01  0.1354E+02
    -11.440  0.5010E+01  0.1409E+02
    -11.329  0.5197E+01  0.1465E+02
    -11.218  0.5380E+01  0.1524E+02
    -11.107  0.5820E+01  0.1586E+02
    -10.996  0.5971E+01  0.1653E+02
    -10.885  0.5734E+01  0.1718E+02
    -10.774  0.5662E+01  0.1781E+02
    -10.663  0.5839E+01  0.1845E+02
    -10.552  0.6017E+01  0.1910E+02
    -10.441  0.5844E+01  0.1977E+02
    -10.330  0.5794E+01  0.2041E+02
    -10.219  0.5768E+01  0.2105E+02
    -10.108  0.5109E+01  0.2167E+02
     -9.997  0.3885E+01  0.2216E+02
     -9.886  0.3822E+01  0.2258E+02
     -9.775  0.4620E+01  0.2305E+02
     -9.664  0.4931E+01  0.2358E+02
     -9.553  0.6166E+01  0.2419E+02
     -9.442  0.7615E+01  0.2494E+02
     -9.331  0.1085E+02  0.2592E+02
     -9.220  0.8937E+01  0.2705E+02
     -9.109  0.6551E+01  0.2791E+02
     -8.998  0.4938E+01  0.2853E+02
     -8.887  0.4397E+01  0.2905E+02
     -8.776  0.3855E+01  0.2950E+02
     -8.665  0.4668E+01  0.3015E+02
     -8.554  0.4645E+01  0.3065E+02
     -8.443  0.1954E+01  0.3102E+02
     -8.332  0.1737E+01  0.3123E+02
     -8.221  0.1519E+01  0.3141E+02
     -8.110  0.1302E+01  0.3156E+02
     -7.999  0.1450E+01  0.3171E+02
     -7.888  0.1941E+01  0.3190E+02
     -7.777  0.2447E+01  0.3214E+02
     -7.666  0.3094E+01  0.3244E+02
     -7.555  0.7667E+01  0.3300E+02
     -7.444  0.7723E+01  0.3402E+02
     -7.333  0.5101E+01  0.3466E+02
     -7.222  0.5501E+01  0.3524E+02
     -7.111  0.6751E+01  0.3592E+02
     -7.000  0.8001E+01  0.3674E+02
     -6.889  0.9251E+01  0.3770E+02
     -6.778  0.8058E+01  0.3869E+02
     -6.667  0.6261E+01  0.3951E+02
     -6.556  0.5581E+01  0.4013E+02
     -6.445  0.5516E+01  0.4075E+02
     -6.334  0.5443E+01  0.4136E+02
     -6.223  0.5264E+01  0.4195E+02
     -6.112  0.5079E+01  0.4253E+02
     -6.001  0.4956E+01  0.4308E+02
     -5.890  0.4837E+01  0.4363E+02
     -5.779  0.4718E+01  0.4416E+02
     -5.668  0.4599E+01  0.4468E+02
     -5.557  0.4480E+01  0.4518E+02
     -5.446  0.4358E+01  0.4567E+02
     -5.335  0.4461E+01  0.4615E+02
     -5.224  0.5151E+01  0.4669E+02
     -5.113  0.5771E+01  0.4729E+02
     -5.002  0.6392E+01  0.4797E+02
     -4.891  0.7013E+01  0.4871E+02
     -4.780  0.7634E+01  0.4953E+02
     -4.669  0.8255E+01  0.5041E+02
     -4.558  0.8876E+01  0.5136E+02
     -4.447  0.6114E+01  0.5220E+02
     -4.336  0.5196E+01  0.5276E+02
     -4.225  0.6828E+01  0.5343E+02
     -4.114  0.5897E+01  0.5417E+02
     -4.003  0.4322E+01  0.5474E+02
     -3.892  0.2747E+01  0.5513E+02
     -3.781  0.1202E+01  0.5535E+02
     -3.670  0.1852E+01  0.5549E+02
     -3.559  0.3545E+01  0.5579E+02
     -3.448  0.5645E+01  0.5630E+02
     -3.337  0.9115E+01  0.5710E+02
     -3.226  0.1250E+02  0.5827E+02
     -3.115  0.1285E+02  0.5971E+02
     -3.004  0.1121E+02  0.6111E+02
     -2.893  0.5778E+01  0.6205E+02
     -2.782  0.5144E+01  0.6263E+02
     -2.671  0.6257E+01  0.6326E+02
     -2.560  0.7360E+01  0.6401E+02
     -2.449  0.1235E+02  0.6506E+02
     -2.338  0.1854E+02  0.6677E+02
     -2.227  0.1436E+02  0.6893E+02
     -2.116  0.7409E+01  0.6992E+02
     -2.005  0.7296E+01  0.7073E+02
     -1.894  0.7308E+01  0.7154E+02
     -1.783  0.8039E+01  0.7238E+02
     -1.672  0.1199E+02  0.7341E+02
     -1.561  0.1388E+02  0.7505E+02
     -1.450  0.1056E+02  0.7641E+02
     -1.339  0.1085E+02  0.7745E+02
     -1.228  0.2141E+02  0.7980E+02
     -1.117  0.2058E+02  0.8217E+02
     -1.006  0.1728E+02  0.8440E+02
     -0.895  0.1492E+02  0.8611E+02
     -0.784  0.1483E+02  0.8776E+02
     -0.673  0.1046E+02  0.8919E+02
     -0.562  0.8296E+01  0.9021E+02
     -0.451  0.6927E+01  0.9105E+02
     -0.340  0.7713E+01  0.9186E+02
     -0.229  0.8669E+01  0.9276E+02
     -0.118  0.9988E+01  0.9379E+02
     -0.007  0.1091E+02  0.9496E+02
      0.104  0.1299E+02  0.9624E+02
      0.215  0.1262E+02  0.9821E+02
      0.326  0.1220E+02  0.9955E+02
      0.437  0.1208E+02  0.1009E+03
      0.548  0.9407E+01  0.1021E+03
      0.659  0.8891E+01  0.1031E+03
      0.770  0.8968E+01  0.1041E+03
      0.881  0.8694E+01  0.1051E+03
      0.992  0.8627E+01  0.1060E+03
      1.103  0.1127E+02  0.1071E+03
      1.214  0.9787E+01  0.1082E+03
      1.325  0.9869E+01  0.1093E+03
      1.436  0.9838E+01  0.1104E+03
      1.547  0.1043E+02  0.1115E+03
      1.658  0.9775E+01  0.1127E+03
      1.769  0.8811E+01  0.1137E+03
      1.880  0.1031E+02  0.1147E+03
      1.991  0.9556E+01  0.1158E+03
      2.102  0.8223E+01  0.1168E+03
      2.213  0.7404E+01  0.1177E+03
      2.324  0.5569E+01  0.1184E+03
      2.435  0.4652E+01  0.1190E+03
      2.546  0.3272E+01  0.1194E+03
      2.657  0.3074E+01  0.1197E+03
      2.768  0.4232E+01  0.1201E+03
      2.879  0.5323E+01  0.1206E+03
      2.990  0.7930E+01  0.1214E+03
      3.101  0.8195E+01  0.1223E+03
      3.212  0.7147E+01  0.1231E+03
      3.323  0.6897E+01  0.1239E+03
      3.434  0.6413E+01  0.1246E+03
      3.545  0.4817E+01  0.1253E+03
      3.656  0.3833E+01  0.1257E+03
      3.767  0.3284E+01  0.1261E+03
      3.878  0.2834E+01  0.1265E+03
      3.989  0.2417E+01  0.1268E+03
      4.100  0.2072E+01  0.1270E+03
      4.211  0.1778E+01  0.1272E+03
      4.322  0.1525E+01  0.1274E+03
      4.433  0.1331E+01  0.1276E+03
      4.544  0.1092E+01  0.1277E+03
      4.655  0.8650E+00  0.1278E+03
      4.766  0.6468E+00  0.1279E+03
      4.877  0.4374E+00  0.1279E+03
      4.988  0.2357E+00  0.1280E+03
      5.099  0.4166E-01  0.1280E+03
      5.210  0.6558E-01  0.1280E+03
      5.321  0.1963E+00  0.1280E+03
      5.432  0.3358E+00  0.1280E+03
      5.543  0.4842E+00  0.1281E+03
      5.654  0.6444E+00  0.1282E+03
      5.765  0.8168E+00  0.1282E+03
      5.876  0.1003E+01  0.1283E+03
      5.987  0.1212E+01  0.1285E+03
      6.098  0.1454E+01  0.1286E+03
      6.209  0.2120E+01  0.1288E+03
      6.320  0.2700E+01  0.1291E+03
      6.431  0.3238E+01  0.1294E+03
      6.542  0.3632E+01  0.1298E+03
      6.653  0.5269E+01  0.1302E+03
      6.764  0.1186E+02  0.1311E+03
      6.875  0.1136E+02  0.1326E+03
      6.986  0.8738E+01  0.1337E+03
      7.097  0.6704E+01  0.1345E+03
      7.208  0.5716E+01  0.1352E+03
      7.319  0.4985E+01  0.1358E+03
      7.430  0.4659E+01  0.1363E+03
      7.541  0.4232E+01  0.1368E+03
      7.652  0.3777E+01  0.1373E+03
      7.763  0.3566E+01  0.1377E+03
      7.874  0.3710E+01  0.1381E+03
      7.985  0.4093E+01  0.1385E+03
      8.096  0.4468E+01  0.1390E+03
      8.207  0.4728E+01  0.1395E+03
      8.318  0.4892E+01  0.1400E+03
      8.429  0.4712E+01  0.1406E+03
      8.540  0.4537E+01  0.1411E+03
      8.651  0.4435E+01  0.1416E+03
      8.762  0.4340E+01  0.1421E+03
      8.873  0.4238E+01  0.1425E+03
      8.984  0.4146E+01  0.1430E+03
      9.095  0.4058E+01  0.1435E+03
      9.206  0.3754E+01  0.1439E+03
      9.317  0.3497E+01  0.1443E+03
      9.428  0.3356E+01  0.1447E+03
      9.539  0.3295E+01  0.1450E+03
      9.650  0.3216E+01  0.1454E+03
      9.761  0.3131E+01  0.1458E+03
      9.872  0.3072E+01  0.1461E+03
      9.983  0.3031E+01  0.1464E+03
     10.094  0.3135E+01  0.1468E+03
     10.205  0.3343E+01  0.1471E+03
     10.316  0.3385E+01  0.1475E+03
     10.427  0.3367E+01  0.1479E+03
     10.538  0.3413E+01  0.1483E+03
     10.649  0.3601E+01  0.1486E+03
     10.760  0.4354E+01  0.1491E+03
     10.871  0.4599E+01  0.1496E+03
     10.982  0.4682E+01  0.1501E+03
     11.093  0.4622E+01  0.1506E+03
     11.204  0.4436E+01  0.1511E+03
     11.315  0.4260E+01  0.1516E+03
     11.426  0.4988E+01  0.1521E+03
     11.537  0.7557E+01  0.1528E+03
     11.648  0.3519E+01  0.1534E+03
     11.759  0.2632E+01  0.1537E+03
     11.870  0.2393E+01  0.1540E+03
     11.981  0.2303E+01  0.1543E+03
     12.092  0.2281E+01  0.1545E+03
     12.203  0.2574E+01  0.1548E+03
     12.314  0.3363E+01  0.1551E+03
     12.425  0.5885E+01  0.1556E+03
     12.536  0.6503E+01  0.1563E+03
     12.647  0.7273E+01  0.1571E+03
     12.758  0.9165E+01  0.1580E+03
     12.869  0.1169E+02  0.1591E+03
     12.980  0.1487E+02  0.1606E+03
     13.091  0.1427E+02  0.1623E+03
     13.202  0.1312E+02  0.1638E+03
     13.313  0.1007E+02  0.1651E+03
     13.424  0.1007E+02  0.1662E+03
     13.535  0.8998E+01  0.1674E+03
     13.646  0.1393E+01  0.1678E+03
     13.757  0.5285E+00  0.1679E+03
     13.868  0.2355E+00  0.1679E+03
     13.979  0.1728E+00  0.1680E+03
     14.090  0.1268E+00  0.1680E+03
     14.201  0.8797E-01  0.1680E+03
     14.312  0.5620E-01  0.1680E+03
     14.423  0.3151E-01  0.1680E+03
     14.534  0.1392E-01  0.1680E+03
     14.645  0.3416E-02  0.1680E+03
     14.756  0.0000E+00  0.1680E+03
     14.867  0.0000E+00  0.1680E+03
     14.978  0.0000E+00  0.1680E+03
     15.089  0.0000E+00  0.1680E+03
     15.200  0.0000E+00  0.1680E+03
     15.311  0.0000E+00  0.1680E+03
     15.422  0.0000E+00  0.1680E+03
     15.533  0.0000E+00  0.1680E+03
     15.644  0.0000E+00  0.1680E+03
     15.755  0.0000E+00  0.1680E+03
     15.866  0.0000E+00  0.1680E+03
     15.977  0.0000E+00  0.1680E+03
     16.088  0.0000E+00  0.1680E+03
     16.199  0.0000E+00  0.1680E+03
     16.310  0.0000E+00  0.1680E+03
     16.421  0.0000E+00  0.1680E+03
     16.531  0.0000E+00  0.1680E+03
     16.642  0.0000E+00  0.1680E+03
     16.753  0.0000E+00  0.1680E+03
