   32   32    1    1
  0.8381369E+01  0.4932875E-09  0.4932875E-09  0.1273296E-08  0.5000000E-15
  1.000000000000000E-004
  CAR 
 graphite                                
    128     76     84
 
  0.0000000E+00  0.0000000E+00  0.0000000E+00  0.6944444E-02
    1      -14.546044
    2      -14.334227
    3      -14.333613
    4      -14.100787
    5       -9.187180
    6       -9.179277
    7       -9.176807
    8       -9.092000
    9       -9.091578
   10       -9.083935
   11       -9.080261
   12       -9.080183
   13       -9.077986
   14       -9.020657
   15       -9.009409
   16       -9.005918
   17       -8.085561
   18       -8.082383
   19       -8.080178
   20       -8.046958
   21       -8.043214
   22       -8.041219
   23       -8.040661
   24       -8.040557
   25       -8.036728
   26       -7.961170
   27       -7.955993
   28       -7.954017
   29       -3.592902
   30       -2.459003
   31       -2.457001
   32       -1.263221
   33       -1.260481
   34       -1.241114
   35       -1.219817
   36       -1.215666
   37       -1.215656
   38       -1.214771
   39       -1.196985
   40       -1.194446
   41       -1.171880
   42       -1.169417
   43       -1.149880
   44       -1.048847
   45        2.140290
   46        2.155776
   47        2.161899
   48        2.164470
   49        2.175589
   50        2.177974
   51        2.183201
   52        2.198034
   53        2.230549
   54        2.232477
   55        2.233748
   56        2.790275
   57        2.792857
   58        2.794507
   59        2.798589
   60        2.799065
   61        2.801019
   62        3.110914
   63        3.127955
   64        3.130854
   65        6.707283
   66        6.710569
   67        6.713767
   68        6.789485
   69        6.795165
   70        6.799605
   71        6.800594
   72        6.801004
   73        6.806675
   74        7.490938
   75        7.504814
   76        7.507206
   77        9.954148
   78       12.263679
   79       12.267689
   80       12.300949
   81       12.540765
   82       12.544424
   83       12.546601
   84       12.562712
 
  0.1666667E+00 -0.1387779E-16  0.0000000E+00  0.1388889E-01
    1      -14.379749
    2      -14.169834
    3      -14.169228
    4      -13.938692
    5      -10.509664
    6      -10.345615
    7      -10.345073
    8      -10.169582
    9       -9.631292
   10       -9.624484
   11       -9.485771
   12       -9.485173
   13       -9.478214
   14       -9.477647
   15       -9.333072
   16       -9.325265
   17       -7.498509
   18       -7.490600
   19       -7.383792
   20       -7.381057
   21       -7.374257
   22       -7.373950
   23       -7.253952
   24       -7.245585
   25       -6.652803
   26       -6.532831
   27       -6.531129
   28       -6.403486
   29       -3.391001
   30       -2.263785
   31       -2.261787
   32       -1.756883
   33       -1.737738
   34       -1.702310
   35       -1.701923
   36       -1.684088
   37       -1.681593
   38       -1.645880
   39       -1.626680
   40       -1.099586
   41       -1.056273
   42       -1.053326
   43       -1.009536
   44       -0.863186
   45        1.098764
   46        1.495879
   47        1.521822
   48        1.526338
   49        1.552544
   50        1.799797
   51        1.821792
   52        1.827084
   53        1.848726
   54        1.949591
   55        1.952285
   56        1.985966
   57        1.988062
   58        2.682845
   59        2.684856
   60        2.688829
   61        2.691647
   62        2.862605
   63        3.271013
   64        3.284573
   65        6.821469
   66        6.823925
   67        7.070840
   68        7.076403
   69        7.081115
   70        7.083159
   71        7.424251
   72        7.770156
   73        7.779683
   74        7.901681
   75        7.905381
   76        8.693261
   77       10.148436
   78       12.359486
   79       12.628913
   80       12.630709
   81       12.905872
   82       12.999396
   83       13.034760
   84       13.148006
 
  0.3333333E+00 -0.5551115E-16  0.0000000E+00  0.1388889E-01
    1      -13.882724
    2      -13.678411
    3      -13.677823
    4      -13.454154
    5      -11.926436
    6      -11.744373
    7      -11.743857
    8      -11.546944
    9      -10.058430
   10      -10.054809
   11       -9.900828
   12       -9.899675
   13       -9.896509
   14       -9.895782
   15       -9.731143
   16       -9.727272
   17       -6.323034
   18       -6.312276
   19       -6.214256
   20       -6.211502
   21       -6.202378
   22       -6.201833
   23       -6.096618
   24       -6.086129
   25       -4.529334
   26       -4.428927
   27       -4.427025
   28       -4.321897
   29       -2.919535
   30       -2.903553
   31       -2.850107
   32       -2.849843
   33       -2.835052
   34       -2.832470
   35       -2.789473
   36       -2.776421
   37       -2.760194
   38       -1.683289
   39       -1.681312
   40       -0.625072
   41       -0.583672
   42       -0.580397
   43       -0.538500
   44       -0.469398
   45       -0.313182
   46       -0.168713
   47       -0.118930
   48       -0.115290
   49       -0.065091
   50        0.529064
   51        0.531209
   52        0.997536
   53        1.029067
   54        1.033583
   55        1.065407
   56        1.659202
   57        1.661553
   58        1.725941
   59        2.493851
   60        2.495089
   61        2.497571
   62        2.500748
   63        3.396047
   64        3.402688
   65        7.239318
   66        7.243995
   67        7.648498
   68        7.653750
   69        7.657083
   70        7.658961
   71        8.210295
   72        8.214335
   73        9.530037
   74       10.040224
   75       10.043169
   76       10.717406
   77       10.735349
   78       12.594433
   79       12.869333
   80       12.871542
   81       12.927152
   82       13.313851
   83       13.317430
   84       13.369306
 
  0.5000000E+00  0.0000000E+00  0.0000000E+00  0.6944444E-02
    1      -13.062349
    2      -13.059419
    3      -12.868634
    4      -12.865473
    5      -12.865434
    6      -12.862678
    7      -12.654303
    8      -12.651286
    9      -10.208072
   10      -10.206289
   11      -10.048039
   12      -10.045940
   13      -10.045865
   14      -10.044318
   15       -9.874639
   16       -9.872769
   17       -5.394959
   18       -5.392587
   19       -5.334767
   20       -5.330447
   21       -5.329728
   22       -5.329709
   23       -5.274893
   24       -5.272919
   25       -3.788563
   26       -3.787358
   27       -3.752666
   28       -3.752642
   29       -3.751442
   30       -3.748500
   31       -3.700703
   32       -3.699015
   33       -2.298700
   34       -2.295774
   35       -2.222611
   36       -2.221925
   37       -2.221887
   38       -2.216155
   39       -2.142565
   40       -2.139018
   41       -1.804263
   42       -1.801905
   43       -0.737735
   44       -0.734020
   45       -0.733877
   46       -0.731377
   47        0.108004
   48        0.114423
   49        0.144761
   50        0.153220
   51        0.153241
   52        0.154529
   53        0.189698
   54        0.193866
   55        0.573335
   56        0.576124
   57        1.532523
   58        1.534426
   59        2.409449
   60        2.410989
   61        2.411515
   62        2.415485
   63        3.414877
   64        3.417548
   65        7.544728
   66        7.547389
   67        7.954412
   68        7.959909
   69        7.960603
   70        7.961893
   71        8.370786
   72        8.373858
   73       11.694840
   74       11.696339
   75       11.983122
   76       11.986798
   77       12.318222
   78       12.320648
   79       12.322106
   80       12.327101
   81       12.846881
   82       12.850053
   83       13.038842
   84       13.042017
 
 -0.1355253E-19  0.1666667E+00  0.0000000E+00  0.1388889E-01
    1      -14.379753
    2      -14.169840
    3      -14.169230
    4      -13.938696
    5      -10.509675
    6      -10.345619
    7      -10.345074
    8      -10.169574
    9       -9.631404
   10       -9.624522
   11       -9.486069
   12       -9.485182
   13       -9.478206
   14       -9.477677
   15       -9.333094
   16       -9.325450
   17       -7.498668
   18       -7.489355
   19       -7.384236
   20       -7.381059
   21       -7.374082
   22       -7.371435
   23       -7.254085
   24       -7.244279
   25       -6.653726
   26       -6.533111
   27       -6.532715
   28       -6.404434
   29       -3.390991
   30       -2.263771
   31       -2.261775
   32       -1.758197
   33       -1.737775
   34       -1.704752
   35       -1.701940
   36       -1.684088
   37       -1.681806
   38       -1.647117
   39       -1.626802
   40       -1.098104
   41       -1.053545
   42       -1.053302
   43       -1.008245
   44       -0.863168
   45        1.099331
   46        1.493630
   47        1.521019
   48        1.521825
   49        1.549192
   50        1.803473
   51        1.827058
   52        1.827182
   53        1.850912
   54        1.950662
   55        1.952728
   56        1.985387
   57        1.987721
   58        2.682428
   59        2.684638
   60        2.688151
   61        2.690457
   62        2.863751
   63        3.271051
   64        3.283001
   65        6.822738
   66        6.824872
   67        7.071290
   68        7.076365
   69        7.081824
   70        7.086384
   71        7.422295
   72        7.770352
   73        7.781663
   74        7.900788
   75        7.903098
   76        8.691785
   77       10.148452
   78       12.360040
   79       12.629899
   80       12.630807
   81       12.906387
   82       12.998895
   83       13.034652
   84       13.147337
 
  0.1666667E+00  0.1666667E+00  0.0000000E+00  0.1388889E-01
    1      -14.047871
    2      -13.841683
    3      -13.841090
    4      -13.615151
    5      -11.134845
    6      -11.131753
    7      -10.963713
    8      -10.960343
    9      -10.960313
   10      -10.957440
   11      -10.776037
   12      -10.772857
   13       -8.760054
   14       -8.668931
   15       -8.667571
   16       -8.599695
   17       -7.679633
   18       -7.646777
   19       -7.643227
   20       -7.570546
   21       -5.540153
   22       -5.536617
   23       -5.432087
   24       -5.429041
   25       -5.429009
   26       -5.424843
   27       -5.315352
   28       -5.311617
   29       -3.091754
   30       -3.019500
   31       -3.017480
   32       -2.988963
   33       -2.941679
   34       -1.875544
   35       -1.873555
   36       -1.429171
   37       -1.426000
   38       -1.378455
   39       -1.374112
   40       -1.374103
   41       -1.372442
   42       -1.322097
   43       -1.319207
   44       -0.494928
   45        0.440576
   46        0.442095
   47        0.461567
   48        0.486828
   49        0.491651
   50        0.514750
   51        1.126015
   52        1.143039
   53        1.148022
   54        1.167288
   55        1.375683
   56        1.379113
   57        1.379247
   58        1.381949
   59        2.464316
   60        2.467019
   61        2.829695
   62        3.387114
   63        3.390453
   64        3.687883
   65        6.578697
   66        6.583889
   67        6.670698
   68        6.969527
   69        8.341237
   70        8.344031
   71        8.851626
   72        8.853954
   73        8.854456
   74        8.858240
   75        9.533910
   76        9.536424
   77       10.540296
   78       13.174442
   79       13.178742
   80       13.416083
   81       13.422967
   82       13.442082
   83       13.446831
   84       13.448713
 
  0.3333333E+00  0.1666667E+00  0.0000000E+00  0.1388889E-01
    1      -13.388187
    2      -13.189457
    3      -13.188888
    4      -12.971985
    5      -12.411364
    6      -12.223726
    7      -12.223186
    8      -12.019649
    9      -11.451735
   10      -11.275329
   11      -11.274748
   12      -11.084479
   13       -8.758288
   14       -8.624010
   15       -8.623531
   16       -8.484295
   17       -6.847835
   18       -6.758406
   19       -6.755403
   20       -6.660702
   21       -4.524024
   22       -4.456050
   23       -4.453883
   24       -4.375687
   25       -4.369964
   26       -4.290452
   27       -4.288615
   28       -4.208081
   29       -3.386411
   30       -3.302615
   31       -3.300759
   32       -3.213921
   33       -2.326183
   34       -2.273035
   35       -2.271463
   36       -2.212621
   37       -2.193951
   38       -1.280961
   39       -1.232937
   40       -1.229167
   41       -1.171976
   42       -1.105626
   43       -1.103066
   44       -1.030856
   45       -0.787947
   46       -0.742150
   47       -0.739197
   48       -0.691871
   49        0.001238
   50        0.003304
   51        0.098141
   52        0.113440
   53        0.146180
   54        0.150750
   55        0.185833
   56        0.226233
   57        1.071876
   58        1.073883
   59        1.256072
   60        2.232918
   61        3.099427
   62        3.794230
   63        3.797175
   64        4.396757
   65        6.166277
   66        6.439068
   67        6.443326
   68        6.897607
   69        9.156993
   70        9.566524
   71        9.569458
   72       10.003853
   73       10.642535
   74       11.060384
   75       11.062964
   76       11.324379
   77       11.576196
   78       12.474077
   79       12.934607
   80       13.156912
   81       13.162639
   82       13.543779
   83       13.556268
   84       13.714260
 
  0.5000000E+00  0.1666667E+00  0.0000000E+00  0.1388889E-01
    1      -13.389421
    2      -13.190696
    3      -13.190109
    4      -12.973211
    5      -12.409634
    6      -12.221987
    7      -12.221466
    8      -12.017923
    9      -11.452975
   10      -11.276583
   11      -11.275984
   12      -11.085736
   13       -8.755911
   14       -8.621245
   15       -8.620848
   16       -8.481077
   17       -6.841533
   18       -6.751117
   19       -6.749921
   20       -6.654483
   21       -4.533386
   22       -4.465217
   23       -4.464611
   24       -4.386194
   25       -4.380764
   26       -4.301466
   27       -4.298283
   28       -4.217749
   29       -3.389404
   30       -3.305989
   31       -3.303399
   32       -3.216937
   33       -2.313765
   34       -2.260873
   35       -2.257676
   36       -2.199325
   37       -2.194991
   38       -1.280892
   39       -1.232024
   40       -1.230306
   41       -1.172290
   42       -1.106746
   43       -1.104240
   44       -1.029303
   45       -0.785302
   46       -0.739840
   47       -0.736043
   48       -0.689115
   49        0.002742
   50        0.004878
   51        0.097217
   52        0.113799
   53        0.147194
   54        0.149511
   55        0.185358
   56        0.225139
   57        1.070696
   58        1.072775
   59        1.257444
   60        2.231368
   61        3.098915
   62        3.796807
   63        3.799018
   64        4.406224
   65        6.163378
   66        6.441441
   67        6.444205
   68        6.897713
   69        9.151925
   70        9.562397
   71        9.565954
   72       10.002971
   73       10.644375
   74       11.059887
   75       11.062773
   76       11.322732
   77       11.573823
   78       12.476191
   79       12.930244
   80       13.157289
   81       13.162809
   82       13.538754
   83       13.558046
   84       13.711562
 
 -0.3333333E+00  0.1666667E+00  0.0000000E+00  0.1388889E-01
    1      -14.048609
    2      -13.842424
    3      -13.841820
    4      -13.615884
    5      -11.137008
    6      -11.131036
    7      -10.964521
    8      -10.963939
    9      -10.958479
   10      -10.957980
   11      -10.778307
   12      -10.772284
   13       -8.751550
   14       -8.658276
   15       -8.657909
   16       -8.587592
   17       -7.677733
   18       -7.642097
   19       -7.641824
   20       -7.566481
   21       -5.550769
   22       -5.541183
   23       -5.442241
   24       -5.439890
   25       -5.432564
   26       -5.430687
   27       -5.325728
   28       -5.316466
   29       -3.107339
   30       -3.034303
   31       -3.033982
   32       -2.989693
   33       -2.957376
   34       -1.876251
   35       -1.874273
   36       -1.426044
   37       -1.407626
   38       -1.374856
   39       -1.371728
   40       -1.356210
   41       -1.353598
   42       -1.319268
   43       -1.300853
   44       -0.495623
   45        0.438253
   46        0.442665
   47        0.452080
   48        0.479213
   49        0.479462
   50        0.504586
   51        1.137183
   52        1.155360
   53        1.155511
   54        1.176717
   55        1.374550
   56        1.376822
   57        1.379454
   58        1.381770
   59        2.461278
   60        2.466572
   61        2.827879
   62        3.393135
   63        3.395371
   64        3.705994
   65        6.584553
   66        6.586982
   67        6.664746
   68        6.975991
   69        8.333890
   70        8.343830
   71        8.843481
   72        8.847420
   73        8.852568
   74        8.855877
   75        9.528955
   76        9.533233
   77       10.539260
   78       13.173049
   79       13.208645
   80       13.417550
   81       13.422647
   82       13.441953
   83       13.445338
   84       13.480178
 
 -0.1666667E+00  0.1666667E+00  0.0000000E+00  0.1388889E-01
    1      -14.379998
    2      -14.170086
    3      -14.169473
    4      -13.938940
    5      -10.515933
    6      -10.351972
    7      -10.351456
    8      -10.176051
    9       -9.623313
   10       -9.621288
   11       -9.478402
   12       -9.475782
   13       -9.475722
   14       -9.474058
   15       -9.324448
   16       -9.322151
   17       -7.493709
   18       -7.491821
   19       -7.377937
   20       -7.376931
   21       -7.376879
   22       -7.374101
   23       -7.248958
   24       -7.247033
   25       -6.662751
   26       -6.542974
   27       -6.540843
   28       -6.413330
   29       -3.391236
   30       -2.264014
   31       -2.262021
   32       -1.758006
   33       -1.755455
   34       -1.705073
   35       -1.701106
   36       -1.701092
   37       -1.700243
   38       -1.646847
   39       -1.644544
   40       -1.078404
   41       -1.034941
   42       -1.032470
   43       -0.988475
   44       -0.863404
   45        1.095508
   46        1.477693
   47        1.503903
   48        1.509228
   49        1.535082
   50        1.818200
   51        1.839797
   52        1.844492
   53        1.866678
   54        1.945246
   55        1.947749
   56        1.987588
   57        1.989743
   58        2.686039
   59        2.690696
   60        2.691131
   61        2.692339
   62        2.855195
   63        3.282344
   64        3.285166
   65        6.822848
   66        6.825976
   67        7.079149
   68        7.080838
   69        7.081225
   70        7.086500
   71        7.416981
   72        7.777166
   73        7.779802
   74        7.891236
   75        7.895440
   76        8.684003
   77       10.148089
   78       12.394126
   79       12.663754
   80       12.664856
   81       12.940335
   82       12.996173
   83       12.999989
   84       13.147666
 
  0.0000000E+00  0.3333333E+00  0.0000000E+00  0.1388889E-01
    1      -13.882738
    2      -13.678431
    3      -13.677831
    4      -13.454168
    5      -11.926492
    6      -11.744452
    7      -11.743889
    8      -11.547000
    9      -10.058741
   10      -10.054496
   11       -9.901629
   12       -9.899682
   13       -9.896457
   14       -9.894968
   15       -9.731389
   16       -9.726979
   17       -6.323061
   18       -6.311057
   19       -6.214426
   20       -6.211502
   21       -6.201885
   22       -6.199498
   23       -6.096535
   24       -6.084736
   25       -4.530357
   26       -4.429224
   27       -4.428846
   28       -4.322995
   29       -2.920935
   30       -2.903846
   31       -2.852573
   32       -2.850064
   33       -2.835053
   34       -2.833049
   35       -2.789428
   36       -2.777725
   37       -2.760486
   38       -1.683224
   39       -1.681263
   40       -0.623425
   41       -0.580684
   42       -0.580380
   43       -0.537110
   44       -0.469134
   45       -0.313112
   46       -0.170476
   47       -0.119212
   48       -0.118893
   49       -0.067258
   50        0.529472
   51        0.531466
   52        1.000112
   53        1.033366
   54        1.033600
   55        1.067296
   56        1.658364
   57        1.661512
   58        1.726444
   59        2.492403
   60        2.494925
   61        2.497717
   62        2.500021
   63        3.395669
   64        3.401597
   65        7.239463
   66        7.245908
   67        7.649215
   68        7.653740
   69        7.657921
   70        7.661864
   71        8.210850
   72        8.216319
   73        9.528744
   74       10.039390
   75       10.041877
   76       10.716504
   77       10.735251
   78       12.595155
   79       12.870687
   80       12.871733
   81       12.927609
   82       13.316513
   83       13.317780
   84       13.369659
 
  0.1666667E+00  0.3333333E+00  0.0000000E+00  0.1388889E-01
    1      -13.388196
    2      -13.189467
    3      -13.188893
    4      -12.971990
    5      -12.411427
    6      -12.223818
    7      -12.223218
    8      -12.019710
    9      -11.451674
   10      -11.275238
   11      -11.274718
   12      -11.084419
   13       -8.758335
   14       -8.624037
   15       -8.623620
   16       -8.484366
   17       -6.847437
   18       -6.757540
   19       -6.755399
   20       -6.660220
   21       -4.524455
   22       -4.456054
   23       -4.454730
   24       -4.376162
   25       -4.368443
   26       -4.288632
   27       -4.287432
   28       -4.206554
   29       -3.387775
   30       -3.303616
   31       -3.302593
   32       -3.215396
   33       -2.327958
   34       -2.275003
   35       -2.273029
   36       -2.214364
   37       -2.193920
   38       -1.281945
   39       -1.232939
   40       -1.231264
   41       -1.173167
   42       -1.105568
   43       -1.103094
   44       -1.030695
   45       -0.786012
   46       -0.739205
   47       -0.738471
   48       -0.690120
   49        0.001543
   50        0.003520
   51        0.097939
   52        0.114779
   53        0.148519
   54        0.150752
   55        0.186864
   56        0.226294
   57        1.071486
   58        1.073511
   59        1.256432
   60        2.232376
   61        3.098986
   62        3.794039
   63        3.796383
   64        4.396409
   65        6.166360
   66        6.440388
   67        6.443459
   68        6.898769
   69        9.158185
   70        9.568165
   71        9.570244
   72       10.005184
   73       10.641395
   74       11.059126
   75       11.062169
   76       11.324383
   77       11.575090
   78       12.474207
   79       12.934229
   80       13.156869
   81       13.162485
   82       13.545143
   83       13.555995
   84       13.717674
 
  0.3333333E+00  0.3333333E+00  0.0000000E+00  0.1388889E-01
    1      -12.576555
    2      -12.573767
    3      -12.571120
    4      -12.388912
    5      -12.384896
    6      -12.384871
    7      -12.383831
    8      -12.381983
    9      -12.379705
   10      -12.180724
   11      -12.177940
   12      -12.175224
   13       -7.548564
   14       -7.408751
   15       -7.408290
   16       -7.400794
   17       -7.398282
   18       -7.393403
   19       -7.392085
   20       -7.255431
   21       -5.357464
   22       -5.357247
   23       -5.347081
   24       -5.345411
   25       -2.613110
   26       -2.609252
   27       -2.605745
   28       -2.570351
   29       -2.564399
   30       -2.564205
   31       -2.564115
   32       -2.563400
   33       -2.558112
   34       -2.524539
   35       -2.522135
   36       -2.518672
   37       -1.244250
   38       -1.238348
   39       -1.235428
   40       -1.223580
   41       -1.220878
   42       -1.218644
   43       -1.215493
   44       -1.211943
   45       -1.210112
   46       -1.209527
   47       -1.209519
   48       -1.202055
   49       -1.178944
   50       -1.174600
   51       -1.169229
   52       -0.180891
   53       -0.177038
   54       -0.176753
   55       -0.175392
   56       -0.174178
   57       -0.171204
   58        1.093461
   59        1.096059
   60        1.098289
   61        4.299328
   62        5.100290
   63        5.111842
   64        5.132935
   65        5.137101
   66        5.166588
   67        5.166981
   68        6.119157
   69       11.180432
   70       11.183672
   71       11.191564
   72       11.500671
   73       11.506241
   74       11.506756
   75       11.507448
   76       11.508223
   77       11.512125
   78       11.847411
   79       11.851025
   80       11.853917
   81       12.303775
   82       12.305121
   83       12.308778
   84       14.753496
 
  0.5000000E+00  0.3333333E+00  0.0000000E+00  0.1388889E-01
    1      -13.390166
    2      -13.191450
    3      -13.190842
    4      -12.973953
    5      -12.413365
    6      -12.225758
    7      -12.225150
    8      -12.021648
    9      -11.447759
   10      -11.271314
   11      -11.270816
   12      -11.080510
   13       -8.748743
   14       -8.614263
   15       -8.613710
   16       -8.474219
   17       -6.847961
   18       -6.757999
   19       -6.757289
   20       -6.662236
   21       -4.533276
   22       -4.465415
   23       -4.464282
   24       -4.386077
   25       -4.373459
   26       -4.294532
   27       -4.291757
   28       -4.211783
   29       -3.401649
   30       -3.318230
   31       -3.315123
   32       -3.228643
   33       -2.325719
   34       -2.273550
   35       -2.269799
   36       -2.211989
   37       -2.195799
   38       -1.294261
   39       -1.244632
   40       -1.242230
   41       -1.184319
   42       -1.107833
   43       -1.105469
   44       -1.032429
   45       -0.768267
   46       -0.722548
   47       -0.719293
   48       -0.672038
   49       -0.000309
   50        0.001703
   51        0.101470
   52        0.127725
   53        0.161741
   54        0.164199
   55        0.200428
   56        0.224481
   57        1.074595
   58        1.076783
   59        1.254349
   60        2.235309
   61        3.102523
   62        3.799649
   63        3.802079
   64        4.406133
   65        6.171594
   66        6.440320
   67        6.442738
   68        6.888568
   69        9.162871
   70        9.567360
   71        9.570244
   72        9.998991
   73       10.632595
   74       11.051891
   75       11.055754
   76       11.321802
   77       11.572160
   78       12.472282
   79       12.924436
   80       13.154448
   81       13.160046
   82       13.556682
   83       13.575054
   84       13.741430
 
 -0.3333333E+00  0.3333333E+00  0.0000000E+00  0.1388889E-01
    1      -13.883721
    2      -13.679419
    3      -13.678802
    4      -13.455144
    5      -11.930410
    6      -11.748395
    7      -11.747793
    8      -11.550932
    9      -10.051175
   10      -10.049355
   11       -9.893852
   12       -9.891712
   13       -9.891652
   14       -9.890047
   15       -9.723759
   16       -9.721826
   17       -6.318737
   18       -6.316848
   19       -6.209251
   20       -6.208357
   21       -6.208320
   22       -6.205270
   23       -6.092941
   24       -6.090880
   25       -4.542376
   26       -4.442084
   27       -4.439682
   28       -4.334682
   29       -2.919224
   30       -2.917107
   31       -2.851511
   32       -2.847666
   33       -2.847607
   34       -2.847393
   35       -2.790395
   36       -2.776031
   37       -2.774086
   38       -1.684171
   39       -1.682218
   40       -0.604429
   41       -0.562835
   42       -0.560127
   43       -0.517991
   44       -0.472512
   45       -0.314049
   46       -0.186114
   47       -0.136278
   48       -0.132201
   49       -0.082035
   50        0.525855
   51        0.527926
   52        1.016546
   53        1.048085
   54        1.052098
   55        1.084196
   56        1.663126
   57        1.665173
   58        1.722327
   59        2.496857
   60        2.501287
   61        2.501679
   62        2.503059
   63        3.402226
   64        3.404941
   65        7.245939
   66        7.248691
   67        7.653844
   68        7.655503
   69        7.655887
   70        7.660986
   71        8.207364
   72        8.210208
   73        9.518850
   74       10.030143
   75       10.033759
   76       10.711615
   77       10.733563
   78       12.622245
   79       12.901923
   80       12.903489
   81       12.944693
   82       13.327663
   83       13.330288
   84       13.385270
 
 -0.1666667E+00  0.3333333E+00  0.0000000E+00  0.1388889E-01
    1      -14.048620
    2      -13.842440
    3      -13.841826
    4      -13.615895
    5      -11.137393
    6      -11.130721
    7      -10.965697
    8      -10.964020
    9      -10.958183
   10      -10.957012
   11      -10.778641
   12      -10.771879
   13       -8.752291
   14       -8.659818
   15       -8.657950
   16       -8.588363
   17       -7.676224
   18       -7.641842
   19       -7.638616
   20       -7.564726
   21       -5.551069
   22       -5.541815
   23       -5.443120
   24       -5.439891
   25       -5.432569
   26       -5.431415
   27       -5.325886
   28       -5.317008
   29       -3.108521
   30       -3.036550
   31       -3.034022
   32       -2.989662
   33       -2.958488
   34       -1.876208
   35       -1.874238
   36       -1.424825
   37       -1.407794
   38       -1.372632
   39       -1.371722
   40       -1.356211
   41       -1.353591
   42       -1.318054
   43       -1.300831
   44       -0.495567
   45        0.437032
   46        0.443263
   47        0.449980
   48        0.474832
   49        0.479231