   4   4   0   0
  0.9167123E+01  0.2466437E-09  0.2466437E-09  0.6963338E-09  0.5000000E-15
  1.000000000000000E-004
  CAR 
 graphite                                
     18.15444919    -17.24213137  301      4.35533546      1.00000000
    -17.242  0.0000E+00  0.0000E+00
    -17.124  0.0000E+00  0.0000E+00
    -17.006  0.0000E+00  0.0000E+00
    -16.888  0.0000E+00  0.0000E+00
    -16.770  0.0000E+00  0.0000E+00
    -16.652  0.0000E+00  0.0000E+00
    -16.534  0.0000E+00  0.0000E+00
    -16.416  0.0000E+00  0.0000E+00
    -16.298  0.0000E+00  0.0000E+00
    -16.180  0.0000E+00  0.0000E+00
    -16.062  0.0000E+00  0.0000E+00
    -15.944  0.0000E+00  0.0000E+00
    -15.826  0.0000E+00  0.0000E+00
    -15.708  0.0000E+00  0.0000E+00
    -15.590  0.0000E+00  0.0000E+00
    -15.472  0.0000E+00  0.0000E+00
    -15.354  0.0000E+00  0.0000E+00
    -15.236  0.7948E-05  0.1538E-07
    -15.118  0.1290E-02  0.6193E-04
    -15.000  0.2460E-02  0.2916E-03
    -14.882  0.3211E-02  0.6415E-03
    -14.764  0.3073E-02  0.9942E-03
    -14.646  0.3203E-02  0.1368E-02
    -14.528  0.3095E-02  0.1741E-02
    -14.410  0.2975E-02  0.2097E-02
    -14.292  0.3053E-02  0.2451E-02
    -14.174  0.3163E-02  0.2818E-02
    -14.056  0.3199E-02  0.3196E-02
    -13.938  0.3151E-02  0.3571E-02
    -13.820  0.3064E-02  0.3936E-02
    -13.702  0.3055E-02  0.4297E-02
    -13.584  0.3080E-02  0.4658E-02
    -13.466  0.3136E-02  0.5025E-02
    -13.349  0.3194E-02  0.5399E-02
    -13.231  0.3234E-02  0.5778E-02
    -13.113  0.3192E-02  0.6158E-02
    -12.995  0.3126E-02  0.6531E-02
    -12.877  0.3121E-02  0.6899E-02
    -12.759  0.3137E-02  0.7268E-02
    -12.641  0.3153E-02  0.7639E-02
    -12.523  0.3177E-02  0.8012E-02
    -12.405  0.3212E-02  0.8389E-02
    -12.287  0.3250E-02  0.8770E-02
    -12.169  0.3288E-02  0.9156E-02
    -12.051  0.3265E-02  0.9542E-02
    -11.933  0.3233E-02  0.9925E-02
    -11.815  0.3225E-02  0.1031E-01
    -11.697  0.3235E-02  0.1069E-01
    -11.579  0.3263E-02  0.1107E-01
    -11.461  0.3292E-02  0.1146E-01
    -11.343  0.3321E-02  0.1185E-01
    -11.225  0.3350E-02  0.1224E-01
    -11.107  0.3395E-02  0.1264E-01
    -10.989  0.3461E-02  0.1304E-01
    -10.871  0.3525E-02  0.1346E-01
    -10.753  0.3575E-02  0.1387E-01
    -10.635  0.3671E-02  0.1430E-01
    -10.517  0.3826E-02  0.1474E-01
    -10.399  0.3984E-02  0.1520E-01
    -10.281  0.5422E-02  0.1575E-01
    -10.163  0.5987E-02  0.1645E-01
    -10.045  0.4667E-02  0.1708E-01
     -9.927  0.3352E-02  0.1756E-01
     -9.809  0.2724E-02  0.1790E-01
     -9.691  0.2445E-02  0.1821E-01
     -9.573  0.2166E-02  0.1848E-01
     -9.455  0.4145E-02  0.1888E-01
     -9.337  0.1295E-02  0.1928E-01
     -9.219  0.1157E-02  0.1943E-01
     -9.101  0.1019E-02  0.1956E-01
     -8.983  0.8811E-03  0.1967E-01
     -8.865  0.7482E-03  0.1976E-01
     -8.747  0.9571E-03  0.1986E-01
     -8.629  0.1243E-02  0.1999E-01
     -8.511  0.1528E-02  0.2015E-01
     -8.393  0.2870E-02  0.2038E-01
     -8.275  0.5415E-02  0.2087E-01
     -8.157  0.4393E-02  0.2149E-01
     -8.039  0.3789E-02  0.2192E-01
     -7.921  0.4511E-02  0.2241E-01
     -7.803  0.5234E-02  0.2298E-01
     -7.685  0.5956E-02  0.2364E-01
     -7.567  0.5176E-02  0.2435E-01
     -7.449  0.3567E-02  0.2483E-01
     -7.331  0.3460E-02  0.2524E-01
     -7.213  0.3372E-02  0.2565E-01
     -7.095  0.3287E-02  0.2604E-01
     -6.977  0.3202E-02  0.2642E-01
     -6.859  0.3108E-02  0.2679E-01
     -6.741  0.3014E-02  0.2716E-01
     -6.623  0.2919E-02  0.2751E-01
     -6.505  0.2825E-02  0.2784E-01
     -6.387  0.2731E-02  0.2817E-01
     -6.269  0.2636E-02  0.2849E-01
     -6.151  0.2565E-02  0.2879E-01
     -6.033  0.2784E-02  0.2911E-01
     -5.915  0.3013E-02  0.2945E-01
     -5.797  0.3242E-02  0.2982E-01
     -5.679  0.3471E-02  0.3022E-01
     -5.561  0.3700E-02  0.3064E-01
     -5.443  0.3929E-02  0.3109E-01
     -5.325  0.4158E-02  0.3157E-01
     -5.207  0.4154E-02  0.3206E-01
     -5.089  0.3945E-02  0.3254E-01
     -4.971  0.3825E-02  0.3299E-01
     -4.853  0.3823E-02  0.3345E-01
     -4.735  0.3822E-02  0.3390E-01
     -4.617  0.3820E-02  0.3435E-01
     -4.499  0.3861E-02  0.3480E-01
     -4.381  0.3940E-02  0.3526E-01
     -4.263  0.4019E-02  0.3573E-01
     -4.145  0.4099E-02  0.3621E-01
     -4.027  0.4170E-02  0.3670E-01
     -3.909  0.4405E-02  0.3720E-01
     -3.791  0.4997E-02  0.3775E-01
     -3.673  0.5285E-02  0.3835E-01
     -3.555  0.5524E-02  0.3899E-01
     -3.437  0.5761E-02  0.3966E-01
     -3.319  0.5977E-02  0.4035E-01
     -3.201  0.6170E-02  0.4107E-01
     -3.083  0.6843E-02  0.4182E-01
     -2.966  0.7400E-02  0.4268E-01
     -2.848  0.7434E-02  0.4355E-01
     -2.730  0.7357E-02  0.4443E-01
     -2.612  0.7217E-02  0.4529E-01
     -2.494  0.7737E-02  0.4613E-01
     -2.376  0.8721E-02  0.4711E-01
     -2.258  0.9589E-02  0.4819E-01
     -2.140  0.1022E-01  0.4936E-01
     -2.022  0.1971E-01  0.5082E-01
     -1.904  0.1097E-01  0.5230E-01
     -1.786  0.9148E-02  0.5348E-01
     -1.668  0.7862E-02  0.5448E-01
     -1.550  0.7438E-02  0.5537E-01
     -1.432  0.5766E-02  0.5617E-01
     -1.314  0.4552E-02  0.5675E-01
     -1.196  0.4633E-02  0.5728E-01
     -1.078  0.5184E-02  0.5786E-01
     -0.960  0.6165E-02  0.5853E-01
     -0.842  0.6203E-02  0.5926E-01
     -0.724  0.6941E-02  0.6002E-01
     -0.606  0.9782E-02  0.6105E-01
     -0.488  0.7993E-02  0.6207E-01
     -0.370  0.7238E-02  0.6297E-01
     -0.252  0.6702E-02  0.6379E-01
     -0.134  0.6271E-02  0.6455E-01
     -0.016  0.5973E-02  0.6527E-01
      0.102  0.5819E-02  0.6597E-01
      0.220  0.5694E-02  0.6665E-01
      0.338  0.6006E-02  0.6733E-01
      0.456  0.5886E-02  0.6804E-01
      0.574  0.5760E-02  0.6872E-01
      0.692  0.5694E-02  0.6940E-01
      0.810  0.5832E-02  0.7010E-01
      0.928  0.5520E-02  0.7077E-01
      1.046  0.6231E-02  0.7143E-01
      1.164  0.5279E-02  0.7211E-01
      1.282  0.4368E-02  0.7268E-01
      1.400  0.3859E-02  0.7315E-01
      1.518  0.4687E-02  0.7364E-01
      1.636  0.4854E-02  0.7421E-01
      1.754  0.4614E-02  0.7476E-01
      1.872  0.4537E-02  0.7530E-01
      1.990  0.4498E-02  0.7584E-01
      2.108  0.4467E-02  0.7636E-01
      2.226  0.4423E-02  0.7689E-01
      2.344  0.3339E-02  0.7737E-01
      2.462  0.3101E-02  0.7775E-01
      2.580  0.2954E-02  0.7810E-01
      2.698  0.2346E-02  0.7841E-01
      2.816  0.2003E-02  0.7867E-01
      2.934  0.1821E-02  0.7889E-01
      3.052  0.1635E-02  0.7910E-01
      3.170  0.1444E-02  0.7928E-01
      3.288  0.1249E-02  0.7944E-01
      3.406  0.1007E-02  0.7957E-01
      3.524  0.8547E-03  0.7968E-01
      3.642  0.7100E-03  0.7977E-01
      3.760  0.5653E-03  0.7985E-01
      3.878  0.4220E-03  0.7991E-01
      3.996  0.2996E-03  0.7995E-01
      4.114  0.1907E-03  0.7998E-01
      4.232  0.9170E-04  0.7999E-01
      4.350  0.2717E-05  0.8000E-01
      4.468  0.6975E-04  0.8000E-01
      4.586  0.1539E-03  0.8002E-01
      4.704  0.2493E-03  0.8004E-01
      4.822  0.3584E-03  0.8008E-01
      4.940  0.4924E-03  0.8013E-01
      5.058  0.6467E-03  0.8019E-01
      5.176  0.8013E-03  0.8028E-01
      5.294  0.9560E-03  0.8038E-01
      5.412  0.1111E-02  0.8050E-01
      5.530  0.1829E-02  0.8067E-01
      5.648  0.2330E-02  0.8091E-01
      5.766  0.2423E-02  0.8120E-01
      5.884  0.3386E-02  0.8153E-01
      6.002  0.4739E-02  0.8203E-01
      6.120  0.4779E-02  0.8264E-01
      6.238  0.4645E-02  0.8319E-01
      6.356  0.4614E-02  0.8374E-01
      6.474  0.4667E-02  0.8428E-01
      6.592  0.4614E-02  0.8483E-01
      6.710  0.3912E-02  0.8535E-01
      6.828  0.3455E-02  0.8577E-01
      6.946  0.3220E-02  0.8617E-01
      7.064  0.3030E-02  0.8654E-01
      7.182  0.2875E-02  0.8688E-01
      7.299  0.2750E-02  0.8722E-01
      7.417  0.2653E-02  0.8753E-01
      7.535  0.2587E-02  0.8784E-01
      7.653  0.2529E-02  0.8815E-01
      7.771  0.2474E-02  0.8844E-01
      7.889  0.2422E-02  0.8873E-01
      8.007  0.2372E-02  0.8901E-01
      8.125  0.2323E-02  0.8929E-01
      8.243  0.2274E-02  0.8956E-01
      8.361  0.2225E-02  0.8983E-01
      8.479  0.2257E-02  0.9009E-01
      8.597  0.2431E-02  0.9037E-01
      8.715  0.2432E-02  0.9065E-01
      8.833  0.2444E-02  0.9094E-01
      8.951  0.2495E-02  0.9123E-01
      9.069  0.2554E-02  0.9153E-01
      9.187  0.2588E-02  0.9183E-01
      9.305  0.2615E-02  0.9214E-01
      9.423  0.2665E-02  0.9245E-01
      9.541  0.2717E-02  0.9277E-01
      9.659  0.2770E-02  0.9309E-01
      9.777  0.2833E-02  0.9342E-01
      9.895  0.3014E-02  0.9376E-01
     10.013  0.3624E-02  0.9415E-01
     10.131  0.3718E-02  0.9460E-01
     10.249  0.3381E-02  0.9502E-01
     10.367  0.3095E-02  0.9540E-01
     10.485  0.2807E-02  0.9575E-01
     10.603  0.2317E-02  0.9605E-01
     10.721  0.2163E-02  0.9631E-01
     10.839  0.2043E-02  0.9656E-01
     10.957  0.1937E-02  0.9679E-01
     11.075  0.2050E-02  0.9703E-01
     11.193  0.2159E-02  0.9728E-01
     11.311  0.2333E-02  0.9754E-01
     11.429  0.2576E-02  0.9783E-01
     11.547  0.2923E-02  0.9815E-01
     11.665  0.3697E-02  0.9853E-01
     11.783  0.5277E-02  0.9907E-01
     11.901  0.6296E-02  0.9975E-01
     12.019  0.8166E-02  0.1006E+00
     12.137  0.8954E-02  0.1016E+00
     12.255  0.9569E-02  0.1027E+00
     12.373  0.1039E-01  0.1039E+00
     12.491  0.9806E-02  0.1051E+00
     12.609  0.9311E-02  0.1062E+00
     12.727  0.1389E-01  0.1074E+00
     12.845  0.1269E-01  0.1091E+00
     12.963  0.8902E-02  0.1103E+00
     13.081  0.5660E-02  0.1112E+00
     13.199  0.5274E-02  0.1118E+00
     13.317  0.4927E-02  0.1124E+00
     13.435  0.4711E-02  0.1130E+00
     13.553  0.4314E-02  0.1135E+00
     13.671  0.3944E-02  0.1140E+00
     13.789  0.3573E-02  0.1144E+00
     13.907  0.3263E-02  0.1148E+00
     14.025  0.3030E-02  0.1152E+00
     14.143  0.2939E-02  0.1156E+00
     14.261  0.3232E-02  0.1159E+00
     14.379  0.4603E-02  0.1164E+00
     14.497  0.3737E-02  0.1169E+00
     14.615  0.3565E-02  0.1173E+00
     14.733  0.3965E-02  0.1178E+00
     14.851  0.5082E-02  0.1183E+00
     14.969  0.3107E-02  0.1187E+00
     15.087  0.2297E-02  0.1190E+00
     15.205  0.1921E-02  0.1193E+00
     15.323  0.1805E-02  0.1195E+00
     15.441  0.1492E-02  0.1197E+00
     15.559  0.9050E-03  0.1198E+00
     15.677  0.5715E-03  0.1199E+00
     15.795  0.2130E-03  0.1200E+00
     15.913  0.7465E-04  0.1200E+00
     16.031  0.9499E-05  0.1200E+00
     16.149  0.1756E-07  0.1200E+00
     16.267  0.0000E+00  0.1200E+00
     16.385  0.0000E+00  0.1200E+00
     16.503  0.0000E+00  0.1200E+00
     16.621  0.0000E+00  0.1200E+00
     16.739  0.0000E+00  0.1200E+00
     16.857  0.0000E+00  0.1200E+00
     16.975  0.0000E+00  0.1200E+00
     17.093  0.0000E+00  0.1200E+00
     17.211  0.0000E+00  0.1200E+00
     17.329  0.0000E+00  0.1200E+00
     17.447  0.0000E+00  0.1200E+00
     17.565  0.0000E+00  0.1200E+00
     17.682  0.0000E+00  0.1200E+00
     17.800  0.0000E+00  0.1200E+00
     17.918  0.0000E+00  0.1200E+00
     18.036  0.0000E+00  0.1200E+00
     18.154  0.0000E+00  0.1200E+00
