 running on    6 total cores
 distrk:  each k-point on    6 cores,    1 groups
 distr:  one band on    3 cores,    2 groups
 using from now: INCAR     
 vasp.5.3.5 31Mar14 (build Nov 02 2014 15:17:37) complex                        
  
 POSCAR found type information on POSCAR  C 
 POSCAR found :  1 types and       4 ions
 scaLAPACK will be used
 LDA part: xc-table for Pade appr. of Perdew
 POSCAR, INCAR and KPOINTS ok, starting setup
 WARNING: small aliasing (wrap around) errors must be expected
 FFT: planning ...
 WAVECAR not read
 WARNING: random wavefunctions but no delay for mixing, default for NELMDL
 entering main loop
       N       E                     dE             d eps       ncg     rms          rms(c)
DAV:   1     0.743817728283E+02    0.74382E+02   -0.10488E+04  5160   0.172E+03
DAV:   2    -0.339120188656E+02   -0.10829E+03   -0.98972E+02  7312   0.270E+02
DAV:   3    -0.392012088037E+02   -0.52892E+01   -0.52366E+01  6528   0.600E+01
DAV:   4    -0.392740090640E+02   -0.72800E-01   -0.72656E-01  6420   0.807E+00
DAV:   5    -0.392756248323E+02   -0.16158E-02   -0.16143E-02  6476   0.117E+00    0.781E+00
DAV:   6    -0.374528348671E+02    0.18228E+01   -0.18010E+00  6036   0.936E+00    0.410E+00
DAV:   7    -0.368683046781E+02    0.58453E+00   -0.18998E+00  6116   0.971E+00    0.689E-01
DAV:   8    -0.368776174847E+02   -0.93128E-02   -0.54248E-02  5928   0.161E+00    0.919E-02
DAV:   9    -0.368778056744E+02   -0.18819E-03   -0.13737E-03  6508   0.309E-01    0.401E-02
DAV:  10    -0.368779695094E+02   -0.16384E-03   -0.19483E-04  6228   0.124E-01    0.622E-03
DAV:  11    -0.368779711573E+02   -0.16479E-05   -0.36983E-06  6708   0.164E-02    0.192E-03
DAV:  12    -0.368779714840E+02   -0.32666E-06   -0.62986E-07  6400   0.688E-03    0.763E-04
DAV:  13    -0.368779715948E+02   -0.11086E-06   -0.16441E-07  6412   0.347E-03    0.128E-04
DAV:  14    -0.368779715925E+02    0.23217E-08   -0.15231E-09  4432   0.403E-04
   1 F= -.37476065E+02 E0= -.37476065E+02  d E =-.374761E+02
 curvature:   0.00 expect dE= 0.000E+00 dE for cont linesearch  0.000E+00
 trial: gam= 0.00000 g(F)=  0.858E-04 g(S)=  0.000E+00 ort = 0.000E+00 (trialstep = 0.100E+01)
 search vector abs. value=  0.858E-04
 reached required accuracy - stopping structural energy minimisation
