<?xml version="1.0" encoding="ISO-8859-1"?>
<modeling>
 <generator>
  <i name="program" type="string">vasp </i>
  <i name="version" type="string">5.3.5  </i>
  <i name="subversion" type="string">31Mar14 (build Nov 02 2014 15:17:37) complex                          parallel </i>
  <i name="platform" type="string">ion-Intel-MKL </i>
  <i name="date" type="string">2016 10 17 </i>
  <i name="time" type="string">10:39:29 </i>
 </generator>
 <incar>
  <i type="string" name="SYSTEM">graphite</i>
  <i type="string" name="PREC">accurate</i>
  <i type="int" name="NELM">   200</i>
  <i type="int" name="IBRION">     2</i>
  <i name="EDIFF">      0.00000001</i>
  <i name="EDIFFG">      0.00100000</i>
  <i type="int" name="NSW">   200</i>
  <i type="int" name="ISIF">     2</i>
  <i name="ENCUT">    800.00000000</i>
  <i type="int" name="ISMEAR">    -5</i>
  <i type="logical" name="LWAVE"> F  </i>
  <i type="logical" name="LCHARG"> F  </i>
  <i type="int" name="NELM">   200</i>
  <i type="string" name="GGA">PE</i>
 </incar>
 <kpoints>
  <generation param="Gamma">
   <v type="int" name="divisions">      12       12        8 </v>
   <v name="usershift">      0.00000000       0.00000000       0.00000000 </v>
   <v name="genvec1">      0.08333333      -0.00000000       0.00000000 </v>
   <v name="genvec2">      0.00000000       0.08333333       0.00000000 </v>
   <v name="genvec3">      0.00000000       0.00000000       0.12500000 </v>
   <v name="shift">      0.00000000       0.00000000       0.00000000 </v>
  </generation>
  <varray name="kpointlist" >
   <v>       0.00000000       0.00000000       0.00000000 </v>
   <v>       0.08333333      -0.00000000       0.00000000 </v>
   <v>       0.16666667      -0.00000000       0.00000000 </v>
   <v>       0.25000000      -0.00000000       0.00000000 </v>
   <v>       0.33333333      -0.00000000       0.00000000 </v>
   <v>       0.41666667       0.00000000       0.00000000 </v>
   <v>       0.50000000      -0.00000000       0.00000000 </v>
   <v>       0.08333333       0.08333333       0.00000000 </v>
   <v>       0.16666667       0.08333333       0.00000000 </v>
   <v>       0.25000000       0.08333333       0.00000000 </v>
   <v>       0.33333333       0.08333333       0.00000000 </v>
   <v>       0.41666667       0.08333333       0.00000000 </v>
   <v>       0.50000000       0.08333333       0.00000000 </v>
   <v>      -0.41666667       0.08333333       0.00000000 </v>
   <v>      -0.33333333       0.08333333       0.00000000 </v>
   <v>      -0.25000000       0.08333333       0.00000000 </v>
   <v>      -0.16666667       0.08333333       0.00000000 </v>
   <v>      -0.08333333       0.08333333       0.00000000 </v>
   <v>       0.16666667       0.16666667       0.00000000 </v>
   <v>       0.25000000       0.16666667       0.00000000 </v>
   <v>       0.33333333       0.16666667       0.00000000 </v>
   <v>       0.41666667       0.16666667       0.00000000 </v>
   <v>       0.50000000       0.16666667       0.00000000 </v>
   <v>      -0.41666667       0.16666667       0.00000000 </v>
   <v>      -0.33333333       0.16666667       0.00000000 </v>
   <v>      -0.25000000       0.16666667       0.00000000 </v>
   <v>      -0.16666667       0.16666667       0.00000000 </v>
   <v>       0.25000000       0.25000000       0.00000000 </v>
   <v>       0.33333333       0.25000000       0.00000000 </v>
   <v>       0.41666667       0.25000000       0.00000000 </v>
   <v>       0.50000000       0.25000000       0.00000000 </v>
   <v>      -0.41666667       0.25000000       0.00000000 </v>
   <v>      -0.33333333       0.25000000       0.00000000 </v>
   <v>      -0.25000000       0.25000000       0.00000000 </v>
   <v>       0.33333333       0.33333333       0.00000000 </v>
   <v>       0.41666667       0.33333333       0.00000000 </v>
   <v>       0.50000000       0.33333333       0.00000000 </v>
   <v>      -0.41666667       0.33333333       0.00000000 </v>
   <v>      -0.33333333       0.33333333       0.00000000 </v>
   <v>       0.41666667       0.41666667       0.00000000 </v>
   <v>       0.50000000       0.41666667       0.00000000 </v>
   <v>      -0.41666667       0.41666667       0.00000000 </v>
   <v>       0.50000000       0.50000000       0.00000000 </v>
   <v>       0.00000000       0.00000000       0.12500000 </v>
   <v>       0.08333333      -0.00000000       0.12500000 </v>
   <v>       0.16666667      -0.00000000       0.12500000 </v>
   <v>       0.25000000      -0.00000000       0.12500000 </v>
   <v>       0.33333333      -0.00000000       0.12500000 </v>
   <v>       0.41666667       0.00000000       0.12500000 </v>
   <v>       0.50000000      -0.00000000       0.12500000 </v>
   <v>       0.08333333       0.08333333       0.12500000 </v>
   <v>       0.16666667       0.08333333       0.12500000 </v>
   <v>       0.25000000       0.08333333       0.12500000 </v>
   <v>       0.33333333       0.08333333       0.12500000 </v>
   <v>       0.41666667       0.08333333       0.12500000 </v>
   <v>       0.50000000       0.08333333       0.12500000 </v>
   <v>      -0.41666667       0.08333333       0.12500000 </v>
   <v>      -0.33333333       0.08333333       0.12500000 </v>
   <v>      -0.25000000       0.08333333       0.12500000 </v>
   <v>      -0.16666667       0.08333333       0.12500000 </v>
   <v>      -0.08333333       0.08333333       0.12500000 </v>
   <v>       0.16666667       0.16666667       0.12500000 </v>
   <v>       0.25000000       0.16666667       0.12500000 </v>
   <v>       0.33333333       0.16666667       0.12500000 </v>
   <v>       0.41666667       0.16666667       0.12500000 </v>
   <v>       0.50000000       0.16666667       0.12500000 </v>
   <v>      -0.41666667       0.16666667       0.12500000 </v>
   <v>      -0.33333333       0.16666667       0.12500000 </v>
   <v>      -0.25000000       0.16666667       0.12500000 </v>
   <v>      -0.16666667       0.16666667       0.12500000 </v>
   <v>       0.25000000       0.25000000       0.12500000 </v>
   <v>       0.33333333       0.25000000       0.12500000 </v>
   <v>       0.41666667       0.25000000       0.12500000 </v>
   <v>       0.50000000       0.25000000       0.12500000 </v>
   <v>      -0.41666667       0.25000000       0.12500000 </v>
   <v>      -0.33333333       0.25000000       0.12500000 </v>
   <v>      -0.25000000       0.25000000       0.12500000 </v>
   <v>       0.33333333       0.33333333       0.12500000 </v>
   <v>       0.41666667       0.33333333       0.12500000 </v>
   <v>       0.50000000       0.33333333       0.12500000 </v>
   <v>      -0.41666667       0.33333333       0.12500000 </v>
   <v>      -0.33333333       0.33333333       0.12500000 </v>
   <v>       0.41666667       0.41666667       0.12500000 </v>
   <v>       0.50000000       0.41666667       0.12500000 </v>
   <v>      -0.41666667       0.41666667       0.12500000 </v>
   <v>       0.50000000       0.50000000       0.12500000 </v>
   <v>       0.00000000       0.00000000       0.25000000 </v>
   <v>       0.08333333      -0.00000000       0.25000000 </v>
   <v>       0.16666667      -0.00000000       0.25000000 </v>
   <v>       0.25000000      -0.00000000       0.25000000 </v>
   <v>       0.33333333      -0.00000000       0.25000000 </v>
   <v>       0.41666667       0.00000000       0.25000000 </v>
   <v>       0.50000000      -0.00000000       0.25000000 </v>
   <v>       0.08333333       0.08333333       0.25000000 </v>
   <v>       0.16666667       0.08333333       0.25000000 </v>
   <v>       0.25000000       0.08333333       0.25000000 </v>
   <v>       0.33333333       0.08333333       0.25000000 </v>
   <v>       0.41666667       0.08333333       0.25000000 </v>
   <v>       0.50000000       0.08333333       0.25000000 </v>
   <v>      -0.41666667       0.08333333       0.25000000 </v>
   <v>      -0.33333333       0.08333333       0.25000000 </v>
   <v>      -0.25000000       0.08333333       0.25000000 </v>
   <v>      -0.16666667       0.08333333       0.25000000 </v>
   <v>      -0.08333333       0.08333333       0.25000000 </v>
   <v>       0.16666667       0.16666667       0.25000000 </v>
   <v>       0.25000000       0.16666667       0.25000000 </v>
   <v>       0.33333333       0.16666667       0.25000000 </v>
   <v>       0.41666667       0.16666667       0.25000000 </v>
   <v>       0.50000000       0.16666667       0.25000000 </v>
   <v>      -0.41666667       0.16666667       0.25000000 </v>
   <v>      -0.33333333       0.16666667       0.25000000 </v>
   <v>      -0.25000000       0.16666667       0.25000000 </v>
   <v>      -0.16666667       0.16666667       0.25000000 </v>
   <v>       0.25000000       0.25000000       0.25000000 </v>
   <v>       0.33333333       0.25000000       0.25000000 </v>
   <v>       0.41666667       0.25000000       0.25000000 </v>
   <v>       0.50000000       0.25000000       0.25000000 </v>
   <v>      -0.41666667       0.25000000       0.25000000 </v>
   <v>      -0.33333333       0.25000000       0.25000000 </v>
   <v>      -0.25000000       0.25000000       0.25000000 </v>
   <v>       0.33333333       0.33333333       0.25000000 </v>
   <v>       0.41666667       0.33333333       0.25000000 </v>
   <v>       0.50000000       0.33333333       0.25000000 </v>
   <v>      -0.41666667       0.33333333       0.25000000 </v>
   <v>      -0.33333333       0.33333333       0.25000000 </v>
   <v>       0.41666667       0.41666667       0.25000000 </v>
   <v>       0.50000000       0.41666667       0.25000000 </v>
   <v>      -0.41666667       0.41666667       0.25000000 </v>
   <v>       0.50000000       0.50000000       0.25000000 </v>
   <v>       0.00000000       0.00000000       0.37500000 </v>
   <v>       0.08333333      -0.00000000       0.37500000 </v>
   <v>       0.16666667      -0.00000000       0.37500000 </v>
   <v>       0.25000000      -0.00000000       0.37500000 </v>
   <v>       0.33333333      -0.00000000       0.37500000 </v>
   <v>       0.41666667       0.00000000       0.37500000 </v>
   <v>       0.50000000      -0.00000000       0.37500000 </v>
   <v>       0.08333333       0.08333333       0.37500000 </v>
   <v>       0.16666667       0.08333333       0.37500000 </v>
   <v>       0.25000000       0.08333333       0.37500000 </v>
   <v>       0.33333333       0.08333333       0.37500000 </v>
   <v>       0.41666667       0.08333333       0.37500000 </v>
   <v>       0.50000000       0.08333333       0.37500000 </v>
   <v>      -0.41666667       0.08333333       0.37500000 </v>
   <v>      -0.33333333       0.08333333       0.37500000 </v>
   <v>      -0.25000000       0.08333333       0.37500000 </v>
   <v>      -0.16666667       0.08333333       0.37500000 </v>
   <v>      -0.08333333       0.08333333       0.37500000 </v>
   <v>       0.16666667       0.16666667       0.37500000 </v>
   <v>       0.25000000       0.16666667       0.37500000 </v>
   <v>       0.33333333       0.16666667       0.37500000 </v>
   <v>       0.41666667       0.16666667       0.37500000 </v>
   <v>       0.50000000       0.16666667       0.37500000 </v>
   <v>      -0.41666667       0.16666667       0.37500000 </v>
   <v>      -0.33333333       0.16666667       0.37500000 </v>
   <v>      -0.25000000       0.16666667       0.37500000 </v>
   <v>      -0.16666667       0.16666667       0.37500000 </v>
   <v>       0.25000000       0.25000000       0.37500000 </v>
   <v>       0.33333333       0.25000000       0.37500000 </v>
   <v>       0.41666667       0.25000000       0.37500000 </v>
   <v>       0.50000000       0.25000000       0.37500000 </v>
   <v>      -0.41666667       0.25000000       0.37500000 </v>
   <v>      -0.33333333       0.25000000       0.37500000 </v>
   <v>      -0.25000000       0.25000000       0.37500000 </v>
   <v>       0.33333333       0.33333333       0.37500000 </v>
   <v>       0.41666667       0.33333333       0.37500000 </v>
   <v>       0.50000000       0.33333333       0.37500000 </v>
   <v>      -0.41666667       0.33333333       0.37500000 </v>
   <v>      -0.33333333       0.33333333       0.37500000 </v>
   <v>       0.41666667       0.41666667       0.37500000 </v>
   <v>       0.50000000       0.41666667       0.37500000 </v>
   <v>      -0.41666667       0.41666667       0.37500000 </v>
   <v>       0.50000000       0.50000000       0.37500000 </v>
   <v>       0.00000000       0.00000000       0.50000000 </v>
   <v>       0.08333333      -0.00000000       0.50000000 </v>
   <v>       0.16666667      -0.00000000       0.50000000 </v>
   <v>       0.25000000      -0.00000000       0.50000000 </v>
   <v>       0.33333333      -0.00000000       0.50000000 </v>
   <v>       0.41666667       0.00000000       0.50000000 </v>
   <v>       0.50000000      -0.00000000       0.50000000 </v>
   <v>       0.08333333       0.08333333       0.50000000 </v>
   <v>       0.16666667       0.08333333       0.50000000 </v>
   <v>       0.25000000       0.08333333       0.50000000 </v>
   <v>       0.33333333       0.08333333       0.50000000 </v>
   <v>       0.41666667       0.08333333       0.50000000 </v>
   <v>       0.50000000       0.08333333       0.50000000 </v>
   <v>      -0.41666667       0.08333333       0.50000000 </v>
   <v>      -0.33333333       0.08333333       0.50000000 </v>
   <v>      -0.25000000       0.08333333       0.50000000 </v>
   <v>      -0.16666667       0.08333333       0.50000000 </v>
   <v>      -0.08333333       0.08333333       0.50000000 </v>
   <v>       0.16666667       0.16666667       0.50000000 </v>
   <v>       0.25000000       0.16666667       0.50000000 </v>
   <v>       0.33333333       0.16666667       0.50000000 </v>
   <v>       0.41666667       0.16666667       0.50000000 </v>
   <v>       0.50000000       0.16666667       0.50000000 </v>
   <v>      -0.41666667       0.16666667       0.50000000 </v>
   <v>      -0.33333333       0.16666667       0.50000000 </v>
   <v>      -0.25000000       0.16666667       0.50000000 </v>
   <v>      -0.16666667       0.16666667       0.50000000 </v>
   <v>       0.25000000       0.25000000       0.50000000 </v>
   <v>       0.33333333       0.25000000       0.50000000 </v>
   <v>       0.41666667       0.25000000       0.50000000 </v>
   <v>       0.50000000       0.25000000       0.50000000 </v>
   <v>      -0.41666667       0.25000000       0.50000000 </v>
   <v>      -0.33333333       0.25000000       0.50000000 </v>
   <v>      -0.25000000       0.25000000       0.50000000 </v>
   <v>       0.33333333       0.33333333       0.50000000 </v>
   <v>       0.41666667       0.33333333       0.50000000 </v>
   <v>       0.50000000       0.33333333       0.50000000 </v>
   <v>      -0.41666667       0.33333333       0.50000000 </v>
   <v>      -0.33333333       0.33333333       0.50000000 </v>
   <v>       0.41666667       0.41666667       0.50000000 </v>
   <v>       0.50000000       0.41666667       0.50000000 </v>
   <v>      -0.41666667       0.41666667       0.50000000 </v>
   <v>       0.50000000       0.50000000       0.50000000 </v>
  </varray>
  <varray name="weights" >
   <v>       0.00086806 </v>
   <v>       0.00347222 </v>
   <v>       0.00347222 </v>
   <v>       0.00347222 </v>
   <v>       0.00347222 </v>
   <v>       0.00347222 </v>
   <v>       0.00173611 </v>
   <v>       0.00173611 </v>
   <v>       0.00347222 </v>
   <v>       0.00347222 </v>
   <v>       0.00347222 </v>
   <v>       0.00347222 </v>
   <v>       0.00347222 </v>
   <v>       0.00347222 </v>
   <v>       0.00347222 </v>
   <v>       0.00347222 </v>
   <v>       0.00347222 </v>
   <v>       0.00173611 </v>
   <v>       0.00173611 </v>
   <v>       0.00347222 </v>
   <v>       0.00347222 </v>
   <v>       0.00347222 </v>
   <v>       0.00347222 </v>
   <v>       0.00347222 </v>
   <v>       0.00347222 </v>
   <v>       0.00347222 </v>
   <v>       0.00173611 </v>
   <v>       0.00173611 </v>
   <v>       0.00347222 </v>
   <v>       0.00347222 </v>
   <v>       0.00347222 </v>
   <v>       0.00347222 </v>
   <v>       0.00347222 </v>
   <v>       0.00173611 </v>
   <v>       0.00173611 </v>
   <v>       0.00347222 </v>
   <v>       0.00347222 </v>
   <v>       0.00347222 </v>
   <v>       0.00173611 </v>
   <v>       0.00173611 </v>
   <v>       0.00347222 </v>
   <v>       0.00173611 </v>
   <v>       0.00086806 </v>
   <v>       0.00173611 </v>
   <v>       0.00694444 </v>
   <v>       0.00694444 </v>
   <v>       0.00694444 </v>
   <v>       0.00694444 </v>
   <v>       0.00694444 </v>
   <v>       0.00347222 </v>
   <v>       0.00347222 </v>
   <v>       0.00694444 </v>
   <v>       0.00694444 </v>
   <v>       0.00694444 </v>
   <v>       0.00694444 </v>
   <v>       0.00694444 </v>
   <v>       0.00694444 </v>
   <v>       0.00694444 </v>
   <v>       0.00694444 </v>
   <v>       0.00694444 </v>
   <v>       0.00347222 </v>
   <v>       0.00347222 </v>
   <v>       0.00694444 </v>
   <v>       0.00694444 </v>
   <v>       0.00694444 </v>
   <v>       0.00694444 </v>
   <v>       0.00694444 </v>
   <v>       0.00694444 </v>
   <v>       0.00694444 </v>
   <v>       0.00347222 </v>
   <v>       0.00347222 </v>
   <v>       0.00694444 </v>
   <v>       0.00694444 </v>
   <v>       0.00694444 </v>
   <v>       0.00694444 </v>
   <v>       0.00694444 </v>
   <v>       0.00347222 </v>
   <v>       0.00347222 </v>
   <v>       0.00694444 </v>
   <v>       0.00694444 </v>
   <v>       0.00694444 </v>
   <v>       0.00347222 </v>
   <v>       0.00347222 </v>
   <v>       0.00694444 </v>
   <v>       0.00347222 </v>
   <v>       0.00173611 </v>
   <v>       0.00173611 </v>
   <v>       0.00694444 </v>
   <v>       0.00694444 </v>
   <v>       0.00694444 </v>
   <v>       0.00694444 </v>
   <v>       0.00694444 </v>
   <v>       0.00347222 </v>
   <v>       0.00347222 </v>
   <v>       0.00694444 </v>
   <v>       0.00694444 </v>
   <v>       0.00694444 </v>
   <v>       0.00694444 </v>
   <v>       0.00694444 </v>
   <v>       0.00694444 </v>
   <v>       0.00694444 </v>
   <v>       0.00694444 </v>
   <v>       0.00694444 </v>
   <v>       0.00347222 </v>
   <v>       0.00347222 </v>
   <v>       0.00694444 </v>
   <v>       0.00694444 </v>
   <v>       0.00694444 </v>
   <v>       0.00694444 </v>
   <v>       0.00694444 </v>
   <v>       0.00694444 </v>
   <v>       0.00694444 </v>
   <v>       0.00347222 </v>
   <v>       0.00347222 </v>
   <v>       0.00694444 </v>
   <v>       0.00694444 </v>
   <v>       0.00694444 </v>
   <v>       0.00694444 </v>
   <v>       0.00694444 </v>
   <v>       0.00347222 </v>
   <v>       0.00347222 </v>
   <v>       0.00694444 </v>
   <v>       0.00694444 </v>
   <v>       0.00694444 </v>
   <v>       0.00347222 </v>
   <v>       0.00347222 </v>
   <v>       0.00694444 </v>
   <v>       0.00347222 </v>
   <v>       0.00173611 </v>
   <v>       0.00173611 </v>
   <v>       0.00694444 </v>
   <v>       0.00694444 </v>
   <v>       0.00694444 </v>
   <v>       0.00694444 </v>
   <v>       0.00694444 </v>
   <v>       0.00347222 </v>
   <v>       0.00347222 </v>
   <v>       0.00694444 </v>
   <v>       0.00694444 </v>
   <v>       0.00694444 </v>
   <v>       0.00694444 </v>
   <v>       0.00694444 </v>
   <v>       0.00694444 </v>
   <v>       0.00694444 </v>
   <v>       0.00694444 </v>
   <v>       0.00694444 </v>
   <v>       0.00347222 </v>
   <v>       0.00347222 </v>
   <v>       0.00694444 </v>
   <v>       0.00694444 </v>
   <v>       0.00694444 </v>
   <v>       0.00694444 </v>
   <v>       0.00694444 </v>
   <v>       0.00694444 </v>
   <v>       0.00694444 </v>
   <v>       0.00347222 </v>
   <v>       0.00347222 </v>
   <v>       0.00694444 </v>
   <v>       0.00694444 </v>
   <v>       0.00694444 </v>
   <v>       0.00694444 </v>
   <v>       0.00694444 </v>
   <v>       0.00347222 </v>
   <v>       0.00347222 </v>
   <v>       0.00694444 </v>
   <v>       0.00694444 </v>
   <v>       0.00694444 </v>
   <v>       0.00347222 </v>
   <v>       0.00347222 </v>
   <v>       0.00694444 </v>
   <v>       0.00347222 </v>
   <v>       0.00173611 </v>
   <v>       0.00086806 </v>
   <v>       0.00347222 </v>
   <v>       0.00347222 </v>
   <v>       0.00347222 </v>
   <v>       0.00347222 </v>
   <v>       0.00347222 </v>
   <v>       0.00173611 </v>
   <v>       0.00173611 </v>
   <v>       0.00347222 </v>
   <v>       0.00347222 </v>
   <v>       0.00347222 </v>
   <v>       0.00347222 </v>
   <v>       0.00347222 </v>
   <v>       0.00347222 </v>
   <v>       0.00347222 </v>
   <v>       0.00347222 </v>
   <v>       0.00347222 </v>
   <v>       0.00173611 </v>
   <v>       0.00173611 </v>
   <v>       0.00347222 </v>
   <v>       0.00347222 </v>
   <v>       0.00347222 </v>
   <v>       0.00347222 </v>
   <v>       0.00347222 </v>
   <v>       0.00347222 </v>
   <v>       0.00347222 </v>
   <v>       0.00173611 </v>
   <v>       0.00173611 </v>
   <v>       0.00347222 </v>
   <v>       0.00347222 </v>
   <v>       0.00347222 </v>
   <v>       0.00347222 </v>
   <v>       0.00347222 </v>
   <v>       0.00173611 </v>
   <v>       0.00173611 </v>
   <v>       0.00347222 </v>
   <v>       0.00347222 </v>
   <v>       0.00347222 </v>
   <v>       0.00173611 </v>
   <v>       0.00173611 </v>
   <v>       0.00347222 </v>
   <v>       0.00173611 </v>
   <v>       0.00086806 </v>
  </varray>
  <varray name="tetrahedronlist"  type="int" >
   <v type="int" >        4        2        2        8       45 </v>
   <v type="int" >        4        1        2        2       45 </v>
   <v type="int" >        4        1        2       44       45 </v>
   <v type="int" >        4        2        8       45       51 </v>
   <v type="int" >        4        2       45       45       51 </v>
   <v type="int" >        4        2       44       45       45 </v>
   <v type="int" >        4        3        8        9       51 </v>
   <v type="int" >        4        2        3        8       51 </v>
   <v type="int" >        4        2        3       45       51 </v>
   <v type="int" >        4        3        9       51       52 </v>
   <v type="int" >        4        3       46       51       52 </v>
   <v type="int" >        4        3       45       46       51 </v>
   <v type="int" >        4        4        9       10       52 </v>
   <v type="int" >        4        3        4        9       52 </v>
   <v type="int" >        4        3        4       46       52 </v>
   <v type="int" >        4        4       10       52       53 </v>
   <v type="int" >        4        4       47       52       53 </v>
   <v type="int" >        4        4       46       47       52 </v>
   <v type="int" >        4        5       10       11       53 </v>
   <v type="int" >        4        4        5       10       53 </v>
   <v type="int" >        4        4        5       47       53 </v>
   <v type="int" >        4        5       11       53       54 </v>
   <v type="int" >        4        5       48       53       54 </v>
   <v type="int" >        4        5       47       48       53 </v>
   <v type="int" >        4        6       11       12       54 </v>
   <v type="int" >        4        5        6       11       54 </v>
   <v type="int" >        4        5        6       48       54 </v>
   <v type="int" >        4        6       12       54       55 </v>
   <v type="int" >        4        6       49       54       55 </v>
   <v type="int" >        4        6       48       49       54 </v>
   <v type="int" >        4        7       12       13       55 </v>
   <v type="int" >        4        6        7       12       55 </v>
   <v type="int" >        4        6        7       49       55 </v>
   <v type="int" >        4        7       13       55       56 </v>
   <v type="int" >        4        7       50       55       56 </v>
   <v type="int" >        4        7       49       50       55 </v>
   <v type="int" >        4        6       13       14       56 </v>
   <v type="int" >        4        6        7       13       56 </v>
   <v type="int" >        4        6        7       50       56 </v>
   <v type="int" >        4        6       14       56       57 </v>
   <v type="int" >        4        6       49       56       57 </v>
   <v type="int" >        4        6       49       50       56 </v>
   <v type="int" >        4        5       14       15       57 </v>
   <v type="int" >        4        5        6       14       57 </v>
   <v type="int" >        4        5        6       49       57 </v>
   <v type="int" >        4        5       15       57       58 </v>
   <v type="int" >        4        5       48       57       58 </v>
   <v type="int" >        4        5       48       49       57 </v>
   <v type="int" >        4        4       15       16       58 </v>
   <v type="int" >        4        4        5       15       58 </v>
   <v type="int" >        4        4        5       48       58 </v>
   <v type="int" >        4        4       16       58       59 </v>
   <v type="int" >        4        4       47       58       59 </v>
   <v type="int" >        4        4       47       48       58 </v>
   <v type="int" >        4        3       16       17       59 </v>
   <v type="int" >        4        3        4       16       59 </v>
   <v type="int" >        4        3        4       47       59 </v>
   <v type="int" >        4        3       17       59       60 </v>
   <v type="int" >        4        3       46       59       60 </v>
   <v type="int" >        4        3       46       47       59 </v>
   <v type="int" >        4        2       17       18       60 </v>
   <v type="int" >        4        2        3       17       60 </v>
   <v type="int" >        4        2        3       46       60 </v>
   <v type="int" >        4        2       18       60       61 </v>
   <v type="int" >        4        2       45       60       61 </v>
   <v type="int" >        4        2       45       46       60 </v>
   <v type="int" >        4        1        2       18       61 </v>
   <v type="int" >        4        1        2       45       61 </v>
   <v type="int" >        4        1       44       45       61 </v>
   <v type="int" >        4        3        8        9       46 </v>
   <v type="int" >        4        2        3        8       46 </v>
   <v type="int" >        4        2        8       45       46 </v>
   <v type="int" >        4        8        9       46       52 </v>
   <v type="int" >        4        8       46       51       52 </v>
   <v type="int" >        4        8       45       46       51 </v>
   <v type="int" >        4        9        9       19       52 </v>
   <v type="int" >        4        8        9        9       52 </v>
   <v type="int" >        4        8        9       51       52 </v>
   <v type="int" >        4        9       19       52       62 </v>
   <v type="int" >        4        9       52       52       62 </v>
   <v type="int" >        4        9       51       52       52 </v>
   <v type="int" >        4       10       19       20       62 </v>
   <v type="int" >        4        9       10       19       62 </v>
   <v type="int" >        4        9       10       52       62 </v>
   <v type="int" >        4       10       20       62       63 </v>
   <v type="int" >        4       10       53       62       63 </v>
   <v type="int" >        4       10       52       53       62 </v>
   <v type="int" >        4       11       20       21       63 </v>
   <v type="int" >        4       10       11       20       63 </v>
   <v type="int" >        4       10       11       53       63 </v>
   <v type="int" >        4       11       21       63       64 </v>
   <v type="int" >        4       11       54       63       64 </v>
   <v type="int" >        4       11       53       54       63 </v>
   <v type="int" >        4       12       21       22       64 </v>
   <v type="int" >        4       11       12       21       64 </v>
   <v type="int" >        4       11       12       54       64 </v>
   <v type="int" >        4       12       22       64       65 </v>
   <v type="int" >        4       12       55       64       65 </v>
   <v type="int" >        4       12       54       55       64 </v>
   <v type="int" >        4       13       22       23       65 </v>
   <v type="int" >        4       12       13       22       65 </v>
   <v type="int" >        4       12       13       55       65 </v>
   <v type="int" >        4       13       23       65       66 </v>
   <v type="int" >        4       13       56       65       66 </v>
   <v type="int" >        4       13       55       56       65 </v>
   <v type="int" >        4       14       23       24       66 </v>
   <v type="int" >        4       13       14       23       66 </v>
   <v type="int" >        4       13       14       56       66 </v>
   <v type="int" >        4       14       24       66       67 </v>
   <v type="int" >        4       14       57       66       67 </v>
   <v type="int" >        4       14       56       57       66 </v>
   <v type="int" >        4       15       24       25       67 </v>
   <v type="int" >        4       14       15       24       67 </v>
   <v type="int" >        4       14       15       57       67 </v>
   <v type="int" >        4       15       25       67       68 </v>
   <v type="int" >        4       15       58       67       68 </v>
   <v type="int" >        4       15       57       58       67 </v>
   <v type="int" >        4       16       25       26       68 </v>
   <v type="int" >        4       15       16       25       68 </v>
   <v type="int" >        4       15       16       58       68 </v>
   <v type="int" >        4       16       26       68       69 </v>
   <v type="int" >        4       16       59       68       69 </v>
   <v type="int" >        4       16       58       59       68 </v>
   <v type="int" >        4       17       26       27       69 </v>
   <v type="int" >        4       16       17       26       69 </v>
   <v type="int" >        4       16       17       59       69 </v>
   <v type="int" >        4       17       27       69       70 </v>
   <v type="int" >        4       17       60       69       70 </v>
   <v type="int" >        4       17       59       60       69 </v>
   <v type="int" >        4       17       18       27       70 </v>
   <v type="int" >        4       17       18       60       70 </v>
   <v type="int" >        4       18       60       61       70 </v>
   <v type="int" >        4        4        9       10       47 </v>
   <v type="int" >        4        3        4        9       47 </v>
   <v type="int" >        4        3        9       46       47 </v>
   <v type="int" >        4        9       10       47       53 </v>
   <v type="int" >        4        9       47       52       53 </v>
   <v type="int" >        4        9       46       47       52 </v>
   <v type="int" >        4       10       19       20       53 </v>
   <v type="int" >        4        9       10       19       53 </v>
   <v type="int" >        4        9       19       52       53 </v>
   <v type="int" >        4       19       20       53       63 </v>
   <v type="int" >        4       19       53       62       63 </v>
   <v type="int" >        4       19       52       53       62 </v>
   <v type="int" >        4       20       20       28       63 </v>
   <v type="int" >        4       19       20       20       63 </v>
   <v type="int" >        4       19       20       62       63 </v>
   <v type="int" >        4       20       28       63       71 </v>
   <v type="int" >        4       20       63       63       71 </v>
   <v type="int" >        4       20       62       63       63 </v>
   <v type="int" >        4       21       28       29       71 </v>
   <v type="int" >        4       20       21       28       71 </v>
   <v type="int" >        4       20       21       63       71 </v>
   <v type="int" >        4       21       29       71       72 </v>
   <v type="int" >        4       21       64       71       72 </v>
   <v type="int" >        4       21       63       64       71 </v>
   <v type="int" >        4       22       29       30       72 </v>
   <v type="int" >        4       21       22       29       72 </v>
   <v type="int" >        4       21       22       64       72 </v>
   <v type="int" >        4       22       30       72       73 </v>
   <v type="int" >        4       22       65       72       73 </v>
   <v type="int" >        4       22       64       65       72 </v>
   <v type="int" >        4       23       30       31       73 </v>
   <v type="int" >        4       22       23       30       73 </v>
   <v type="int" >        4       22       23       65       73 </v>
   <v type="int" >        4       23       31       73       74 </v>
   <v type="int" >        4       23       66       73       74 </v>
   <v type="int" >        4       23       65       66       73 </v>
   <v type="int" >        4       24       31       32       74 </v>
   <v type="int" >        4       23       24       31       74 </v>
   <v type="int" >        4       23       24       66       74 </v>
   <v type="int" >        4       24       32       74       75 </v>
   <v type="int" >        4       24       67       74       75 </v>
   <v type="int" >        4       24       66       67       74 </v>
   <v type="int" >        4       25       32       33       75 </v>
   <v type="int" >        4       24       25       32       75 </v>
   <v type="int" >        4       24       25       67       75 </v>
   <v type="int" >        4       25       33       75       76 </v>
   <v type="int" >        4       25       68       75       76 </v>
   <v type="int" >        4       25       67       68       75 </v>
   <v type="int" >        4       26       33       34       76 </v>
   <v type="int" >        4       25       26       33       76 </v>
   <v type="int" >        4       25       26       68       76 </v>
   <v type="int" >        4       26       34       76       77 </v>
   <v type="int" >        4       26       69       76       77 </v>
   <v type="int" >        4       26       68       69       76 </v>
   <v type="int" >        4       26       27       34       77 </v>
   <v type="int" >        4       26       27       69       77 </v>
   <v type="int" >        4       27       69       70       77 </v>
   <v type="int" >        4        5       10       11       48 </v>
   <v type="int" >        4        4        5       10       48 </v>
   <v type="int" >        4        4       10       47       48 </v>
   <v type="int" >        4       10       11       48       54 </v>
   <v type="int" >        4       10       48       53       54 </v>
   <v type="int" >        4       10       47       48       53 </v>
   <v type="int" >        4       11       20       21       54 </v>
   <v type="int" >        4       10       11       20       54 </v>
   <v type="int" >        4       10       20       53       54 </v>
   <v type="int" >        4       20       21       54       64 </v>
   <v type="int" >        4       20       54       63       64 </v>
   <v type="int" >        4       20       53       54       63 </v>
   <v type="int" >        4       21       28       29       64 </v>
   <v type="int" >        4       20       21       28       64 </v>
   <v type="int" >        4       20       28       63       64 </v>
   <v type="int" >        4       28       29       64       72 </v>
   <v type="int" >        4       28       64       71       72 </v>
   <v type="int" >        4       28       63       64       71 </v>
   <v type="int" >        4       29       29       35       72 </v>
   <v type="int" >        4       28       29       29       72 </v>
   <v type="int" >        4       28       29       71       72 </v>
   <v type="int" >        4       29       35       72       78 </v>
   <v type="int" >        4       29       72       72       78 </v>
   <v type="int" >        4       29       71       72       72 </v>
   <v type="int" >        4       30       35       36       78 </v>
   <v type="int" >        4       29       30       35       78 </v>
   <v type="int" >        4       29       30       72       78 </v>
   <v type="int" >        4       30       36       78       79 </v>
   <v type="int" >        4       30       73       78       79 </v>
   <v type="int" >        4       30       72       73       78 </v>
   <v type="int" >        4       31       36       37       79 </v>
   <v type="int" >        4       30       31       36       79 </v>
   <v type="int" >        4       30       31       73       79 </v>
   <v type="int" >        4       31       37       79       80 </v>
   <v type="int" >        4       31       74       79       80 </v>
   <v type="int" >        4       31       73       74       79 </v>
   <v type="int" >        4       32       37       38       80 </v>
   <v type="int" >        4       31       32       37       80 </v>
   <v type="int" >        4       31       32       74       80 </v>
   <v type="int" >        4       32       38       80       81 </v>
   <v type="int" >        4       32       75       80       81 </v>
   <v type="int" >        4       32       74       75       80 </v>
   <v type="int" >        4       33       38       39       81 </v>
   <v type="int" >        4       32       33       38       81 </v>
   <v type="int" >        4       32       33       75       81 </v>
   <v type="int" >        4       33       39       81       82 </v>
   <v type="int" >        4       33       76       81       82 </v>
   <v type="int" >        4       33       75       76       81 </v>
   <v type="int" >        4       33       34       39       82 </v>
   <v type="int" >        4       33       34       76       82 </v>
   <v type="int" >        4       34       76       77       82 </v>
   <v type="int" >        4        6       11       12       49 </v>
   <v type="int" >        4        5        6       11       49 </v>
   <v type="int" >        4        5       11       48       49 </v>
   <v type="int" >        4       11       12       49       55 </v>
   <v type="int" >        4       11       49       54       55 </v>
   <v type="int" >        4       11       48       49       54 </v>
   <v type="int" >        4       12       21       22       55 </v>
   <v type="int" >        4       11       12       21       55 </v>
   <v type="int" >        4       11       21       54       55 </v>
   <v type="int" >        4       21       22       55       65 </v>
   <v type="int" >        4       21       55       64       65 </v>
   <v type="int" >        4       21       54       55       64 </v>
   <v type="int" >        4       22       29       30       65 </v>
   <v type="int" >        4       21       22       29       65 </v>
   <v type="int" >        4       21       29       64       65 </v>
   <v type="int" >        4       29       30       65       73 </v>
   <v type="int" >        4       29       65       72       73 </v>
   <v type="int" >        4       29       64       65       72 </v>
   <v type="int" >        4       30       35       36       73 </v>
   <v type="int" >        4       29       30       35       73 </v>
   <v type="int" >        4       29       35       72       73 </v>
   <v type="int" >        4       35       36       73       79 </v>
   <v type="int" >        4       35       73       78       79 </v>
   <v type="int" >        4       35       72       73       78 </v>
   <v type="int" >        4       36       36       40       79 </v>
   <v type="int" >        4       35       36       36       79 </v>
   <v type="int" >        4       35       36       78       79 </v>
   <v type="int" >        4       36       40       79       83 </v>
   <v type="int" >        4       36       79       79       83 </v>
   <v type="int" >        4       36       78       79       79 </v>
   <v type="int" >        4       37       40       41       83 </v>
   <v type="int" >        4       36       37       40       83 </v>
   <v type="int" >        4       36       37       79       83 </v>
   <v type="int" >        4       37       41       83       84 </v>
   <v type="int" >        4       37       80       83       84 </v>
   <v type="int" >        4       37       79       80       83 </v>
   <v type="int" >        4       38       41       42       84 </v>
   <v type="int" >        4       37       38       41       84 </v>
   <v type="int" >        4       37       38       80       84 </v>
   <v type="int" >        4       38       42       84       85 </v>
   <v type="int" >        4       38       81       84       85 </v>
   <v type="int" >        4       38       80       81       84 </v>
   <v type="int" >        4       38       39       42       85 </v>
   <v type="int" >        4       38       39       81       85 </v>
   <v type="int" >        4       39       81       82       85 </v>
   <v type="int" >        4        7       12       13       50 </v>
   <v type="int" >        4        6        7       12       50 </v>
   <v type="int" >        4        6       12       49       50 </v>
   <v type="int" >        4       12       13       50       56 </v>
   <v type="int" >        4       12       50       55       56 </v>
   <v type="int" >        4       12       49       50       55 </v>
   <v type="int" >        4       13       22       23       56 </v>
   <v type="int" >        4       12       13       22       56 </v>
   <v type="int" >        4       12       22       55       56 </v>
   <v type="int" >        4       22       23       56       66 </v>
   <v type="int" >        4       22       56       65       66 </v>
   <v type="int" >        4       22       55       56       65 </v>
   <v type="int" >        4       23       30       31       66 </v>
   <v type="int" >        4       22       23       30       66 </v>
   <v type="int" >        4       22       30       65       66 </v>
   <v type="int" >        4       30       31       66       74 </v>
   <v type="int" >        4       30       66       73       74 </v>
   <v type="int" >        4       30       65       66       73 </v>
   <v type="int" >        4       31       36       37       74 </v>
   <v type="int" >        4       30       31       36       74 </v>
   <v type="int" >        4       30       36       73       74 </v>
   <v type="int" >        4       36       37       74       80 </v>
   <v type="int" >        4       36       74       79       80 </v>
   <v type="int" >        4       36       73       74       79 </v>
   <v type="int" >        4       37       40       41       80 </v>
   <v type="int" >        4       36       37       40       80 </v>
   <v type="int" >        4       36       40       79       80 </v>
   <v type="int" >        4       40       41       80       84 </v>
   <v type="int" >        4       40       80       83       84 </v>
   <v type="int" >        4       40       79       80       83 </v>
   <v type="int" >        4       41       41       43       84 </v>
   <v type="int" >        4       40       41       41       84 </v>
   <v type="int" >        4       40       41       83       84 </v>
   <v type="int" >        4       41       43       84       86 </v>
   <v type="int" >        4       41       84       84       86 </v>
   <v type="int" >        4       41       83       84       84 </v>
   <v type="int" >        4       41       42       43       86 </v>
   <v type="int" >        4       41       42       84       86 </v>
   <v type="int" >        4       42       84       85       86 </v>
   <v type="int" >        4        6       13       14       49 </v>
   <v type="int" >        4        6        7       13       49 </v>
   <v type="int" >        4        7       13       49       50 </v>
   <v type="int" >        4       13       14       49       57 </v>
   <v type="int" >        4       13       49       56       57 </v>
   <v type="int" >        4       13       49       50       56 </v>
   <v type="int" >        4       14       23       24       57 </v>
   <v type="int" >        4       13       14       23       57 </v>
   <v type="int" >        4       13       23       56       57 </v>
   <v type="int" >        4       23       24       57       67 </v>
   <v type="int" >        4       23       57       66       67 </v>
   <v type="int" >        4       23       56       57       66 </v>
   <v type="int" >        4       24       31       32       67 </v>
   <v type="int" >        4       23       24       31       67 </v>
   <v type="int" >        4       23       31       66       67 </v>
   <v type="int" >        4       31       32       67       75 </v>
   <v type="int" >        4       31       67       74       75 </v>
   <v type="int" >        4       31       66       67       74 </v>
   <v type="int" >        4       32       37       38       75 </v>
   <v type="int" >        4       31       32       37       75 </v>
   <v type="int" >        4       31       37       74       75 </v>
   <v type="int" >        4       37       38       75       81 </v>
   <v type="int" >        4       37       75       80       81 </v>
   <v type="int" >        4       37       74       75       80 </v>
   <v type="int" >        4       38       41       42       81 </v>
   <v type="int" >        4       37       38       41       81 </v>
   <v type="int" >        4       37       41       80       81 </v>
   <v type="int" >        4       41       42       81       85 </v>
   <v type="int" >        4       41       81       84       85 </v>
   <v type="int" >        4       41       80       81       84 </v>
   <v type="int" >        4       41       42       43       85 </v>
   <v type="int" >        4       41       43       84       85 </v>
   <v type="int" >        4       43       84       85       86 </v>
   <v type="int" >        4        5       14       15       48 </v>
   <v type="int" >        4        5        6       14       48 </v>
   <v type="int" >        4        6       14       48       49 </v>
   <v type="int" >        4       14       15       48       58 </v>
   <v type="int" >        4       14       48       57       58 </v>
   <v type="int" >        4       14       48       49       57 </v>
   <v type="int" >        4       15       24       25       58 </v>
   <v type="int" >        4       14       15       24       58 </v>
   <v type="int" >        4       14       24       57       58 </v>
   <v type="int" >        4       24       25       58       68 </v>
   <v type="int" >        4       24       58       67       68 </v>
   <v type="int" >        4       24       57       58       67 </v>
   <v type="int" >        4       25       32       33       68 </v>
   <v type="int" >        4       24       25       32       68 </v>
   <v type="int" >        4       24       32       67       68 </v>
   <v type="int" >        4       32       33       68       76 </v>
   <v type="int" >        4       32       68       75       76 </v>
   <v type="int" >        4       32       67       68       75 </v>
   <v type="int" >        4       33       38       39       76 </v>
   <v type="int" >        4       32       33       38       76 </v>
   <v type="int" >        4       32       38       75       76 </v>
   <v type="int" >        4       38       39       76       82 </v>
   <v type="int" >        4       38       76       81       82 </v>
   <v type="int" >        4       38       75       76       81 </v>
   <v type="int" >        4       38       39       42       82 </v>
   <v type="int" >        4       38       42       81       82 </v>
   <v type="int" >        4       42       81       82       85 </v>
   <v type="int" >        4        4       15       16       47 </v>
   <v type="int" >        4        4        5       15       47 </v>
   <v type="int" >        4        5       15       47       48 </v>
   <v type="int" >        4       15       16       47       59 </v>
   <v type="int" >        4       15       47       58       59 </v>
   <v type="int" >        4       15       47       48       58 </v>
   <v type="int" >        4       16       25       26       59 </v>
   <v type="int" >        4       15       16       25       59 </v>
   <v type="int" >        4       15       25       58       59 </v>
   <v type="int" >        4       25       26       59       69 </v>
   <v type="int" >        4       25       59       68       69 </v>
   <v type="int" >        4       25       58       59       68 </v>
   <v type="int" >        4       26       33       34       69 </v>
   <v type="int" >        4       25       26       33       69 </v>
   <v type="int" >        4       25       33       68       69 </v>
   <v type="int" >        4       33       34       69       77 </v>
   <v type="int" >        4       33       69       76       77 </v>
   <v type="int" >        4       33       68       69       76 </v>
   <v type="int" >        4       33       34       39       77 </v>
   <v type="int" >        4       33       39       76       77 </v>
   <v type="int" >        4       39       76       77       82 </v>
   <v type="int" >        4        3       16       17       46 </v>
   <v type="int" >        4        3        4       16       46 </v>
   <v type="int" >        4        4       16       46       47 </v>
   <v type="int" >        4       16       17       46       60 </v>
   <v type="int" >        4       16       46       59       60 </v>
   <v type="int" >        4       16       46       47       59 </v>
   <v type="int" >        4       17       26       27       60 </v>
   <v type="int" >        4       16       17       26       60 </v>
   <v type="int" >        4       16       26       59       60 </v>
   <v type="int" >        4       26       27       60       70 </v>
   <v type="int" >        4       26       60       69       70 </v>
   <v type="int" >        4       26       59       60       69 </v>
   <v type="int" >        4       26       27       34       70 </v>
   <v type="int" >        4       26       34       69       70 </v>
   <v type="int" >        4       34       69       70       77 </v>
   <v type="int" >        4        2       17       18       45 </v>
   <v type="int" >        4        2        3       17       45 </v>
   <v type="int" >        4        3       17       45       46 </v>
   <v type="int" >        4       17       18       45       61 </v>
   <v type="int" >        4       17       45       60       61 </v>
   <v type="int" >        4       17       45       46       60 </v>
   <v type="int" >        4       17       18       27       61 </v>
   <v type="int" >        4       17       27       60       61 </v>
   <v type="int" >        4       27       60       61       70 </v>
   <v type="int" >        4        1        2       18       44 </v>
   <v type="int" >        4        2       18       44       45 </v>
   <v type="int" >        4       18       44       45       61 </v>
   <v type="int" >        4       45       45       51       88 </v>
   <v type="int" >        4       44       45       45       88 </v>
   <v type="int" >        4       44       45       87       88 </v>
   <v type="int" >        4       45       51       88       94 </v>
   <v type="int" >        4       45       88       88       94 </v>
   <v type="int" >        4       45       87       88       88 </v>
   <v type="int" >        4       46       51       52       94 </v>
   <v type="int" >        4       45       46       51       94 </v>
   <v type="int" >        4       45       46       88       94 </v>
   <v type="int" >        4       46       52       94       95 </v>
   <v type="int" >        4       46       89       94       95 </v>
   <v type="int" >        4       46       88       89       94 </v>
   <v type="int" >        4       47       52       53       95 </v>
   <v type="int" >        4       46       47       52       95 </v>
   <v type="int" >        4       46       47       89       95 </v>
   <v type="int" >        4       47       53       95       96 </v>
   <v type="int" >        4       47       90       95       96 </v>
   <v type="int" >        4       47       89       90       95 </v>
   <v type="int" >        4       48       53       54       96 </v>
   <v type="int" >        4       47       48       53       96 </v>
   <v type="int" >        4       47       48       90       96 </v>
   <v type="int" >        4       48       54       96       97 </v>
   <v type="int" >        4       48       91       96       97 </v>
   <v type="int" >        4       48       90       91       96 </v>
   <v type="int" >        4       49       54       55       97 </v>
   <v type="int" >        4       48       49       54       97 </v>
   <v type="int" >        4       48       49       91       97 </v>
   <v type="int" >        4       49       55       97       98 </v>
   <v type="int" >        4       49       92       97       98 </v>
   <v type="int" >        4       49       91       92       97 </v>
   <v type="int" >        4       50       55       56       98 </v>
   <v type="int" >        4       49       50       55       98 </v>
   <v type="int" >        4       49       50       92       98 </v>
   <v type="int" >        4       50       56       98       99 </v>
   <v type="int" >        4       50       93       98       99 </v>
   <v type="int" >        4       50       92       93       98 </v>
   <v type="int" >        4       49       56       57       99 </v>
   <v type="int" >        4       49       50       56       99 </v>
   <v type="int" >        4       49       50       93       99 </v>
   <v type="int" >        4       49       57       99      100 </v>
   <v type="int" >        4       49       92       99      100 </v>
   <v type="int" >        4       49       92       93       99 </v>
   <v type="int" >        4       48       57       58      100 </v>
   <v type="int" >        4       48       49       57      100 </v>
   <v type="int" >        4       48       49       92      100 </v>
   <v type="int" >        4       48       58      100      101 </v>
   <v type="int" >        4       48       91      100      101 </v>
   <v type="int" >        4       48       91       92      100 </v>
   <v type="int" >        4       47       58       59      101 </v>
   <v type="int" >        4       47       48       58      101 </v>
   <v type="int" >        4       47       48       91      101 </v>
   <v type="int" >        4       47       59      101      102 </v>
   <v type="int" >        4       47       90      101      102 </v>
   <v type="int" >        4       47       90       91      101 </v>
   <v type="int" >        4       46       59       60      102 </v>
   <v type="int" >        4       46       47       59      102 </v>
   <v type="int" >        4       46       47       90      102 </v>
   <v type="int" >        4       46       60      102      103 </v>
   <v type="int" >        4       46       89      102      103 </v>
   <v type="int" >        4       46       89       90      102 </v>
   <v type="int" >        4       45       60       61      103 </v>
   <v type="int" >        4       45       46       60      103 </v>
   <v type="int" >        4       45       46       89      103 </v>
   <v type="int" >        4       45       61      103      104 </v>
   <v type="int" >        4       45       88      103      104 </v>
   <v type="int" >        4       45       88       89      103 </v>
   <v type="int" >        4       44       45       61      104 </v>
   <v type="int" >        4       44       45       88      104 </v>
   <v type="int" >        4       44       87       88      104 </v>
   <v type="int" >        4       46       51       52       89 </v>
   <v type="int" >        4       45       46       51       89 </v>
   <v type="int" >        4       45       51       88       89 </v>
   <v type="int" >        4       51       52       89       95 </v>
   <v type="int" >        4       51       89       94       95 </v>
   <v type="int" >        4       51       88       89       94 </v>
   <v type="int" >        4       52       52       62       95 </v>
   <v type="int" >        4       51       52       52       95 </v>
   <v type="int" >        4       51       52       94       95 </v>
   <v type="int" >        4       52       62       95      105 </v>
   <v type="int" >        4       52       95       95      105 </v>
   <v type="int" >        4       52       94       95       95 </v>
   <v type="int" >        4       53       62       63      105 </v>
   <v type="int" >        4       52       53       62      105 </v>
   <v type="int" >        4       52       53       95      105 </v>
   <v type="int" >        4       53       63      105      106 </v>
   <v type="int" >        4       53       96      105      106 </v>
   <v type="int" >        4       53       95       96      105 </v>
   <v type="int" >        4       54       63       64      106 </v>
   <v type="int" >        4       53       54       63      106 </v>
   <v type="int" >        4       53       54       96      106 </v>
   <v type="int" >        4       54       64      106      107 </v>
   <v type="int" >        4       54       97      106      107 </v>
   <v type="int" >        4       54       96       97      106 </v>
   <v type="int" >        4       55       64       65      107 </v>
   <v type="int" >        4       54       55       64      107 </v>
   <v type="int" >        4       54       55       97      107 </v>
   <v type="int" >        4       55       65      107      108 </v>
   <v type="int" >        4       55       98      107      108 </v>
   <v type="int" >        4       55       97       98      107 </v>
   <v type="int" >        4       56       65       66      108 </v>
   <v type="int" >        4       55       56       65      108 </v>
   <v type="int" >        4       55       56       98      108 </v>
   <v type="int" >        4       56       66      108      109 </v>
   <v type="int" >        4       56       99      108      109 </v>
   <v type="int" >        4       56       98       99      108 </v>
   <v type="int" >        4       57       66       67      109 </v>
   <v type="int" >        4       56       57       66      109 </v>
   <v type="int" >        4       56       57       99      109 </v>
   <v type="int" >        4       57       67      109      110 </v>
   <v type="int" >        4       57      100      109      110 </v>
   <v type="int" >        4       57       99      100      109 </v>
   <v type="int" >        4       58       67       68      110 </v>
   <v type="int" >        4       57       58       67      110 </v>
   <v type="int" >        4       57       58      100      110 </v>
   <v type="int" >        4       58       68      110      111 </v>
   <v type="int" >        4       58      101      110      111 </v>
   <v type="int" >        4       58      100      101      110 </v>
   <v type="int" >        4       59       68       69      111 </v>
   <v type="int" >        4       58       59       68      111 </v>
   <v type="int" >        4       58       59      101      111 </v>
   <v type="int" >        4       59       69      111      112 </v>
   <v type="int" >        4       59      102      111      112 </v>
   <v type="int" >        4       59      101      102      111 </v>
   <v type="int" >        4       60       69       70      112 </v>
   <v type="int" >        4       59       60       69      112 </v>
   <v type="int" >        4       59       60      102      112 </v>
   <v type="int" >        4       60       70      112      113 </v>
   <v type="int" >        4       60      103      112      113 </v>
   <v type="int" >        4       60      102      103      112 </v>
   <v type="int" >        4       60       61       70      113 </v>
   <v type="int" >        4       60       61      103      113 </v>
   <v type="int" >        4       61      103      104      113 </v>
   <v type="int" >        4       47       52       53       90 </v>
   <v type="int" >        4       46       47       52       90 </v>
   <v type="int" >        4       46       52       89       90 </v>
   <v type="int" >        4       52       53       90       96 </v>
   <v type="int" >        4       52       90       95       96 </v>
   <v type="int" >        4       52       89       90       95 </v>
   <v type="int" >        4       53       62       63       96 </v>
   <v type="int" >        4       52       53       62       96 </v>
   <v type="int" >        4       52       62       95       96 </v>
   <v type="int" >        4       62       63       96      106 </v>
   <v type="int" >        4       62       96      105      106 </v>
   <v type="int" >        4       62       95       96      105 </v>
   <v type="int" >        4       63       63       71      106 </v>
   <v type="int" >        4       62       63       63      106 </v>
   <v type="int" >        4       62       63      105      106 </v>
   <v type="int" >        4       63       71      106      114 </v>
   <v type="int" >        4       63      106      106      114 </v>
   <v type="int" >        4       63      105      106      106 </v>
   <v type="int" >        4       64       71       72      114 </v>
   <v type="int" >        4       63       64       71      114 </v>
   <v type="int" >        4       63       64      106      114 </v>
   <v type="int" >        4       64       72      114      115 </v>
   <v type="int" >        4       64      107      114      115 </v>
   <v type="int" >        4       64      106      107      114 </v>
   <v type="int" >        4       65       72       73      115 </v>
   <v type="int" >        4       64       65       72      115 </v>
   <v type="int" >        4       64       65      107      115 </v>
   <v type="int" >        4       65       73      115      116 </v>
   <v type="int" >        4       65      108      115      116 </v>
   <v type="int" >        4       65      107      108      115 </v>
   <v type="int" >        4       66       73       74      116 </v>
   <v type="int" >        4       65       66       73      116 </v>
   <v type="int" >        4       65       66      108      116 </v>
   <v type="int" >        4       66       74      116      117 </v>
   <v type="int" >        4       66      109      116      117 </v>
   <v type="int" >        4       66      108      109      116 </v>
   <v type="int" >        4       67       74       75      117 </v>
   <v type="int" >        4       66       67       74      117 </v>
   <v type="int" >        4       66       67      109      117 </v>
   <v type="int" >        4       67       75      117      118 </v>
   <v type="int" >        4       67      110      117      118 </v>
   <v type="int" >        4       67      109      110      117 </v>
   <v type="int" >        4       68       75       76      118 </v>
   <v type="int" >        4       67       68       75      118 </v>
   <v type="int" >        4       67       68      110      118 </v>
   <v type="int" >        4       68       76      118      119 </v>
   <v type="int" >        4       68      111      118      119 </v>
   <v type="int" >        4       68      110      111      118 </v>
   <v type="int" >        4       69       76       77      119 </v>
   <v type="int" >        4       68       69       76      119 </v>
   <v type="int" >        4       68       69      111      119 </v>
   <v type="int" >        4       69       77      119      120 </v>
   <v type="int" >        4       69      112      119      120 </v>
   <v type="int" >        4       69      111      112      119 </v>
   <v type="int" >        4       69       70       77      120 </v>
   <v type="int" >        4       69       70      112      120 </v>
   <v type="int" >        4       70      112      113      120 </v>
   <v type="int" >        4       48       53       54       91 </v>
   <v type="int" >        4       47       48       53       91 </v>
   <v type="int" >        4       47       53       90       91 </v>
   <v type="int" >        4       53       54       91       97 </v>
   <v type="int" >        4       53       91       96       97 </v>
   <v type="int" >        4       53       90       91       96 </v>
   <v type="int" >        4       54       63       64       97 </v>
   <v type="int" >        4       53       54       63       97 </v>
   <v type="int" >        4       53       63       96       97 </v>
   <v type="int" >        4       63       64       97      107 </v>
   <v type="int" >        4       63       97      106      107 </v>
   <v type="int" >        4       63       96       97      106 </v>
   <v type="int" >        4       64       71       72      107 </v>
   <v type="int" >        4       63       64       71      107 </v>
   <v type="int" >        4       63       71      106      107 </v>
   <v type="int" >        4       71       72      107      115 </v>
   <v type="int" >        4       71      107      114      115 </v>
   <v type="int" >        4       71      106      107      114 </v>
   <v type="int" >        4       72       72       78      115 </v>
   <v type="int" >        4       71       72       72      115 </v>
   <v type="int" >        4       71       72      114      115 </v>
   <v type="int" >        4       72       78      115      121 </v>
   <v type="int" >        4       72      115      115      121 </v>
   <v type="int" >        4       72      114      115      115 </v>
   <v type="int" >        4       73       78       79      121 </v>
   <v type="int" >        4       72       73       78      121 </v>
   <v type="int" >        4       72       73      115      121 </v>
   <v type="int" >        4       73       79      121      122 </v>
   <v type="int" >        4       73      116      121      122 </v>
   <v type="int" >        4       73      115      116      121 </v>
   <v type="int" >        4       74       79       80      122 </v>
   <v type="int" >        4       73       74       79      122 </v>
   <v type="int" >        4       73       74      116      122 </v>
   <v type="int" >        4       74       80      122      123 </v>
   <v type="int" >        4       74      117      122      123 </v>
   <v type="int" >        4       74      116      117      122 </v>
   <v type="int" >        4       75       80       81      123 </v>
   <v type="int" >        4       74       75       80      123 </v>
   <v type="int" >        4       74       75      117      123 </v>
   <v type="int" >        4       75       81      123      124 </v>
   <v type="int" >        4       75      118      123      124 </v>
   <v type="int" >        4       75      117      118      123 </v>
   <v type="int" >        4       76       81       82      124 </v>
   <v type="int" >        4       75       76       81      124 </v>
   <v type="int" >        4       75       76      118      124 </v>
   <v type="int" >        4       76       82      124      125 </v>
   <v type="int" >        4       76      119      124      125 </v>
   <v type="int" >        4       76      118      119      124 </v>
   <v type="int" >        4       76       77       82      125 </v>
   <v type="int" >        4       76       77      119      125 </v>
   <v type="int" >        4       77      119      120      125 </v>
   <v type="int" >        4       49       54       55       92 </v>
   <v type="int" >        4       48       49       54       92 </v>
   <v type="int" >        4       48       54       91       92 </v>
   <v type="int" >        4       54       55       92       98 </v>
   <v type="int" >        4       54       92       97       98 </v>
   <v type="int" >        4       54       91       92       97 </v>
   <v type="int" >        4       55       64       65       98 </v>
   <v type="int" >        4       54       55       64       98 </v>
   <v type="int" >        4       54       64       97       98 </v>
   <v type="int" >        4       64       65       98      108 </v>
   <v type="int" >        4       64       98      107      108 </v>
   <v type="int" >        4       64       97       98      107 </v>
   <v type="int" >        4       65       72       73      108 </v>
   <v type="int" >        4       64       65       72      108 </v>
   <v type="int" >        4       64       72      107      108 </v>
   <v type="int" >        4       72       73      108      116 </v>
   <v type="int" >        4       72      108      115      116 </v>
   <v type="int" >        4       72      107      108      115 </v>
   <v type="int" >        4       73       78       79      116 </v>
   <v type="int" >        4       72       73       78      116 </v>
   <v type="int" >        4       72       78      115      116 </v>
   <v type="int" >        4       78       79      116      122 </v>
   <v type="int" >        4       78      116      121      122 </v>
   <v type="int" >        4       78      115      116      121 </v>
   <v type="int" >        4       79       79       83      122 </v>
   <v type="int" >        4       78       79       79      122 </v>
   <v type="int" >        4       78       79      121      122 </v>
   <v type="int" >        4       79       83      122      126 </v>
   <v type="int" >        4       79      122      122      126 </v>
   <v type="int" >        4       79      121      122      122 </v>
   <v type="int" >        4       80       83       84      126 </v>
   <v type="int" >        4       79       80       83      126 </v>
   <v type="int" >        4       79       80      122      126 </v>
   <v type="int" >        4       80       84      126      127 </v>
   <v type="int" >        4       80      123      126      127 </v>
   <v type="int" >        4       80      122      123      126 </v>
   <v type="int" >        4       81       84       85      127 </v>
   <v type="int" >        4       80       81       84      127 </v>
   <v type="int" >        4       80       81      123      127 </v>
   <v type="int" >        4       81       85      127      128 </v>
   <v type="int" >        4       81      124      127      128 </v>
   <v type="int" >        4       81      123      124      127 </v>
   <v type="int" >        4       81       82       85      128 </v>
   <v type="int" >        4       81       82      124      128 </v>
   <v type="int" >        4       82      124      125      128 </v>
   <v type="int" >        4       50       55       56       93 </v>
   <v type="int" >        4       49       50       55       93 </v>
   <v type="int" >        4       49       55       92       93 </v>
   <v type="int" >        4       55       56       93       99 </v>
   <v type="int" >        4       55       93       98       99 </v>
   <v type="int" >        4       55       92       93       98 </v>
   <v type="int" >        4       56       65       66       99 </v>
   <v type="int" >        4       55       56       65       99 </v>
   <v type="int" >        4       55       65       98       99 </v>
   <v type="int" >        4       65       66       99      109 </v>
   <v type="int" >        4       65       99      108      109 </v>
   <v type="int" >        4       65       98       99      108 </v>
   <v type="int" >        4       66       73       74      109 </v>
   <v type="int" >        4       65       66       73      109 </v>
   <v type="int" >        4       65       73      108      109 </v>
   <v type="int" >        4       73       74      109      117 </v>
   <v type="int" >        4       73      109      116      117 </v>
   <v type="int" >        4       73      108      109      116 </v>
   <v type="int" >        4       74       79       80      117 </v>
   <v type="int" >        4       73       74       79      117 </v>
   <v type="int" >        4       73       79      116      117 </v>
   <v type="int" >        4       79       80      117      123 </v>
   <v type="int" >        4       79      117      122      123 </v>
   <v type="int" >        4       79      116      117      122 </v>
   <v type="int" >        4       80       83       84      123 </v>
   <v type="int" >        4       79       80       83      123 </v>
   <v type="int" >        4       79       83      122      123 </v>
   <v type="int" >        4       83       84      123      127 </v>
   <v type="int" >        4       83      123      126      127 </v>
   <v type="int" >        4       83      122      123      126 </v>
   <v type="int" >        4       84       84       86      127 </v>
   <v type="int" >        4       83       84       84      127 </v>
   <v type="int" >        4       83       84      126      127 </v>
   <v type="int" >        4       84       86      127      129 </v>
   <v type="int" >        4       84      127      127      129 </v>
   <v type="int" >        4       84      126      127      127 </v>
   <v type="int" >        4       84       85       86      129 </v>
   <v type="int" >        4       84       85      127      129 </v>
   <v type="int" >        4       85      127      128      129 </v>
   <v type="int" >        4       49       56       57       92 </v>
   <v type="int" >        4       49       50       56       92 </v>
   <v type="int" >        4       50       56       92       93 </v>
   <v type="int" >        4       56       57       92      100 </v>
   <v type="int" >        4       56       92       99      100 </v>
   <v type="int" >        4       56       92       93       99 </v>
   <v type="int" >        4       57       66       67      100 </v>
   <v type="int" >        4       56       57       66      100 </v>
   <v type="int" >        4       56       66       99      100 </v>
   <v type="int" >        4       66       67      100      110 </v>
   <v type="int" >        4       66      100      109      110 </v>
   <v type="int" >        4       66       99      100      109 </v>
   <v type="int" >        4       67       74       75      110 </v>
   <v type="int" >        4       66       67       74      110 </v>
   <v type="int" >        4       66       74      109      110 </v>
   <v type="int" >        4       74       75      110      118 </v>
   <v type="int" >        4       74      110      117      118 </v>
   <v type="int" >        4       74      109      110      117 </v>
   <v type="int" >        4       75       80       81      118 </v>
   <v type="int" >        4       74       75       80      118 </v>
   <v type="int" >        4       74       80      117      118 </v>
   <v type="int" >        4       80       81      118      124 </v>
   <v type="int" >        4       80      118      123      124 </v>
   <v type="int" >        4       80      117      118      123 </v>
   <v type="int" >        4       81       84       85      124 </v>
   <v type="int" >        4       80       81       84      124 </v>
   <v type="int" >        4       80       84      123      124 </v>
   <v type="int" >        4       84       85      124      128 </v>
   <v type="int" >        4       84      124      127      128 </v>
   <v type="int" >        4       84      123      124      127 </v>
   <v type="int" >        4       84       85       86      128 </v>
   <v type="int" >        4       84       86      127      128 </v>
   <v type="int" >        4       86      127      128      129 </v>
   <v type="int" >        4       48       57       58       91 </v>
   <v type="int" >        4       48       49       57       91 </v>
   <v type="int" >        4       49       57       91       92 </v>
   <v type="int" >        4       57       58       91      101 </v>
   <v type="int" >        4       57       91      100      101 </v>
   <v type="int" >        4       57       91       92      100 </v>
   <v type="int" >        4       58       67       68      101 </v>
   <v type="int" >        4       57       58       67      101 </v>
   <v type="int" >        4       57       67      100      101 </v>
   <v type="int" >        4       67       68      101      111 </v>
   <v type="int" >        4       67      101      110      111 </v>
   <v type="int" >        4       67      100      101      110 </v>
   <v type="int" >        4       68       75       76      111 </v>
   <v type="int" >        4       67       68       75      111 </v>
   <v type="int" >        4       67       75      110      111 </v>
   <v type="int" >        4       75       76      111      119 </v>
   <v type="int" >        4       75      111      118      119 </v>
   <v type="int" >        4       75      110      111      118 </v>
   <v type="int" >        4       76       81       82      119 </v>
   <v type="int" >        4       75       76       81      119 </v>
   <v type="int" >        4       75       81      118      119 </v>
   <v type="int" >        4       81       82      119      125 </v>
   <v type="int" >        4       81      119      124      125 </v>
   <v type="int" >        4       81      118      119      124 </v>
   <v type="int" >        4       81       82       85      125 </v>
   <v type="int" >        4       81       85      124      125 </v>
   <v type="int" >        4       85      124      125      128 </v>
   <v type="int" >        4       47       58       59       90 </v>
   <v type="int" >        4       47       48       58       90 </v>
   <v type="int" >        4       48       58       90       91 </v>
   <v type="int" >        4       58       59       90      102 </v>
   <v type="int" >        4       58       90      101      102 </v>
   <v type="int" >        4       58       90       91      101 </v>
   <v type="int" >        4       59       68       69      102 </v>
   <v type="int" >        4       58       59       68      102 </v>
   <v type="int" >        4       58       68      101      102 </v>
   <v type="int" >        4       68       69      102      112 </v>
   <v type="int" >        4       68      102      111      112 </v>
   <v type="int" >        4       68      101      102      111 </v>
   <v type="int" >        4       69       76       77      112 </v>
   <v type="int" >        4       68       69       76      112 </v>
   <v type="int" >        4       68       76      111      112 </v>
   <v type="int" >        4       76       77      112      120 </v>
   <v type="int" >        4       76      112      119      120 </v>
   <v type="int" >        4       76      111      112      119 </v>
   <v type="int" >        4       76       77       82      120 </v>
   <v type="int" >        4       76       82      119      120 </v>
   <v type="int" >        4       82      119      120      125 </v>
   <v type="int" >        4       46       59       60       89 </v>
   <v type="int" >        4       46       47       59       89 </v>
   <v type="int" >        4       47       59       89       90 </v>
   <v type="int" >        4       59       60       89      103 </v>
   <v type="int" >        4       59       89      102      103 </v>
   <v type="int" >        4       59       89       90      102 </v>
   <v type="int" >        4       60       69       70      103 </v>
   <v type="int" >        4       59       60       69      103 </v>
   <v type="int" >        4       59       69      102      103 </v>
   <v type="int" >        4       69       70      103      113 </v>
   <v type="int" >        4       69      103      112      113 </v>
[...]
       <r>   -9.4294    1.0000 </r>
       <r>   -9.4294    1.0000 </r>
       <r>   -7.5628    1.0000 </r>
       <r>   -7.5628    1.0000 </r>
       <r>   -5.2640    1.0000 </r>
       <r>   -5.2640    1.0000 </r>
       <r>    3.0034    1.0000 </r>
       <r>    3.0034    1.0003 </r>
       <r>    5.6564    0.0000 </r>
       <r>    5.6564    0.0000 </r>
       <r>   14.8679    0.0000 </r>
       <r>   14.8679    0.0000 </r>
      </set>
      <set comment="kpoint 209">
       <r>  -10.7038    1.0000 </r>
       <r>  -10.7038    1.0000 </r>
       <r>   -7.0190    1.0000 </r>
       <r>   -7.0190    1.0000 </r>
       <r>   -3.6452    1.0000 </r>
       <r>   -3.6452    1.0000 </r>
       <r>    1.7018    1.0000 </r>
       <r>    1.7018    1.0000 </r>
       <r>    6.8703    0.0000 </r>
       <r>    6.8703    0.0000 </r>
       <r>   14.3516    0.0000 </r>
       <r>   14.3517    0.0000 </r>
      </set>
      <set comment="kpoint 210">
       <r>  -11.7670    1.0000 </r>
       <r>  -11.7670    1.0000 </r>
       <r>   -6.2478    1.0000 </r>
       <r>   -6.2478    1.0000 </r>
       <r>   -2.1683    1.0000 </r>
       <r>   -2.1683    1.0000 </r>
       <r>    0.5809    1.0000 </r>
       <r>    0.5809    1.0000 </r>
       <r>    8.0662    0.0000 </r>
       <r>    8.0662    0.0000 </r>
       <r>   12.6716    0.0000 </r>
       <r>   12.6716    0.0000 </r>
      </set>
      <set comment="kpoint 211">
       <r>  -12.5501    1.0000 </r>
       <r>  -12.5501    1.0000 </r>
       <r>   -5.2484    1.0000 </r>
       <r>   -5.2484    1.0000 </r>
       <r>   -1.3758    1.0000 </r>
       <r>   -1.3758    1.0000 </r>
       <r>   -0.2693    1.0000 </r>
       <r>   -0.2693    1.0000 </r>
       <r>    9.2527    0.0000 </r>
       <r>    9.2527    0.0000 </r>
       <r>   12.0835    0.0000 </r>
       <r>   12.0835    0.0000 </r>
      </set>
      <set comment="kpoint 212">
       <r>   -9.4745    1.0000 </r>
       <r>   -9.4745    1.0000 </r>
       <r>   -8.4492    1.0000 </r>
       <r>   -8.4492    1.0000 </r>
       <r>   -3.8296    1.0000 </r>
       <r>   -3.8296    1.0000 </r>
       <r>    2.5951    1.0000 </r>
       <r>    2.5951    1.0000 </r>
       <r>    5.8001    0.0000 </r>
       <r>    5.8001    0.0000 </r>
       <r>   14.2905    0.0000 </r>
       <r>   14.2905    0.0000 </r>
      </set>
      <set comment="kpoint 213">
       <r>  -10.2898    1.0000 </r>
       <r>  -10.2898    1.0000 </r>
       <r>   -8.1872    1.0000 </r>
       <r>   -8.1872    1.0000 </r>
       <r>   -2.4960    1.0000 </r>
       <r>   -2.4960    1.0000 </r>
       <r>    1.8902    1.0000 </r>
       <r>    1.8902    1.0000 </r>
       <r>    6.2950    0.0000 </r>
       <r>    6.2950    0.0000 </r>
       <r>   12.5174    0.0000 </r>
       <r>   12.5174    0.0000 </r>
      </set>
      <set comment="kpoint 214">
       <r>  -11.1552    1.0000 </r>
       <r>  -11.1552    1.0000 </r>
       <r>   -7.3477    1.0000 </r>
       <r>   -7.3477    1.0000 </r>
       <r>   -1.8478    1.0000 </r>
       <r>   -1.8478    1.0000 </r>
       <r>    1.1520    1.0000 </r>
       <r>    1.1520    1.0000 </r>
       <r>    7.1147    0.0000 </r>
       <r>    7.1147    0.0000 </r>
       <r>   11.8618    0.0000 </r>
       <r>   11.8618    0.0000 </r>
      </set>
      <set comment="kpoint 215">
       <r>   -9.8971    1.0000 </r>
       <r>   -9.8971    1.0000 </r>
       <r>   -8.8485    1.0000 </r>
       <r>   -8.8485    1.0000 </r>
       <r>   -2.0099    1.0000 </r>
       <r>   -2.0099    1.0000 </r>
       <r>    1.9976    1.0000 </r>
       <r>    1.9976    1.0000 </r>
       <r>    6.0149    0.0000 </r>
       <r>    6.0149    0.0000 </r>
       <r>   11.7792    0.0000 </r>
       <r>   11.7792    0.0000 </r>
      </set>
     </set>
    </set>
   </array>
  </eigenvalues>
  <separator name="orbital magnetization" >
   <v name="MAGDIPOLOUT">      0.00000000      0.00000000      0.00000000</v>
  </separator>
  <dos>
   <i name="efermi">      4.35533546 </i>
   <total>
    <array>
     <dimension dim="1">gridpoints</dimension>
     <dimension dim="2">spin</dimension>
     <field>energy</field>
     <field>total</field>
     <field>integrated</field>
     <set>
      <set comment="spin 1">
       <r>   -17.2421     0.0000     0.0000 </r>
       <r>   -17.1241     0.0000     0.0000 </r>
       <r>   -17.0062     0.0000     0.0000 </r>
       <r>   -16.8882     0.0000     0.0000 </r>
       <r>   -16.7702     0.0000     0.0000 </r>
       <r>   -16.6522     0.0000     0.0000 </r>
       <r>   -16.5342     0.0000     0.0000 </r>
       <r>   -16.4162     0.0000     0.0000 </r>
       <r>   -16.2982     0.0000     0.0000 </r>
       <r>   -16.1802     0.0000     0.0000 </r>
       <r>   -16.0622     0.0000     0.0000 </r>
       <r>   -15.9443     0.0000     0.0000 </r>
       <r>   -15.8263     0.0000     0.0000 </r>
       <r>   -15.7083     0.0000     0.0000 </r>
       <r>   -15.5903     0.0000     0.0000 </r>
       <r>   -15.4723     0.0000     0.0000 </r>
       <r>   -15.3543     0.0000     0.0000 </r>
       <r>   -15.2363     0.0016     0.0000 </r>
       <r>   -15.1183     0.2581     0.0124 </r>
       <r>   -15.0003     0.4919     0.0583 </r>
       <r>   -14.8824     0.6421     0.1283 </r>
       <r>   -14.7644     0.6146     0.1988 </r>
       <r>   -14.6464     0.6407     0.2736 </r>
       <r>   -14.5284     0.6190     0.3481 </r>
       <r>   -14.4104     0.5949     0.4194 </r>
       <r>   -14.2924     0.6106     0.4903 </r>
       <r>   -14.1744     0.6326     0.5636 </r>
       <r>   -14.0564     0.6398     0.6392 </r>
       <r>   -13.9385     0.6302     0.7142 </r>
       <r>   -13.8205     0.6127     0.7872 </r>
       <r>   -13.7025     0.6110     0.8594 </r>
       <r>   -13.5845     0.6161     0.9317 </r>
       <r>   -13.4665     0.6273     1.0050 </r>
       <r>   -13.3485     0.6388     1.0797 </r>
       <r>   -13.2305     0.6469     1.1557 </r>
       <r>   -13.1125     0.6383     1.2317 </r>
       <r>   -12.9945     0.6253     1.3061 </r>
       <r>   -12.8766     0.6242     1.3797 </r>
       <r>   -12.7586     0.6274     1.4535 </r>
       <r>   -12.6406     0.6306     1.5278 </r>
       <r>   -12.5226     0.6354     1.6024 </r>
       <r>   -12.4046     0.6423     1.6778 </r>
       <r>   -12.2866     0.6500     1.7540 </r>
       <r>   -12.1686     0.6576     1.8312 </r>
       <r>   -12.0506     0.6531     1.9084 </r>
       <r>   -11.9326     0.6465     1.9851 </r>
       <r>   -11.8147     0.6450     2.0612 </r>
       <r>   -11.6967     0.6471     2.1374 </r>
       <r>   -11.5787     0.6526     2.2141 </r>
       <r>   -11.4607     0.6584     2.2914 </r>
       <r>   -11.3427     0.6642     2.3694 </r>
       <r>   -11.2247     0.6701     2.4482 </r>
       <r>   -11.1067     0.6791     2.5277 </r>
       <r>   -10.9887     0.6922     2.6086 </r>
       <r>   -10.8707     0.7051     2.6910 </r>
       <r>   -10.7528     0.7150     2.7748 </r>
       <r>   -10.6348     0.7343     2.8602 </r>
       <r>   -10.5168     0.7653     2.9486 </r>
       <r>   -10.3988     0.7967     3.0408 </r>
       <r>   -10.2808     1.0844     3.1497 </r>
       <r>   -10.1628     1.1975     3.2908 </r>
       <r>   -10.0448     0.9334     3.4165 </r>
       <r>    -9.9268     0.6704     3.5110 </r>
       <r>    -9.8088     0.5449     3.5807 </r>
       <r>    -9.6909     0.4891     3.6417 </r>
       <r>    -9.5729     0.4332     3.6961 </r>
       <r>    -9.4549     0.8290     3.7765 </r>
       <r>    -9.3369     0.2590     3.8565 </r>
       <r>    -9.2189     0.2314     3.8855 </r>
       <r>    -9.1009     0.2038     3.9111 </r>
       <r>    -8.9829     0.1762     3.9336 </r>
       <r>    -8.8649     0.1496     3.9527 </r>
       <r>    -8.7470     0.1914     3.9723 </r>
       <r>    -8.6290     0.2485     3.9982 </r>
       <r>    -8.5110     0.3057     4.0309 </r>
       <r>    -8.3930     0.5739     4.0769 </r>
       <r>    -8.2750     1.0829     4.1746 </r>
       <r>    -8.1570     0.8786     4.2971 </r>
       <r>    -8.0390     0.7577     4.3838 </r>
       <r>    -7.9210     0.9022     4.4818 </r>
       <r>    -7.8030     1.0467     4.5967 </r>
       <r>    -7.6851     1.1912     4.7288 </r>
       <r>    -7.5671     1.0352     4.8706 </r>
       <r>    -7.4491     0.7134     4.9658 </r>
       <r>    -7.3311     0.6920     5.0487 </r>
       <r>    -7.2131     0.6745     5.1293 </r>
       <r>    -7.0951     0.6575     5.2079 </r>
       <r>    -6.9771     0.6403     5.2844 </r>
       <r>    -6.8591     0.6216     5.3589 </r>
       <r>    -6.7411     0.6027     5.4311 </r>
       <r>    -6.6232     0.5838     5.5011 </r>
       <r>    -6.5052     0.5650     5.5689 </r>
       <r>    -6.3872     0.5461     5.6344 </r>
       <r>    -6.2692     0.5272     5.6977 </r>
       <r>    -6.1512     0.5130     5.7588 </r>
       <r>    -6.0332     0.5567     5.8219 </r>
       <r>    -5.9152     0.6025     5.8902 </r>
       <r>    -5.7972     0.6484     5.9640 </r>
       <r>    -5.6792     0.6942     6.0432 </r>
       <r>    -5.5613     0.7400     6.1279 </r>
       <r>    -5.4433     0.7859     6.2179 </r>
       <r>    -5.3253     0.8317     6.3133 </r>
       <r>    -5.2073     0.8308     6.4116 </r>
       <r>    -5.0893     0.7890     6.5082 </r>
       <r>    -4.9713     0.7649     6.5989 </r>
       <r>    -4.8533     0.7646     6.6891 </r>
       <r>    -4.7353     0.7643     6.7793 </r>
       <r>    -4.6174     0.7640     6.8695 </r>
       <r>    -4.4994     0.7721     6.9599 </r>
       <r>    -4.3814     0.7880     7.0519 </r>
       <r>    -4.2634     0.8038     7.1458 </r>
       <r>    -4.1454     0.8198     7.2416 </r>
       <r>    -4.0274     0.8340     7.3392 </r>
       <r>    -3.9094     0.8810     7.4394 </r>
       <r>    -3.7914     0.9994     7.5499 </r>
       <r>    -3.6734     1.0570     7.6706 </r>
       <r>    -3.5555     1.1047     7.7982 </r>
       <r>    -3.4375     1.1521     7.9314 </r>
       <r>    -3.3195     1.1954     8.0699 </r>
       <r>    -3.2015     1.2340     8.2133 </r>
       <r>    -3.0835     1.3686     8.3644 </r>
       <r>    -2.9655     1.4801     8.5353 </r>
       <r>    -2.8475     1.4869     8.7105 </r>
       <r>    -2.7295     1.4714     8.8853 </r>
       <r>    -2.6115     1.4434     9.0573 </r>
       <r>    -2.4936     1.5475     9.2256 </r>
       <r>    -2.3756     1.7441     9.4219 </r>
       <r>    -2.2576     1.9177     9.6381 </r>
       <r>    -2.1396     2.0441     9.8712 </r>
       <r>    -2.0216     3.9425    10.1636 </r>
       <r>    -1.9036     2.1942    10.4605 </r>
       <r>    -1.7856     1.8296    10.6953 </r>
       <r>    -1.6676     1.5723    10.8952 </r>
       <r>    -1.5496     1.4875    11.0733 </r>
       <r>    -1.4317     1.1532    11.2334 </r>
       <r>    -1.3137     0.9104    11.3501 </r>
       <r>    -1.1957     0.9267    11.4569 </r>
       <r>    -1.0777     1.0368    11.5716 </r>
       <r>    -0.9597     1.2329    11.7052 </r>
       <r>    -0.8417     1.2406    11.8527 </r>
       <r>    -0.7237     1.3881    12.0034 </r>
       <r>    -0.6057     1.9565    12.2091 </r>
       <r>    -0.4877     1.5986    12.4140 </r>
       <r>    -0.3698     1.4476    12.5932 </r>
       <r>    -0.2518     1.3404    12.7572 </r>
       <r>    -0.1338     1.2542    12.9102 </r>
       <r>    -0.0158     1.1947    13.0542 </r>
       <r>     0.1022     1.1639    13.1933 </r>
       <r>     0.2202     1.1387    13.3290 </r>
       <r>     0.3382     1.2012    13.4668 </r>
       <r>     0.4562     1.1772    13.6073 </r>
       <r>     0.5741     1.1521    13.7447 </r>
       <r>     0.6921     1.1387    13.8792 </r>
       <r>     0.8101     1.1664    14.0193 </r>
       <r>     0.9281     1.1040    14.1533 </r>
       <r>     1.0461     1.2462    14.2861 </r>
       <r>     1.1641     1.0559    14.4219 </r>
       <r>     1.2821     0.8736    14.5356 </r>
       <r>     1.4001     0.7717    14.6299 </r>
       <r>     1.5181     0.9375    14.7270 </r>
       <r>     1.6360     0.9708    14.8413 </r>
       <r>     1.7540     0.9228    14.9523 </r>
       <r>     1.8720     0.9075    15.0601 </r>
       <r>     1.9900     0.8995    15.1671 </r>
       <r>     2.1080     0.8934    15.2728 </r>
       <r>     2.2260     0.8846    15.3779 </r>
       <r>     2.3440     0.6678    15.4738 </r>
       <r>     2.4620     0.6202    15.5496 </r>
       <r>     2.5800     0.5908    15.6209 </r>
       <r>     2.6979     0.4692    15.6825 </r>
       <r>     2.8159     0.4006    15.7335 </r>
       <r>     2.9339     0.3642    15.7786 </r>
       <r>     3.0519     0.3270    15.8193 </r>
       <r>     3.1699     0.2888    15.8557 </r>
       <r>     3.2879     0.2497    15.8875 </r>
       <r>     3.4059     0.2013    15.9143 </r>
       <r>     3.5239     0.1709    15.9362 </r>
       <r>     3.6419     0.1420    15.9547 </r>
       <r>     3.7598     0.1131    15.9697 </r>
       <r>     3.8778     0.0844    15.9814 </r>
       <r>     3.9958     0.0599    15.9898 </r>
       <r>     4.1138     0.0381    15.9956 </r>
       <r>     4.2318     0.0183    15.9989 </r>
       <r>     4.3498     0.0005    16.0000 </r>
       <r>     4.4678     0.0139    16.0008 </r>
       <r>     4.5858     0.0308    16.0034 </r>
       <r>     4.7037     0.0499    16.0081 </r>
       <r>     4.8217     0.0717    16.0152 </r>
       <r>     4.9397     0.0985    16.0252 </r>
       <r>     5.0577     0.1293    16.0386 </r>
       <r>     5.1757     0.1603    16.0557 </r>
       <r>     5.2937     0.1912    16.0765 </r>
       <r>     5.4117     0.2222    16.1008 </r>
       <r>     5.5297     0.3657    16.1330 </r>
       <r>     5.6477     0.4660    16.1830 </r>
       <r>     5.7656     0.4847    16.2394 </r>
       <r>     5.8836     0.6772    16.3059 </r>
       <r>     6.0016     0.9477    16.4057 </r>
       <r>     6.1196     0.9557    16.5278 </r>
       <r>     6.2376     0.9291    16.6384 </r>
       <r>     6.3556     0.9228    16.7474 </r>
       <r>     6.4736     0.9335    16.8566 </r>
       <r>     6.5916     0.9228    16.9668 </r>
       <r>     6.7096     0.7823    17.0701 </r>
       <r>     6.8275     0.6910    17.1550 </r>
       <r>     6.9455     0.6440    17.2337 </r>
       <r>     7.0635     0.6061    17.3073 </r>
       <r>     7.1815     0.5751    17.3770 </r>
       <r>     7.2995     0.5500    17.4433 </r>
       <r>     7.4175     0.5307    17.5070 </r>
       <r>     7.5355     0.5174    17.5688 </r>
       <r>     7.6535     0.5058    17.6291 </r>
       <r>     7.7715     0.4947    17.6882 </r>
       <r>     7.8894     0.4844    17.7459 </r>
       <r>     8.0074     0.4744    17.8025 </r>
       <r>     8.1254     0.4645    17.8579 </r>
       <r>     8.2434     0.4547    17.9121 </r>
       <r>     8.3614     0.4450    17.9652 </r>
       <r>     8.4794     0.4514    18.0177 </r>
       <r>     8.5974     0.4862    18.0731 </r>
       <r>     8.7154     0.4864    18.1307 </r>
       <r>     8.8333     0.4889    18.1880 </r>
       <r>     8.9513     0.4990    18.2462 </r>
       <r>     9.0693     0.5108    18.3058 </r>
       <r>     9.1873     0.5175    18.3666 </r>
       <r>     9.3053     0.5231    18.4279 </r>
       <r>     9.4233     0.5330    18.4902 </r>
       <r>     9.5413     0.5433    18.5537 </r>
       <r>     9.6593     0.5541    18.6184 </r>
       <r>     9.7773     0.5665    18.6845 </r>
       <r>     9.8952     0.6029    18.7529 </r>
       <r>    10.0132     0.7248    18.8297 </r>
       <r>    10.1312     0.7435    18.9198 </r>
       <r>    10.2492     0.6762    19.0036 </r>
       <r>    10.3672     0.6189    19.0799 </r>
       <r>    10.4852     0.5614    19.1496 </r>
       <r>    10.6032     0.4634    19.2098 </r>
       <r>    10.7212     0.4326    19.2624 </r>
       <r>    10.8392     0.4086    19.3120 </r>
       <r>    10.9571     0.3875    19.3588 </r>
       <r>    11.0751     0.4100    19.4059 </r>
       <r>    11.1931     0.4319    19.4555 </r>
       <r>    11.3111     0.4667    19.5083 </r>
       <r>    11.4291     0.5151    19.5661 </r>
       <r>    11.5471     0.5846    19.6307 </r>
       <r>    11.6651     0.7394    19.7059 </r>
       <r>    11.7831     1.0553    19.8150 </r>
       <r>    11.9011     1.2593    19.9498 </r>
       <r>    12.0190     1.6333    20.1205 </r>
       <r>    12.1370     1.7908    20.3235 </r>
       <r>    12.2550     1.9137    20.5420 </r>
       <r>    12.3730     2.0781    20.7839 </r>
       <r>    12.4910     1.9613    21.0196 </r>
       <r>    12.6090     1.8622    21.2443 </r>
       <r>    12.7270     2.7786    21.4810 </r>
       <r>    12.8450     2.5376    21.8126 </r>
       <r>    12.9630     1.7803    22.0662 </r>
       <r>    13.0809     1.1319    22.2366 </r>
       <r>    13.1989     1.0549    22.3622 </r>
       <r>    13.3169     0.9854    22.4826 </r>
       <r>    13.4349     0.9423    22.5963 </r>
       <r>    13.5529     0.8628    22.7030 </r>
       <r>    13.6709     0.7888    22.8008 </r>
       <r>    13.7889     0.7146    22.8893 </r>
       <r>    13.9069     0.6525    22.9699 </r>
       <r>    14.0248     0.6061    23.0439 </r>
       <r>    14.1428     0.5878    23.1141 </r>
       <r>    14.2608     0.6464    23.1860 </r>
       <r>    14.3788     0.9206    23.2760 </r>
       <r>    14.4968     0.7474    23.3790 </r>
       <r>    14.6148     0.7129    23.4647 </r>
       <r>    14.7328     0.7930    23.5525 </r>
       <r>    14.8508     1.0165    23.6570 </r>
       <r>    14.9688     0.6215    23.7476 </r>
       <r>    15.0867     0.4594    23.8095 </r>
       <r>    15.2047     0.3842    23.8592 </r>
       <r>    15.3227     0.3609    23.9026 </r>
       <r>    15.4407     0.2984    23.9422 </r>
       <r>    15.5587     0.1810    23.9695 </r>
       <r>    15.6767     0.1143    23.9872 </r>
       <r>    15.7947     0.0426    23.9958 </r>
       <r>    15.9127     0.0149    23.9991 </r>
       <r>    16.0307     0.0019    23.9999 </r>
       <r>    16.1486     0.0000    24.0000 </r>
       <r>    16.2666     0.0000    24.0000 </r>
       <r>    16.3846     0.0000    24.0000 </r>
       <r>    16.5026     0.0000    24.0000 </r>
       <r>    16.6206     0.0000    24.0000 </r>
       <r>    16.7386     0.0000    24.0000 </r>
       <r>    16.8566     0.0000    24.0000 </r>
       <r>    16.9746     0.0000    24.0000 </r>
       <r>    17.0926     0.0000    24.0000 </r>
       <r>    17.2105     0.0000    24.0000 </r>
       <r>    17.3285     0.0000    24.0000 </r>
       <r>    17.4465     0.0000    24.0000 </r>
       <r>    17.5645     0.0000    24.0000 </r>
       <r>    17.6825     0.0000    24.0000 </r>
       <r>    17.8005     0.0000    24.0000 </r>
       <r>    17.9185     0.0000    24.0000 </r>
       <r>    18.0365     0.0000    24.0000 </r>
       <r>    18.1544     0.0000    24.0000 </r>
      </set>
     </set>
    </array>
   </total>
  </dos>
 </calculation>
 <structure name="finalpos" >
  <crystal>
   <varray name="basis" >
    <v>       2.46643725      -0.00095964       0.00000000 </v>
    <v>      -1.23404970       2.13551749       0.00000000 </v>
    <v>       0.00000000       0.00000000       6.96333826 </v>
   </varray>
   <i name="volume">     36.66849117 </i>
   <varray name="rec_basis" >
    <v>       0.40553429       0.23434576       0.00000000 </v>
    <v>       0.00018224       0.46837588       0.00000000 </v>
    <v>       0.00000000       0.00000000       0.14360928 </v>
   </varray>
  </crystal>
  <varray name="positions" >
   <v>       0.99934661       0.00065344       0.25000000 </v>
   <v>       0.00065344       0.99934661       0.75000000 </v>
   <v>       0.33258492       0.66741506       0.25000000 </v>
   <v>       0.66741506       0.33258492       0.75000000 </v>
  </varray>
 </structure>
</modeling>
