   4   4   0   0
  0.8643287E+01  0.2466437E-09  0.2466437E-09  0.6565433E-09  0.5000000E-15
  1.000000000000000E-004
  CAR 
 graphite                                
     18.75246094    -16.78495551  301      4.86257082      1.00000000
    -16.785  0.0000E+00  0.0000E+00
    -16.666  0.0000E+00  0.0000E+00
    -16.548  0.0000E+00  0.0000E+00
    -16.430  0.0000E+00  0.0000E+00
    -16.311  0.0000E+00  0.0000E+00
    -16.193  0.0000E+00  0.0000E+00
    -16.074  0.0000E+00  0.0000E+00
    -15.956  0.0000E+00  0.0000E+00
    -15.837  0.0000E+00  0.0000E+00
    -15.719  0.0000E+00  0.0000E+00
    -15.600  0.0000E+00  0.0000E+00
    -15.482  0.0000E+00  0.0000E+00
    -15.363  0.0000E+00  0.0000E+00
    -15.245  0.0000E+00  0.0000E+00
    -15.127  0.0000E+00  0.0000E+00
    -15.008  0.0000E+00  0.0000E+00
    -14.890  0.0000E+00  0.0000E+00
    -14.771  0.6440E-04  0.2975E-06
    -14.653  0.1156E-02  0.8764E-04
    -14.534  0.1919E-02  0.2700E-03
    -14.416  0.2879E-02  0.5415E-03
    -14.297  0.3102E-02  0.9035E-03
    -14.179  0.3053E-02  0.1273E-02
    -14.060  0.3077E-02  0.1634E-02
    -13.942  0.3113E-02  0.2001E-02
    -13.824  0.3084E-02  0.2368E-02
    -13.705  0.3100E-02  0.2734E-02
    -13.587  0.3105E-02  0.3102E-02
    -13.468  0.3098E-02  0.3468E-02
    -13.350  0.3124E-02  0.3837E-02
    -13.231  0.3125E-02  0.4207E-02
    -13.113  0.3125E-02  0.4578E-02
    -12.994  0.3108E-02  0.4946E-02
    -12.876  0.3135E-02  0.5316E-02
    -12.757  0.3160E-02  0.5689E-02
    -12.639  0.3158E-02  0.6063E-02
    -12.520  0.3152E-02  0.6437E-02
    -12.402  0.3140E-02  0.6809E-02
    -12.284  0.3157E-02  0.7182E-02
    -12.165  0.3185E-02  0.7558E-02
    -12.047  0.3201E-02  0.7936E-02
    -11.928  0.3201E-02  0.8316E-02
    -11.810  0.3194E-02  0.8695E-02
    -11.691  0.3192E-02  0.9073E-02
    -11.573  0.3209E-02  0.9452E-02
    -11.454  0.3231E-02  0.9833E-02
    -11.336  0.3258E-02  0.1022E-01
    -11.217  0.3268E-02  0.1060E-01
    -11.099  0.3274E-02  0.1099E-01
    -10.981  0.3272E-02  0.1138E-01
    -10.862  0.3289E-02  0.1177E-01
    -10.744  0.3312E-02  0.1216E-01
    -10.625  0.3341E-02  0.1255E-01
    -10.507  0.3376E-02  0.1295E-01
    -10.388  0.3413E-02  0.1335E-01
    -10.270  0.3447E-02  0.1376E-01
    -10.151  0.3492E-02  0.1417E-01
    -10.033  0.3568E-02  0.1459E-01
     -9.914  0.3709E-02  0.1502E-01
     -9.796  0.3896E-02  0.1547E-01
     -9.677  0.4503E-02  0.1595E-01
     -9.559  0.5034E-02  0.1652E-01
     -9.441  0.4751E-02  0.1713E-01
     -9.322  0.3358E-02  0.1760E-01
     -9.204  0.3459E-02  0.1805E-01
     -9.085  0.2329E-02  0.1845E-01
     -8.967  0.2074E-02  0.1872E-01
     -8.848  0.1819E-02  0.1895E-01
     -8.730  0.1563E-02  0.1915E-01
     -8.611  0.1694E-02  0.1933E-01
     -8.493  0.1617E-02  0.1954E-01
     -8.374  0.1029E-02  0.1971E-01
     -8.256  0.1113E-02  0.1982E-01
     -8.138  0.2128E-02  0.1999E-01
     -8.019  0.3511E-02  0.2038E-01
     -7.901  0.3153E-02  0.2078E-01
     -7.782  0.2824E-02  0.2112E-01
     -7.664  0.4062E-02  0.2154E-01
     -7.545  0.3900E-02  0.2207E-01
     -7.427  0.4607E-02  0.2257E-01
     -7.308  0.5357E-02  0.2316E-01
     -7.190  0.4748E-02  0.2378E-01
     -7.071  0.3840E-02  0.2427E-01
     -6.953  0.3682E-02  0.2471E-01
     -6.834  0.3537E-02  0.2514E-01
     -6.716  0.3394E-02  0.2555E-01
     -6.598  0.3253E-02  0.2595E-01
     -6.479  0.3112E-02  0.2632E-01
     -6.361  0.2997E-02  0.2668E-01
     -6.242  0.2957E-02  0.2704E-01
     -6.124  0.2921E-02  0.2738E-01
     -6.005  0.2885E-02  0.2773E-01
     -5.887  0.2848E-02  0.2807E-01
     -5.768  0.2707E-02  0.2840E-01
     -5.650  0.2571E-02  0.2871E-01
     -5.531  0.2953E-02  0.2903E-01
     -5.413  0.3388E-02  0.2941E-01
     -5.295  0.3823E-02  0.2984E-01
     -5.176  0.3833E-02  0.3030E-01
     -5.058  0.3713E-02  0.3074E-01
     -4.939  0.3656E-02  0.3118E-01
     -4.821  0.3599E-02  0.3161E-01
     -4.702  0.3621E-02  0.3204E-01
     -4.584  0.3723E-02  0.3247E-01
     -4.465  0.3817E-02  0.3292E-01
     -4.347  0.3902E-02  0.3338E-01
     -4.228  0.3942E-02  0.3384E-01
     -4.110  0.3954E-02  0.3431E-01
     -3.991  0.3923E-02  0.3478E-01
     -3.873  0.3926E-02  0.3524E-01
     -3.755  0.4029E-02  0.3571E-01
     -3.636  0.4388E-02  0.3620E-01
     -3.518  0.4588E-02  0.3673E-01
     -3.399  0.4828E-02  0.3729E-01
     -3.281  0.5004E-02  0.3787E-01
     -3.162  0.5275E-02  0.3848E-01
     -3.044  0.5483E-02  0.3912E-01
     -2.925  0.5654E-02  0.3978E-01
     -2.807  0.5841E-02  0.4046E-01
     -2.688  0.6028E-02  0.4116E-01
     -2.570  0.6257E-02  0.4189E-01
     -2.452  0.6875E-02  0.4269E-01
     -2.333  0.7000E-02  0.4351E-01
     -2.215  0.7159E-02  0.4434E-01
     -2.096  0.7207E-02  0.4519E-01
     -1.978  0.7283E-02  0.4605E-01
     -1.859  0.7235E-02  0.4688E-01
     -1.741  0.8509E-02  0.4779E-01
     -1.622  0.1114E-01  0.4897E-01
     -1.504  0.1247E-01  0.5039E-01
     -1.385  0.1006E-01  0.5172E-01
     -1.267  0.9264E-02  0.5287E-01
     -1.148  0.8486E-02  0.5391E-01
     -1.030  0.8359E-02  0.5492E-01
     -0.912  0.7368E-02  0.5586E-01
     -0.793  0.5669E-02  0.5658E-01
     -0.675  0.6283E-02  0.5729E-01
     -0.556  0.7453E-02  0.5813E-01
     -0.438  0.7491E-02  0.5900E-01
     -0.319  0.6447E-02  0.5990E-01
     -0.201  0.5927E-02  0.6062E-01
     -0.082  0.6003E-02  0.6132E-01
      0.036  0.6563E-02  0.6206E-01
      0.155  0.7199E-02  0.6287E-01
      0.273  0.6472E-02  0.6372E-01
      0.391  0.6124E-02  0.6446E-01
      0.510  0.5972E-02  0.6517E-01
      0.628  0.5848E-02  0.6587E-01
      0.747  0.5735E-02  0.6656E-01
      0.865  0.5813E-02  0.6724E-01
      0.984  0.5845E-02  0.6794E-01
      1.102  0.5736E-02  0.6862E-01
      1.221  0.5606E-02  0.6929E-01
      1.339  0.5575E-02  0.6995E-01
      1.458  0.5733E-02  0.7063E-01
      1.576  0.5655E-02  0.7130E-01
      1.695  0.5548E-02  0.7198E-01
      1.813  0.5058E-02  0.7265E-01
      1.931  0.3882E-02  0.7315E-01
      2.050  0.4272E-02  0.7366E-01
      2.168  0.4148E-02  0.7416E-01
      2.287  0.4113E-02  0.7465E-01
      2.405  0.4227E-02  0.7513E-01
      2.524  0.4267E-02  0.7564E-01
      2.642  0.4311E-02  0.7615E-01
      2.761  0.4527E-02  0.7667E-01
      2.879  0.3893E-02  0.7720E-01
      2.998  0.3276E-02  0.7762E-01
      3.116  0.2664E-02  0.7797E-01
      3.234  0.2403E-02  0.7827E-01
      3.353  0.2177E-02  0.7854E-01
      3.471  0.1962E-02  0.7878E-01
      3.590  0.1774E-02  0.7901E-01
      3.708  0.1547E-02  0.7920E-01
      3.827  0.1272E-02  0.7937E-01
      3.945  0.1103E-02  0.7951E-01
      4.064  0.9351E-03  0.7963E-01
      4.182  0.7688E-03  0.7973E-01
      4.301  0.6325E-03  0.7981E-01
      4.419  0.5464E-03  0.7988E-01
      4.537  0.3885E-03  0.7994E-01
      4.656  0.2385E-03  0.7998E-01
      4.774  0.9423E-04  0.8000E-01
      4.893  0.1878E-04  0.8000E-01
      5.011  0.1069E-03  0.8001E-01
      5.130  0.2023E-03  0.8003E-01
      5.248  0.3059E-03  0.8006E-01
      5.367  0.4208E-03  0.8010E-01
      5.485  0.5485E-03  0.8016E-01
      5.604  0.7048E-03  0.8023E-01
      5.722  0.9482E-03  0.8033E-01
      5.841  0.1226E-02  0.8046E-01
      5.959  0.1491E-02  0.8062E-01
      6.077  0.1762E-02  0.8081E-01
      6.196  0.2220E-02  0.8105E-01
      6.314  0.3274E-02  0.8138E-01
      6.433  0.5961E-02  0.8189E-01
      6.551  0.4804E-02  0.8253E-01
      6.670  0.4407E-02  0.8308E-01
      6.788  0.4267E-02  0.8359E-01
      6.907  0.4095E-02  0.8410E-01
      7.025  0.3990E-02  0.8457E-01
      7.144  0.4035E-02  0.8505E-01
      7.262  0.3544E-02  0.8551E-01
      7.380  0.3294E-02  0.8592E-01
      7.499  0.3095E-02  0.8629E-01
      7.617  0.2945E-02  0.8665E-01
      7.736  0.2822E-02  0.8699E-01
      7.854  0.2719E-02  0.8732E-01
      7.973  0.2627E-02  0.8764E-01
      8.091  0.2554E-02  0.8794E-01
      8.210  0.2493E-02  0.8824E-01
      8.328  0.2433E-02  0.8853E-01
      8.447  0.2369E-02  0.8882E-01
      8.565  0.2307E-02  0.8910E-01
      8.684  0.2252E-02  0.8937E-01
      8.802  0.2202E-02  0.8963E-01
      8.920  0.2154E-02  0.8989E-01
      9.039  0.2108E-02  0.9014E-01
      9.157  0.2069E-02  0.9039E-01
      9.276  0.2038E-02  0.9063E-01
      9.394  0.2018E-02  0.9087E-01
      9.513  0.2165E-02  0.9112E-01
      9.631  0.2285E-02  0.9138E-01
      9.750  0.2303E-02  0.9165E-01
      9.868  0.2323E-02  0.9193E-01
      9.987  0.2368E-02  0.9220E-01
     10.105  0.2399E-02  0.9249E-01
     10.223  0.2427E-02  0.9277E-01
     10.342  0.2459E-02  0.9306E-01
     10.460  0.2502E-02  0.9336E-01
     10.579  0.2534E-02  0.9365E-01
     10.697  0.2564E-02  0.9396E-01
     10.816  0.2711E-02  0.9427E-01
     10.934  0.2990E-02  0.9460E-01
     11.053  0.3221E-02  0.9498E-01
     11.171  0.2879E-02  0.9534E-01
     11.290  0.2502E-02  0.9566E-01
     11.408  0.2390E-02  0.9595E-01
     11.527  0.2299E-02  0.9622E-01
     11.645  0.2156E-02  0.9649E-01
     11.763  0.2011E-02  0.9674E-01
     11.882  0.2157E-02  0.9698E-01
     12.000  0.2496E-02  0.9725E-01
     12.119  0.3371E-02  0.9759E-01
     12.237  0.4718E-02  0.9806E-01
     12.356  0.6203E-02  0.9872E-01
     12.474  0.7125E-02  0.9951E-01
     12.593  0.8503E-02  0.1004E+00
     12.711  0.9235E-02  0.1015E+00
     12.830  0.9309E-02  0.1026E+00
     12.948  0.8046E-02  0.1036E+00
     13.066  0.7823E-02  0.1046E+00
     13.185  0.8449E-02  0.1055E+00
     13.303  0.1326E-01  0.1070E+00
     13.422  0.1363E-01  0.1086E+00
     13.540  0.8927E-02  0.1099E+00
     13.659  0.6535E-02  0.1108E+00
     13.777  0.5572E-02  0.1115E+00
     13.896  0.5273E-02  0.1121E+00
     14.014  0.4631E-02  0.1128E+00
     14.133  0.4271E-02  0.1133E+00
     14.251  0.4236E-02  0.1138E+00
     14.370  0.4192E-02  0.1143E+00
     14.488  0.3394E-02  0.1147E+00
     14.606  0.2766E-02  0.1151E+00
     14.725  0.2805E-02  0.1154E+00
     14.843  0.2998E-02  0.1158E+00
     14.962  0.3304E-02  0.1161E+00
     15.080  0.2907E-02  0.1165E+00
     15.199  0.3674E-02  0.1169E+00
     15.317  0.4330E-02  0.1173E+00
     15.436  0.4816E-02  0.1179E+00
     15.554  0.3500E-02  0.1184E+00
     15.673  0.2823E-02  0.1188E+00
     15.791  0.2462E-02  0.1191E+00
     15.909  0.2098E-02  0.1193E+00
     16.028  0.1899E-02  0.1196E+00
     16.146  0.1316E-02  0.1198E+00
     16.265  0.7339E-03  0.1199E+00
     16.383  0.3154E-03  0.1200E+00
     16.502  0.1080E-03  0.1200E+00
     16.620  0.1394E-04  0.1200E+00
     16.739  0.6170E-07  0.1200E+00
     16.857  0.0000E+00  0.1200E+00
     16.976  0.0000E+00  0.1200E+00
     17.094  0.0000E+00  0.1200E+00
     17.213  0.0000E+00  0.1200E+00
     17.331  0.0000E+00  0.1200E+00
     17.449  0.0000E+00  0.1200E+00
     17.568  0.0000E+00  0.1200E+00
     17.686  0.0000E+00  0.1200E+00
     17.805  0.0000E+00  0.1200E+00
     17.923  0.0000E+00  0.1200E+00
     18.042  0.0000E+00  0.1200E+00
     18.160  0.0000E+00  0.1200E+00
     18.279  0.0000E+00  0.1200E+00
     18.397  0.0000E+00  0.1200E+00
     18.516  0.0000E+00  0.1200E+00
     18.634  0.0000E+00  0.1200E+00
     18.752  0.0000E+00  0.1200E+00
