    4    4  200    1
  0.8643287E+01  0.2466437E-09  0.2466437E-09  0.6565433E-09  0.5000000E-15
  1.000000000000000E-004
  CAR 
 graphite                                
     16    455     12
 
  0.0000000E+00  0.0000000E+00  0.0000000E+00  0.3858025E-03
    1      -14.784956
    2      -14.430646
    3       -3.725324
    4       -1.532833
    5        1.866443
    6        1.882928
    7        1.889939
    8        1.905758
    9        9.366396
   10       13.200090
   11       13.221103
   12       13.262650
 
  0.5555556E-01  0.3469447E-17  0.0000000E+00  0.1543210E-02
    1      -14.711176
    2      -14.358365
    3       -3.635723
    4       -1.449707
    5        1.575734
    6        1.607969
    7        1.711126
    8        1.740882
    9        9.454197
   10       13.233126
   11       13.311675
   12       13.517045
 
  0.1111111E+00  0.6938894E-17  0.0000000E+00  0.1543210E-02
    1      -14.490165
    2      -14.141864
    3       -3.367678
    4       -1.201256
    5        0.746780
    6        0.799836
    7        1.289319
    8        1.330293
    9        9.718356
   10       13.244311
   11       13.374865
   12       14.436703
 
  0.1666667E+00  0.0000000E+00  0.0000000E+00  0.1543210E-02
    1      -14.122968
    2      -13.782248
    3       -2.923751
    4       -0.791568
    5       -0.441661
    6       -0.363020
    7        0.724971
    8        0.775106
    9       10.159111
   10       13.135954
   11       13.349359
   12       14.010932
 
  0.2222222E+00  0.1387779E-16  0.0000000E+00  0.1543210E-02
    1      -13.611505
    2      -13.281354
    3       -2.309056
    4       -1.831182
    5       -1.725035
    6       -0.229041
    7        0.126736
    8        0.183802
    9       10.773370
   10       12.564935
   11       12.920107
   12       13.212757
 
  0.2777778E+00  0.0000000E+00  0.0000000E+00  0.1543210E-02
    1      -12.959078
    2      -12.642251
    3       -3.306728
    4       -3.172918
    5       -1.532847
    6       -0.429326
    7       -0.367806
    8        0.470419
    9       10.961068
   10       11.548643
   11       11.787310
   12       12.666117
 
  0.3333333E+00  0.2775558E-16  0.0000000E+00  0.1543210E-02
    1      -12.170617
    2      -11.869991
    3       -4.790565
    4       -4.629575
    5       -0.896092
    6       -0.831477
    7       -0.612292
    8        1.273850
    9        9.331064
   10       10.343061
   11       12.305652
   12       12.529014
 
  0.3888889E+00  0.2775558E-16  0.0000000E+00  0.1543210E-02
    1      -11.255731
    2      -10.974964
    3       -6.226819
    4       -6.041256
    5       -1.245469
    6       -1.178659
    7        0.415238
    8        2.100013
    9        7.828077
   10        8.943971
   11       12.199133
   12       12.613988
 
  0.4444444E+00  0.2775558E-16  0.0000000E+00  0.1543210E-02
    1      -10.241792
    2       -9.990671
    3       -7.553630
    4       -7.354515
    5       -1.460606
    6       -1.392588
    7        1.446779
    8        2.719659
    9        6.726536
   10        7.732690
   11       12.080400
   12       12.533022
 
  0.5000000E+00  0.5551115E-16  0.0000000E+00  0.7716049E-03
    1       -9.436967
    2       -9.302793
    3       -8.358702
    4       -8.258301
    5       -1.533336
    6       -1.464657
    7        2.051195
    8        2.824753
    9        6.397871
   10        7.125980
   11       12.038990
   12       12.501571
 
  0.5555556E-01  0.5555556E-01  0.0000000E+00  0.7716049E-03
    1      -14.563680
    2      -14.213865
    3       -3.456812
    4       -1.283803
    5        1.046532
    6        1.077832
    7        1.397799
    8        1.423827
    9        9.630540
   10       13.335341
   11       13.432847
   12       14.040872
 
  0.1111111E+00  0.5555556E-01  0.0000000E+00  0.1543210E-02
    1      -14.269474
    2      -13.925705
    3       -3.100557
    4       -0.954496
    5        0.089109
    6        0.142839
    7        0.851377
    8        0.890543
    9        9.984168
   10       13.416558
   11       13.573601
   12       14.491928
 
  0.1666667E+00  0.5555556E-01  0.0000000E+00  0.1543210E-02
    1      -13.830016
    2      -13.495345
    3       -2.570974
    4       -1.161113
    5       -1.076029
    6       -0.467781
    7        0.224488
    8        0.278186
    9       10.514044
   10       13.205430
   11       13.318063
   12       13.567790
 
  0.2222222E+00  0.5555556E-01  0.0000000E+00  0.1543210E-02
    1      -13.248004
    2      -12.925257
    3       -2.569142
    4       -2.453513
    5       -1.874760
    6       -0.381424
    7       -0.318362
    8        0.164933
    9       11.214931
   10       11.702877
   11       12.386292
   12       13.101889
 
  0.2777778E+00  0.5555556E-01  0.0000000E+00  0.1543210E-02
    1      -12.527246
    2      -12.219314
    3       -4.034415
    4       -3.889882
    5       -1.024182
    6       -0.909549
    7       -0.840650
    8        0.921473
    9       10.099751
   10       10.981633
   11       12.066493
   12       12.863283
 
  0.3333333E+00  0.5555556E-01  0.0000000E+00  0.1543210E-02
    1      -11.674742
    2      -11.384915
    3       -5.487071
    4       -5.315448
    5       -1.326999
    6       -1.254234
    7       -0.043955
    8        1.752122
    9        8.530693
   10        9.571189
   11       12.592332
   12       12.918155
 
  0.3888889E+00  0.5555556E-01  0.0000000E+00  0.1543210E-02
    1      -10.705561
    2      -10.438316
    3       -6.870994
    4       -6.677573
    5       -1.614205
    6       -1.539211
    7        1.006939
    8        2.522057
    9        7.190295
   10        8.256378
   11       12.453992
   12       12.899134
 
  0.4444444E+00  0.5555556E-01  0.0000000E+00  0.1543210E-02
    1       -9.691056
    2       -9.477047
    3       -8.064504
    4       -7.885015
    5       -1.760356
    6       -1.684327
    7        1.931048
    8        2.890253
    9        6.461342
   10        7.259528
   11       12.372875
   12       12.841394
 
  0.5000000E+00  0.5555556E-01  0.0000000E+00  0.1543210E-02
    1       -9.692526
    2       -9.478336
    3       -8.062914
    4       -7.883289
    5       -1.760750
    6       -1.684685
    7        1.930234
    8        2.890237
    9        6.461082
   10        7.260617
   11       12.373343
   12       12.841870
 
 -0.4444444E+00  0.5555556E-01  0.0000000E+00  0.1543210E-02
    1      -10.707138
    2      -10.439861
    3       -6.868802
    4       -6.675320
    5       -1.615303
    6       -1.540362
    7        1.005683
    8        2.521312
    9        7.190478
   10        8.258128
   11       12.455393
   12       12.900481
 
 -0.3888889E+00  0.5555556E-01  0.0000000E+00  0.1543210E-02
    1      -11.676139
    2      -11.386311
    3       -5.484698
    4       -5.312913
    5       -1.328838
    6       -1.256039
    7       -0.045209
    8        1.751083
    9        8.530865
   10        9.572973
   11       12.594434
   12       12.918798
 
 -0.3333333E+00  0.5555556E-01  0.0000000E+00  0.1543210E-02
    1      -12.528443
    2      -12.220516
    3       -4.032110
    4       -3.887433
    5       -1.025312
    6       -0.911841
    7       -0.842911
    8        0.920438
    9       10.099393
   10       10.983262
   11       12.065010
   12       12.866188
 
 -0.2777778E+00  0.5555556E-01  0.0000000E+00  0.1543210E-02
    1      -13.248961
    2      -12.926217
    3       -2.567177
    4       -2.451419
    5       -1.875730
    6       -0.383639
    7       -0.320566
    8        0.164016
    9       11.213594
   10       11.701605
   11       12.387695
   12       13.105507
 
 -0.2222222E+00  0.5555556E-01  0.0000000E+00  0.1543210E-02
    1      -13.830770
    2      -13.496094
    3       -2.571748
    4       -1.160457
    5       -1.075391
    6       -0.468527
    7        0.223553
    8        0.277093
    9       10.512972
   10       13.203105
   11       13.321862
   12       13.573657
 
 -0.1666667E+00  0.5555556E-01  0.0000000E+00  0.1543210E-02
    1      -14.270002
    2      -13.926233
    3       -3.101119
    4       -0.955043
    5        0.086285
    6        0.139933
    7        0.854304
    8        0.892906
    9        9.983380
   10       13.419630
   11       13.577837
   12       14.485901
 
 -0.1111111E+00  0.5555556E-01  0.0000000E+00  0.1543210E-02
    1      -14.564007
    2      -14.214194
    3       -3.457152
    4       -1.284137
    5        1.036275
    6        1.068400
    7        1.407664
    8        1.433434
    9        9.630047
   10       13.336912
   11       13.435917
   12       14.045305
 
 -0.5555556E-01  0.5555556E-01  0.0000000E+00  0.7716049E-03
    1      -14.711293
    2      -14.358474
    3       -3.635838
    4       -1.449821
    5        1.563411
    6        1.596068
    7        1.723395
    8        1.752809
    9        9.454026
   10       13.233706
   11       13.312404
   12       13.532927
 
  0.1111111E+00  0.1111111E+00  0.0000000E+00  0.7716049E-03
    1      -13.903025
    2      -13.566819
    3       -2.658589
    4       -0.810607
    5       -0.762435
    6       -0.547808
    7        0.149992
    8        0.184584
    9       10.428535
   10       13.456079
   11       13.832096
   12       13.934570
 
  0.1666667E+00  0.1111111E+00  0.0000000E+00  0.1543210E-02
    1      -13.392950
    2      -13.067246
    3       -2.046667
    4       -1.963547
    5       -1.886500
    6       -0.599931
    7       -0.547078
    8        0.010713
    9       11.048548
   10       12.174059
   11       12.692994
   12       13.978631
 
  0.2222222E+00  0.1111111E+00  0.0000000E+00  0.1543210E-02
    1      -12.742605
    2      -12.430245
    3       -3.296850
    4       -3.181002
    5       -1.273891
    6       -1.251664
    7       -1.178810
    8        0.705773
    9       10.716768
   10       11.392127
   11       11.837576
   12       13.837986
 
  0.2777778E+00  0.1111111E+00  0.0000000E+00  0.1543210E-02
    1      -11.957315
    2      -11.661396
    3       -4.699293
    4       -4.549707
    5       -1.767808
    6       -1.683551
    7       -0.357002
    8        1.506486
    9        9.194608
   10       10.048388
   11       12.777547
   12       13.630814
 
  0.3333333E+00  0.1111111E+00  0.0000000E+00  0.1543210E-02
    1      -11.047414
    2      -10.771241
    3       -6.087776
    4       -5.910487
    5       -2.141534
    6       -2.051077
    7        0.668259
    8        2.336729
    9        7.756838
   10        8.730543
   11       13.398881
   12       13.761259
 
  0.3888889E+00  0.1111111E+00  0.0000000E+00  0.1543210E-02
    1      -10.041232
    2       -9.794506
    3       -7.385667
    4       -7.192886
    5       -2.368217
    6       -2.274508
    7        1.703252
    8        2.973550
    9        6.683508
   10        7.559351
   11       13.293208
   12       13.787690
 
  0.4444444E+00  0.1111111E+00  0.0000000E+00  0.1543210E-02
    1       -9.248065
    2       -9.116044
    3       -8.174503
    4       -8.078450
    5       -2.444731
    6       -2.349982
    7        2.317668
    8        3.084220
    9        6.386024
   10        6.935195
   11       13.252256
   12       13.760845
 
  0.5000000E+00  0.1111111E+00  0.0000000E+00  0.1543210E-02
    1      -10.044481
    2       -9.797680
    3       -7.381694
    4       -7.188722
    5       -2.369625
    6       -2.275866
    7        1.700967
    8        2.972730
    9        6.682978
   10        7.562770
   11       13.294826
   12       13.789274
 
 -0.4444444E+00  0.1111111E+00  0.0000000E+00  0.1543210E-02
    1      -11.050412
    2      -10.774229
    3       -6.083237
    4       -5.905815
    5       -2.144213
    6       -2.053650
    7        0.665721
    8        2.334798
    9        7.756796
   10        8.734337
   11       13.401869
   12       13.760688
 
 -0.3888889E+00  0.1111111E+00  0.0000000E+00  0.1543210E-02
    1      -11.959906
    2      -11.663970
    3       -4.694712
    4       -4.544974
    5       -1.771344
    6       -1.686961
    7       -0.359345
    8        1.504346
    9        9.193738
   10       10.052059
   11       12.774158
   12       13.635191
 
 -0.3333333E+00  0.1111111E+00  0.0000000E+00  0.1543210E-02
    1      -12.744765
    2      -12.432394
    3       -3.293096
    4       -3.177084
    5       -1.275992
    6       -1.255016
    7       -1.182104
    8        0.703785
    9       10.714142
   10       11.395494
   11       11.834622
   12       13.844245
 
 -0.2777778E+00  0.1111111E+00  0.0000000E+00  0.1543210E-02
    1      -13.394674
    2      -13.068958
    3       -2.048396
    4       -1.962691
    5       -1.885451
    6       -0.600691
    7       -0.547937
    8        0.009034
    9       11.046161
   10       12.169321
   11       12.695839
   12       13.986929
 
 -0.2222222E+00  0.1111111E+00  0.0000000E+00  0.1543210E-02
    1      -13.904316
    2      -13.568099
    3       -2.659922
    4       -0.816395
    5       -0.767077
    6       -0.549113
    7        0.155118
    8        0.190003
    9       10.426714
   10       13.450146
   11       13.840741
   12       14.008865
 
 -0.1666667E+00  0.1111111E+00  0.0000000E+00  0.1543210E-02
    1      -14.270333
    2      -13.926556
    3       -3.101458
    4       -0.955383
    5        0.077214
    6        0.131859
    7        0.863040
    8        0.902293
    9        9.982924
   10       13.429868
   11       13.587070
   12       14.484395
 
 -0.1111111E+00  0.1111111E+00  0.0000000E+00  0.7716049E-03
    1      -14.490594
    2      -14.142289
    3       -3.368132
    4       -1.201703
    5        0.733631
    6        0.787100
    7        1.302735
    8        1.343457
    9        9.717720
   10       13.253521
   11       13.383882
   12       14.408525
 
  0.1666667E+00  0.1666667E+00  0.0000000E+00  0.7716049E-03
    1      -12.814645
    2      -12.500746
    3       -2.879939
    4       -2.814448
    5       -1.516863
    6       -1.468975
    7       -1.357483
    8        0.633157
    9       10.975059
   10       11.519578
   11       11.756612
   12       14.773821
 
  0.2222222E+00  0.1666667E+00  0.0000000E+00  0.1543210E-02
    1      -12.099573
    2      -11.800468
    3       -4.010466
    4       -3.909084
    5       -2.293576
    6       -2.220474
    7       -0.515372
    8        1.379805
    9        9.645167
   10       10.281404
   11       12.628891
   12       14.946489
 
  0.2777778E+00  0.1666667E+00  0.0000000E+00  0.1543210E-02
    1      -11.255664
    2      -10.974594
    3       -5.286769
    4       -5.141148
    5       -2.840264
    6       -2.742248
    7        0.456940
    8        2.208017
    9        8.267928
   10        9.039539
   11       13.648930
   12       14.790333
 
  0.3333333E+00  0.1666667E+00  0.0000000E+00  0.1543210E-02
    1      -10.299292
    2      -10.041127
    3       -6.577052
    4       -6.400772
    5       -3.184434
    6       -3.074477
    7        1.506626
    8        3.000730
    9        7.024088
   10        7.850671
   11       14.576666
   12       14.830673
 
  0.3888889E+00  0.1666667E+00  0.0000000E+00  0.1543210E-02
    1       -9.303712
    2       -9.097763
    3       -7.718728
    4       -7.552010
    5       -3.352416
    6       -3.237595
    7        2.450679
    8        3.407123
    9        6.349173
   10        6.865373
   11       14.524178
   12       15.129854
 
  0.4444444E+00  0.1666667E+00  0.0000000E+00  0.1543210E-02
    1       -9.308123
    2       -9.101684
    3       -7.714331
    4       -7.546820
    5       -3.353303
    6       -3.238437
    7        2.448185
    8        3.407089
    9        6.346286
   10        6.870434
   11       14.525136
   12       15.130694
 
  0.5000000E+00  0.1666667E+00  0.0000000E+00  0.1543210E-02
    1      -10.304045
    2      -10.045852
    3       -6.570702
    4       -6.394134
    5       -3.186941
    6       -3.076855
    7        1.502927
    8        2.998306
    9        7.022672
   10        7.856921
   11       14.578457
   12       14.826519
 
 -0.4444444E+00  0.1666667E+00  0.0000000E+00  0.1543210E-02
    1      -11.259865
    2      -10.978787
    3       -5.280432
    4       -5.134483
    5       -2.843716
    6       -2.745528
    7        0.453263
    8        2.204769
    9        8.265742
   10        9.045804
   11       13.643151
   12       14.795033
 
 -0.3888889E+00  0.1666667E+00  0.0000000E+00  0.1543210E-02
    1      -12.103147
    2      -11.804024
    3       -4.006110
    4       -3.904217
    5       -2.296010
    6       -2.222736
    7       -0.518716
    8        1.376609
    9        9.640588
   10       10.287317
   11       12.624034
   12       14.954656
 
 -0.3333333E+00  0.1666667E+00  0.0000000E+00  0.1543210E-02
    1      -12.817542
    2      -12.503642
    3       -2.881512
    4       -2.814502
    5       -1.514868
    6       -1.466057
    7       -1.360342
    8        0.630351
    9       10.967991
   10       11.524262
   11       11.752668
   12       14.793092
 
 -0.2777778E+00  0.1666667E+00  0.0000000E+00  0.1543210E-02
    1      -13.395208
    2      -13.069491
    3       -2.048947
    4       -1.971383
    5       -1.893038
    6       -0.591703
    7       -0.538191
    8        0.008443
    9       11.045480
   10       12.165814
   11       12.695202
   12       14.005585
 
 -0.2222222E+00  0.1666667E+00  0.0000000E+00  0.1543210E-02
    1      -13.831626
    2      -13.496945
    3       -2.572641
    4       -1.172924
    5       -1.087210
    6       -0.469444
    7        0.237320
    8        0.291029
    9       10.511836
   10       13.197346
   11       13.341703
   12       13.590665
 
 -0.1666667E+00  0.1666667E+00  0.0000000E+00  0.7716049E-03
    1      -14.123931
    2      -13.783207
    3       -2.924763
    4       -0.792580
    5       -0.455114
    6       -0.376077
    7        0.739555
    8        0.789515
    9       10.157768
   10       13.154421
   11       13.367088
   12       14.005107
 
  0.2222222E+00  0.2222222E+00  0.0000000E+00  0.7716049E-03
    1      -11.325348
    2      -11.042903
    3       -4.803721
    4       -4.721192
    5       -3.254896
    6       -3.193140
    7        0.385307
    8        2.162363
    9        8.493077
   10        9.131078
   11       13.572751
   12       16.058278
 
  0.2777778E+00  0.2222222E+00  0.0000000E+00  0.1543210E-02
    1      -10.432177
    2      -10.169663
    3       -5.824969
    4       -5.700413
    5       -3.930483
    6       -3.837254
    7        1.398013
    8        2.998491
    9        7.303637
   10        8.005919
   11       14.644374
   12       16.100365
 
  0.3333333E+00  0.2222222E+00  0.0000000E+00  0.1543210E-02
    1       -9.450801
    2       -9.217597
    3       -6.954728
    4       -6.792581
    5       -4.286719
    6       -4.167061
    7        2.443050
    8        3.706481
    9        6.305363
   10        6.959216
   11       15.757361
   12       15.996742
 
  0.3888889E+00  0.2222222E+00  0.0000000E+00  0.1543210E-02
    1       -8.682228
    2       -8.556918
    3       -7.683640
    4       -7.612905
    5       -4.396251
    6       -4.269308
    7        3.106051
    8        3.846886
    9        6.166731
   10        6.194096
   11       15.887833
   12       16.722832
 
  0.4444444E+00  0.2222222E+00  0.0000000E+00  0.1543210E-02
    1       -9.457326
    2       -9.224168
    3       -6.947268
    4       -6.784416
    5       -4.288413
    6       -4.168566
    7        2.438579
    8        3.704400
    9        6.300819
   10        6.968506
   11       15.749609
   12       15.995078
 
  0.5000000E+00  0.2222222E+00  0.0000000E+00  0.1543210E-02
    1      -10.438190
    2      -10.175682
    3       -5.817981
    4       -5.692619
    5       -3.932457
    6       -3.838902
    7        1.393167
    8        2.994168
    9        7.299499
   10        8.015086
   11       14.635815
   12       16.103848
 
 -0.4444444E+00  0.2222222E+00  0.0000000E+00  0.1543210E-02
    1      -11.330537
    2      -11.048094
    3       -4.801610
    4       -4.717123
    5       -3.253945
    6       -3.190942
    7        0.380720
    8        2.157807
    9        8.486850
   10        9.139205
   11       13.565682
   12       16.078887
 
 -0.3888889E+00  0.2222222E+00  0.0000000E+00  0.1543210E-02
    1      -12.103894
    2      -11.804779
    3       -4.014414
    4       -3.911403
    5       -2.287063
    6       -2.212945
    7       -0.519437
    8        1.375660
    9        9.637221
   10       10.286722
   11       12.623149
   12       14.981597
 
 -0.3333333E+00  0.2222222E+00  0.0000000E+00  0.1543210E-02
    1      -12.746018
    2      -12.433678
    3       -3.305004
    4       -3.188325
    5       -1.277276
    6       -1.240705
    7       -1.167527
    8        0.702328
    9       10.707972
   10       11.393718
   11       11.833092
   12       13.871224
 
 -0.2777778E+00  0.2222222E+00  0.0000000E+00  0.1543210E-02
    1      -13.250583
    2      -12.927821
    3       -2.580311
    4       -2.464219
    5       -1.877369
    6       -0.367372
    7       -0.304331
    8        0.162252
    9       11.211624
   10       11.693817
   11       12.384963
   12       13.131336
 
 -0.2222222E+00  0.2222222E+00  0.0000000E+00  0.7716049E-03
    1      -13.613219
    2      -13.283060
    3       -2.310826
    4       -1.844304
    5       -1.737805
    6       -0.230858
    7        0.142481
    8        0.199408
    9       10.771142
   10       12.556584
   11       12.945168
   12       13.241672
 
  0.2777778E+00  0.2777778E+00  0.0000000E+00  0.7716049E-03
    1       -9.507317
    2       -9.269216
    3       -6.444452
    4       -6.346101
    5       -4.794359
    6       -4.725993
    7        2.428722
    8        3.820110
    9        6.296568
   10        7.011703
   11       15.713439
   12       16.654023
 
  0.3333333E+00  0.2777778E+00  0.0000000E+00  0.1543210E-02
    1       -8.551454
    2       -8.360274
    3       -7.264950
    4       -7.147121
    5       -5.239687
    6       -5.145146
    7        3.426156
    8        4.395799
    9        5.525941
   10        6.143341
   11       16.299773
   12       16.366979
 
  0.3888889E+00  0.2777778E+00  0.0000000E+00  0.1543210E-02
    1       -8.559303
    2       -8.367454
    3       -7.258445
    4       -7.138297
    5       -5.239883
    6       -5.145125
    7        3.421989
    8        4.395821
    9        5.518747
   10        6.153065
   11       16.322122
   12       16.345823
 
  0.4444444E+00  0.2777778E+00  0.0000000E+00  0.1543210E-02
    1       -9.515352
    2       -9.277330
    3       -6.439355
    4       -6.338693
    5       -4.793123
    6       -4.723316
    7        2.423190
    8        3.814443
    9        6.291695
   10        7.022632
   11       15.701577
   12       16.627355
 
  0.5000000E+00  0.2777778E+00  0.0000000E+00  0.1543210E-02
    1      -10.439238
    2      -10.176779
    3       -5.825160
    4       -5.698842
    5       -3.924398
    6       -3.829962
    7        1.392423
    8        2.992160
    9        7.297645
   10        8.014680
   11       14.634782
   12       16.138432
 
 -0.4444444E+00  0.2777778E+00  0.0000000E+00  0.1543210E-02
    1      -11.261632
    2      -10.980586
    3       -5.291053
    4       -5.144541
    5       -2.830118
    6       -2.731638
    7        0.451741
    8        2.202160
    9        8.260953
   10        9.044205
   11       13.641363
   12       14.828272
 
 -0.3888889E+00  0.2777778E+00  0.0000000E+00  0.1543210E-02
    1      -11.962180
    2      -11.666256
    3       -4.706742
    4       -4.556650
    5       -1.754810
    6       -1.670428
    7       -0.361479
    8        1.501469
    9        9.186690
   10       10.048836
   11       12.772133
   12       13.666312
 
 -0.3333333E+00  0.2777778E+00  0.0000000E+00  0.1543210E-02
    1      -12.531020
    2      -12.223098
    3       -4.044590
    4       -3.899631
    5       -1.027848
    6       -0.894278
    7       -0.825423
    8        0.917464
    9       10.090962
   10       10.979009
   11       12.062844
   12       12.895650
 
 -0.2777778E+00  0.2777778E+00  0.0000000E+00  0.7716049E-03
    1      -12.961761
    2      -12.644925
    3       -3.318954
    4       -3.184836
    5       -1.535535
    6       -0.412548
    7       -0.351153
    8        0.467508
    9       10.952023
   10       11.545741
   11       11.783522
   12       12.695298
 
  0.3333333E+00  0.3333333E+00  0.0000000E+00  0.7716049E-03
    1       -7.798860
    2       -7.683418
    3       -7.681149
    4       -7.569835
    5       -5.632891
    6       -5.631778
    7        4.154578
    8        4.838431
    9        4.848357
   10        5.685497
   11       16.096150
   12       16.122390
 
  0.3888889E+00  0.3333333E+00  0.0000000E+00  0.1543210E-02
    1       -8.561774
    2       -8.371314
    3       -7.260458
    4       -7.141064
    5       -5.234380
    6       -5.138519
    7        3.422408
    8        4.385234
    9        5.524317
   10        6.154138
   11       16.300227
   12       16.368836
 
  0.4444444E+00  0.3333333E+00  0.0000000E+00  0.1543210E-02
    1       -9.460098
    2       -9.227386
    3       -6.954654
    4       -6.791764
    5       -4.277071
    6       -4.156865
    7        2.437675
    8        3.696645
    9        6.301695
   10        6.967741
   11       15.752089
   12       16.027428
 
  0.5000000E+00  0.3333333E+00  0.0000000E+00  0.1543210E-02
    1      -10.307229
    2      -10.049227
    3       -6.580369
    4       -6.403663
    5       -3.171972
    6       -3.061842
    7        1.500866
    8        2.992107
    9        7.019688
   10        7.854207
   11       14.604728
   12       14.837312
 
 -0.4444444E+00  0.3333333E+00  0.0000000E+00  0.1543210E-02
    1      -11.053974
    2      -10.777877
    3       -6.093941
    4       -5.916343
    5       -2.126947
    6       -2.036465
    7        0.662822
    8        2.329445
    9        7.751119
   10        8.729767
   11       13.432033
   12       13.779995
 
 -0.3888889E+00  0.3333333E+00  0.0000000E+00  0.1543210E-02
    1      -11.679948
    2      -11.390155
    3       -5.495752
    4       -5.323767
    5       -1.310589
    6       -1.237909
    7       -0.048644
    8        1.746241
    9        8.523454
   10        9.567431
   11       12.622840
   12       12.939894
 
 -0.3333333E+00  0.3333333E+00  0.0000000E+00  0.7716049E-03
    1      -12.174501
    2      -11.873888
    3       -4.801446
    4       -4.640204
    5       -0.878474
    6       -0.813980
    7       -0.615978
    8        1.269411
    9        9.322684
   10       10.338023
   11       12.321067
   12       12.549300
 
  0.3888889E+00  0.3888889E+00  0.0000000E+00  0.7716049E-03
    1       -8.691238
    2       -8.568777
    3       -7.682658
    4       -7.613607
    5       -4.384862
    6       -4.257659
    7        3.106343
    8        3.830131
    9        6.166865
   10        6.200133
   11       15.924041
   12       16.752461
 
  0.4444444E+00  0.3888889E+00  0.0000000E+00  0.1543210E-02
    1       -9.314163
    2       -9.109363
    3       -7.719642
    4       -7.553209
    5       -3.338434
    6       -3.223571
    7        2.447424
    8        3.392619
    9        6.350178
   10        6.865975
   11       14.561478
   12       15.167599
 
  0.5000000E+00  0.3888889E+00  0.0000000E+00  0.1543210E-02
    1      -10.049970
    2       -9.803662
    3       -7.389750
    4       -7.196990
    5       -2.352391
    6       -2.258722
    7        1.698226
    8        2.961942
    9        6.682340
   10        7.556596
   11       13.329454
   12       13.823984
 
 -0.4444444E+00  0.3888889E+00  0.0000000E+00  0.1543210E-02
    1      -10.712566
    2      -10.445483
    3       -6.877795
    4       -6.684265
    5       -1.596828
    6       -1.522010
    7        1.001766
    8        2.512936
    9        7.186516
   10        8.251297
   11       12.488502
   12       12.933389
 
 -0.3888889E+00  0.3888889E+00  0.0000000E+00  0.7716049E-03
    1      -11.261112
    2      -10.980426
    3       -6.235953
    4       -6.050228
    5       -1.227238
    6       -1.160546
    7        0.410725
    8        2.093113
    9        7.822028
   10        8.937844
   11       12.231658
   12       12.645798
 
  0.4444444E+00  0.4444444E+00  0.0000000E+00  0.7716049E-03
    1       -9.258064
    2       -9.129045
    3       -8.175409
    4       -8.081484
    5       -2.428012
    6       -2.333338
    7        2.317333
    8        3.066064
    9        6.392090
   10        6.926650
   11       13.288104
   12       13.797012
 
  0.5000000E+00  0.4444444E+00  0.0000000E+00  0.1543210E-02
    1       -9.700712
    2       -9.487938
    3       -8.067736
    4       -7.889087
    5       -1.742392
    6       -1.666434
    7        1.928213
    8        2.874640
    9        6.464460
   10        7.250924
   11       12.407699
   12       12.876295
 
 -0.4444444E+00  0.4444444E+00  0.0000000E+00  0.7716049E-03
    1      -10.249232
    2       -9.998571
    3       -7.560209
    4       -7.361262
    5       -1.442006
    6       -1.374097
    7        1.442617
    8        2.707856
    9        6.725791
   10        7.724686
   11       12.114248
   12       12.566836
 
  0.5000000E+00  0.5000000E+00  0.0000000E+00  0.3858025E-03
    1       -9.447289
    2       -9.316174
    3       -8.360035
    4       -8.261823
    5       -1.514611
    6       -1.446042
    7        2.050606
    8        2.806161
    9        6.403661
   10        7.114302
   11       12.073187
   12       12.535798
 