    4    4  200    1
  0.8294063E+01  0.2466437E-09  0.2466437E-09  0.6300163E-09  0.5000000E-15
  1.000000000000000E-004
  CAR 
 graphite                                
     16    455     12
 
  0.0000000E+00  0.0000000E+00  0.0000000E+00  0.3858025E-03
    1      -14.463471
    2      -13.983125
    3       -3.545875
    4       -0.871992
    5        2.249511
    6        2.266054
    7        2.284983
    8        2.300416
    9       10.166445
   10       13.574328
   11       13.599036
   12       13.663368
 
  0.5555556E-01  0.3469447E-17  0.0000000E+00  0.1543210E-02
    1      -14.389416
    2      -13.911135
    3       -3.456159
    4       -0.789561
    5        1.956741
    6        2.004548
    7        2.092762
    8        2.137080
    9       10.252089
   10       13.605207
   11       13.713099
   12       13.891063
 
  0.1111111E+00  0.6938894E-17  0.0000000E+00  0.1543210E-02
    1      -14.167646
    2      -13.695315
    3       -3.187233
    4       -0.543624
    5        1.123057
    6        1.200267
    7        1.668308
    8        1.728929
    9       10.509981
   10       13.608795
   11       13.784709
   12       14.860445
 
  0.1666667E+00  0.1387779E-16  0.0000000E+00  0.1543210E-02
    1      -13.799246
    2      -13.336800
    3       -2.741806
    4       -0.138442
    5       -0.070985
    6        0.042014
    7        1.101676
    8        1.175827
    9       10.940317
   10       13.487991
   11       13.773209
   12       14.320353
 
  0.2222222E+00  0.1387779E-16  0.0000000E+00  0.1543210E-02
    1      -13.286276
    2      -12.837397
    3       -2.124731
    4       -1.466389
    5       -1.315187
    6        0.416972
    7        0.501874
    8        0.585683
    9       11.538375
   10       12.857328
   11       13.260462
   12       13.659621
 
  0.2777778E+00  0.8326673E-16  0.0000000E+00  0.1543210E-02
    1      -12.631703
    2      -12.200187
    3       -2.947578
    4       -2.758321
    5       -1.344752
    6       -0.055330
    7        0.035004
    8        1.105633
    9       11.237535
   10       12.276096
   11       12.279935
   12       13.004085
 
  0.3333333E+00  0.2775558E-16  0.0000000E+00  0.1543210E-02
    1      -11.840656
    2      -11.430257
    3       -4.436398
    4       -4.210570
    5       -0.522936
    6       -0.428057
    7       -0.418286
    8        1.891319
    9        9.599307
   10       10.854821
   11       12.685596
   12       13.072600
 
  0.3888889E+00  0.5551115E-16  0.0000000E+00  0.1543210E-02
    1      -10.922581
    2      -10.538150
    3       -5.877107
    4       -5.618837
    5       -0.872638
    6       -0.774845
    7        0.619389
    8        2.682032
    9        8.108137
   10        9.473187
   11       12.511574
   12       13.073528
 
  0.4444444E+00  0.2775558E-16  0.0000000E+00  0.1543210E-02
    1       -9.904141
    2       -9.558556
    3       -7.205611
    4       -6.929779
    5       -1.087993
    6       -0.988438
    7        1.669734
    8        3.219195
    9        7.070750
   10        8.264596
   11       12.388337
   12       12.992626
 
  0.5000000E+00  0.5551115E-16  0.0000000E+00  0.7716049E-03
    1       -9.085558
    2       -8.901838
    3       -7.981598
    4       -7.845832
    5       -1.160605
    6       -1.060546
    7        2.295274
    8        3.238107
    9        6.823813
   10        7.642313
   11       12.345698
   12       12.962062
 
  0.5555556E-01  0.5555556E-01  0.0000000E+00  0.7716049E-03
    1      -14.241398
    2      -13.767072
    3       -3.276593
    4       -0.625249
    5        1.426810
    6        1.472884
    7        1.781104
    8        1.819823
    9       10.424303
   10       13.705835
   11       13.835529
   12       14.415716
 
  0.1111111E+00  0.5555556E-01  0.0000000E+00  0.1543210E-02
    1      -13.946231
    2      -13.479821
    3       -2.919306
    4       -0.299453
    5        0.464722
    6        0.542406
    7        1.231166
    8        1.288915
    9       10.769985
   10       13.778240
   11       13.985709
   12       14.803066
 
  0.1666667E+00  0.5555556E-01  0.0000000E+00  0.1543210E-02
    1      -13.505430
    2      -13.050760
    3       -2.387735
    4       -0.792034
    5       -0.670214
    6        0.181492
    7        0.600666
    8        0.679308
    9       11.287714
   10       13.507433
   11       13.665536
   12       13.996120
 
  0.2222222E+00  0.5555556E-01  0.0000000E+00  0.1543210E-02
    1      -12.921516
    2      -12.482315
    3       -2.206364
    4       -2.042260
    5       -1.688428
    6       -0.007598
    7        0.084631
    8        0.805492
    9       11.969611
   10       11.989120
   11       12.856091
   12       13.438438
 
  0.2777778E+00  0.5555556E-01  0.0000000E+00  0.1543210E-02
    1      -12.198423
    2      -11.778496
    3       -3.677343
    4       -3.473644
    5       -0.833168
    6       -0.537124
    7       -0.436562
    8        1.548467
    9       10.372926
   10       11.474649
   11       12.768970
   12       13.209675
 
  0.3333333E+00  0.5555556E-01  0.0000000E+00  0.1543210E-02
    1      -11.343079
    2      -10.946696
    3       -5.134893
    4       -4.895055
    5       -0.955194
    6       -0.849524
    7        0.154678
    8        2.354842
    9        8.802524
   10       10.085723
   11       12.917922
   12       13.416611
 
  0.3888889E+00  0.5555556E-01  0.0000000E+00  0.1543210E-02
    1      -10.370303
    2      -10.003560
    3       -6.522528
    4       -6.253876
    5       -1.242903
    6       -1.134008
    7        1.219169
    8        3.071134
    9        7.493697
   10        8.783331
   11       12.764366
   12       13.358082
 
  0.4444444E+00  0.5555556E-01  0.0000000E+00  0.1543210E-02
    1       -9.348368
    2       -9.053980
    3       -7.709995
    4       -7.462929
    5       -1.389574
    6       -1.278917
    7        2.167345
    8        3.332000
    9        6.860368
   10        7.776514
   11       12.680547
   12       13.301506
 
  0.5000000E+00  0.5555556E-01  0.0000000E+00  0.1543210E-02
    1       -9.349863
    2       -9.055238
    3       -7.708563
    4       -7.461167
    5       -1.389986
    6       -1.279307
    7        2.166503
    8        3.332123
    9        6.859791
   10        7.777826
   11       12.681016
   12       13.301983
 
 -0.4444444E+00  0.5555556E-01  0.0000000E+00  0.1543210E-02
    1      -10.371894
    2      -10.005144
    3       -6.520349
    4       -6.251609
    5       -1.244112
    6       -1.135162
    7        1.217891
    8        3.070499
    9        7.493529
   10        8.785357
   11       12.765760
   12       13.359446
 
 -0.3888889E+00  0.5555556E-01  0.0000000E+00  0.1543210E-02
    1      -11.344488
    2      -10.948118
    3       -5.132530
    4       -4.892609
    5       -0.957160
    6       -0.851338
    7        0.153421
    8        2.353840
    9        8.802395
   10       10.087852
   11       12.920136
   12       13.418021
 
 -0.3333333E+00  0.5555556E-01  0.0000000E+00  0.1543210E-02
    1      -12.199614
    2      -11.779680
    3       -3.674987
    4       -3.471346
    5       -0.834305
    6       -0.539475
    7       -0.438820
    8        1.547433
    9       10.372245
   10       11.476702
   11       12.767900
   12       13.212226
 
 -0.2777778E+00  0.5555556E-01  0.0000000E+00  0.1543210E-02
    1      -12.922489
    2      -12.483280
    3       -2.204390
    4       -2.040183
    5       -1.689387
    6       -0.009823
    7        0.082405
    8        0.804577
    9       11.968265
   10       11.987458
   11       12.858002
   12       13.442040
 
 -0.2222222E+00  0.5555556E-01  0.0000000E+00  0.1543210E-02
    1      -13.506187
    2      -13.051510
    3       -2.388506
    4       -0.791361
    5       -0.669632
    6        0.180741
    7        0.599714
    8        0.678146
    9       11.286615
   10       13.504631
   11       13.669252
   12       14.000543
 
 -0.1666667E+00  0.5555556E-01  0.0000000E+00  0.1543210E-02
    1      -13.946759
    2      -13.480350
    3       -2.919866
    4       -0.300003
    5        0.461948
    6        0.539517
    7        1.234188
    8        1.291116
    9       10.769171
   10       13.781178
   11       13.990126
   12       14.795582
 
 -0.1111111E+00  0.5555556E-01  0.0000000E+00  0.1543210E-02
    1      -14.241723
    2      -13.767404
    3       -3.276934
    4       -0.625584
    5        1.416471
    6        1.463762
    7        1.790911
    8        1.829255
    9       10.423789
   10       13.707133
   11       13.838851
   12       14.434922
 
 -0.5555556E-01  0.5555556E-01  0.0000000E+00  0.7716049E-03
    1      -14.389524
    2      -13.911241
    3       -3.456273
    4       -0.789674
    5        1.944368
    6        1.992909
    7        2.105052
    8        2.148863
    9       10.251913
   10       13.604830
   11       13.713940
   12       13.893523
 
  0.1111111E+00  0.1111111E+00  0.0000000E+00  0.7716049E-03
    1      -13.578643
    2      -13.121987
    3       -2.475598
    4       -0.434640
    5       -0.365128
    6        0.102539
    7        0.531462
    8        0.581942
    9       11.205357
   10       13.764241
   11       14.189096
   12       14.406624
 
  0.1666667E+00  0.1111111E+00  0.0000000E+00  0.1543210E-02
    1      -13.066931
    2      -12.623895
    3       -1.861176
    4       -1.593503
    5       -1.483543
    6       -0.222855
    7       -0.146367
    8        0.653818
    9       11.812431
   10       12.471633
   11       13.140087
   12       14.325326
 
  0.2222222E+00  0.1111111E+00  0.0000000E+00  0.1543210E-02
    1      -12.414455
    2      -11.988770
    3       -2.934438
    4       -2.770380
    5       -1.084515
    6       -0.879317
    7       -0.774482
    8        1.338035
    9       11.001418
   10       11.855493
   11       12.582184
   12       14.170919
 
  0.2777778E+00  0.1111111E+00  0.0000000E+00  0.1543210E-02
    1      -11.626604
    2      -11.222284
    3       -4.343161
    4       -4.133269
    5       -1.398301
    6       -1.277077
    7       -0.161611
    8        2.121244
    9        9.470037
   10       10.533259
   11       13.478412
   12       13.968295
 
  0.3333333E+00  0.1111111E+00  0.0000000E+00  0.1543210E-02
    1      -10.713466
    2      -10.335060
    3       -5.736557
    4       -5.489462
    5       -1.773595
    6       -1.643573
    7        0.873422
    8        2.917753
    9        8.040340
   10        9.234604
   11       13.721083
   12       14.271964
 
  0.3888889E+00  0.1111111E+00  0.0000000E+00  0.1543210E-02
    1       -9.702730
    2       -9.363432
    3       -7.036440
    4       -6.769397
    5       -2.000975
    6       -1.866468
    7        1.926464
    8        3.473634
    9        7.028895
   10        8.067751
   11       13.603103
   12       14.247937
 
  0.4444444E+00  0.1111111E+00  0.0000000E+00  0.1543210E-02
    1       -8.895953
    2       -8.715074
    3       -7.796891
    4       -7.667055
    5       -2.077707
    6       -1.941773
    7        2.561235
    8        3.495041
    9        6.823674
   10        7.421611
   11       13.560733
   12       14.221627
 
  0.5000000E+00  0.1111111E+00  0.0000000E+00  0.1543210E-02
    1       -9.706007
    2       -9.366599
    3       -7.032505
    4       -6.765224
    5       -2.002402
    6       -1.867823
    7        1.924137
    8        3.473134
    9        7.027480
   10        8.071838
   11       13.604715
   12       14.249546
 
 -0.4444444E+00  0.1111111E+00  0.0000000E+00  0.1543210E-02
    1      -10.716467
    2      -10.338048
    3       -5.732037
    4       -5.484744
    5       -1.776306
    6       -1.646144
    7        0.870876
    8        2.915945
    9        8.039599
   10        9.239146
   11       13.724237
   12       14.273338
 
 -0.3888889E+00  0.1111111E+00  0.0000000E+00  0.1543210E-02
    1      -11.629197
    2      -11.224867
    3       -4.338610
    4       -4.128482
    5       -1.401889
    6       -1.280493
    7       -0.164063
    8        2.119130
    9        9.468481
   10       10.537822
   11       13.475493
   12       13.972311
 
 -0.3333333E+00  0.1111111E+00  0.0000000E+00  0.1543210E-02
    1      -12.416616
    2      -11.990919
    3       -2.930696
    4       -2.766385
    5       -1.086609
    6       -0.882716
    7       -0.777804
    8        1.336046
    9       10.998000
   10       11.859940
   11       12.579205
   12       14.177130
 
 -0.2777778E+00  0.1111111E+00  0.0000000E+00  0.1543210E-02
    1      -13.068657
    2      -12.625586
    3       -1.862856
    4       -1.592705
    5       -1.482380
    6       -0.223642
    7       -0.147319
    8        0.652126
    9       11.810001
   10       12.465984
   11       13.144152
   12       14.333478
 
 -0.2222222E+00  0.1111111E+00  0.0000000E+00  0.1543210E-02
    1      -13.579931
    2      -13.123257
    3       -2.476905
    4       -0.440588
    5       -0.369418
    6        0.101232
    7        0.536484
    8        0.587332
    9       11.203493
   10       13.757324
   11       14.201277
   12       14.371880
 
 -0.1666667E+00  0.1111111E+00  0.0000000E+00  0.1543210E-02
    1      -13.947091
    2      -13.480672
    3       -2.920203
    4       -0.300347
    5        0.452708
    6        0.531732
    7        1.242718
    8        1.300584
    9       10.768705
   10       13.791594
   11       13.999118
   12       14.792089
 
 -0.1111111E+00  0.1111111E+00  0.0000000E+00  0.7716049E-03
    1      -14.168075
    2      -13.695740
    3       -3.187684
    4       -0.544076
    5        1.109867
    6        1.187675
    7        1.681731
    8        1.741983
    9       10.509324
   10       13.618045
   11       13.793647
   12       14.798844
 
  0.1666667E+00  0.1666667E+00  0.0000000E+00  0.7716049E-03
    1      -12.486629
    2      -12.059048
    3       -2.508505
    4       -2.415076
    5       -1.168657
    6       -1.137779
    7       -1.069391
    8        1.267185
    9       11.267352
   10       11.965861
   11       12.506827
   12       15.122040
 
  0.2222222E+00  0.1666667E+00  0.0000000E+00  0.1543210E-02
    1      -11.769237
    2      -11.360914
    3       -3.645844
    4       -3.502475
    5       -1.920366
    6       -1.816398
    7       -0.321615
    8        2.000168
    9        9.929755
   10       10.736284
   11       13.359158
   12       15.276243
 
  0.2777778E+00  0.1666667E+00  0.0000000E+00  0.1543210E-02
    1      -10.922448
    2      -10.537625
    3       -4.930093
    4       -4.725920
    5       -2.473070
    6       -2.333861
    7        0.658257
    8        2.805914
    9        8.548280
   10        9.511133
   11       14.345951
   12       15.114621
 
  0.3333333E+00  0.1666667E+00  0.0000000E+00  0.1543210E-02
    1       -9.962367
    2       -9.607589
    3       -6.225372
    4       -5.980221
    5       -2.820142
    6       -2.663861
    7        1.720422
    8        3.550171
    9        7.326682
   10        8.336981
   11       14.910998
   12       15.441871
 
  0.3888889E+00  0.1666667E+00  0.0000000E+00  0.1543210E-02
    1       -8.959477
    2       -8.675892
    3       -7.362425
    4       -7.132417
    5       -2.989150
    6       -2.826242
    7        2.686058
    8        3.846013
    9        6.754663
   10        7.339245
   11       14.833630
   12       15.594056
 
  0.4444444E+00  0.1666667E+00  0.0000000E+00  0.1543210E-02
    1       -8.963946
    2       -8.679692
    3       -7.358237
    4       -7.127117
    5       -2.990163
    6       -2.827080
    7        2.683506
    8        3.846447
    9        6.750107
   10        7.345641
   11       14.834583
   12       15.594939
 
  0.5000000E+00  0.1666667E+00  0.0000000E+00  0.1543210E-02
    1       -9.967124
    2       -9.612315
    3       -6.219068
    4       -5.973496
    5       -2.822692
    6       -2.666235
    7        1.716708
    8        3.548059
    9        7.323913
   10        8.344525
   11       14.913730
   12       15.431186
 
 -0.4444444E+00  0.1666667E+00  0.0000000E+00  0.1543210E-02
    1      -10.926651
    2      -10.541824
    3       -4.923796
    4       -4.719142
    5       -2.476591
    6       -2.337147
    7        0.654591
    8        2.802726
    9        8.544932
   10        9.518878
   11       14.340257
   12       15.119120
 
 -0.3888889E+00  0.1666667E+00  0.0000000E+00  0.1543210E-02
    1      -11.772801
    2      -11.364469
    3       -3.641551
    4       -3.497437
    5       -1.922757
    6       -1.818679
    7       -0.324942
    8        1.996962
    9        9.923961
   10       10.743909
   11       13.354238
   12       15.284291
 
 -0.3333333E+00  0.1666667E+00  0.0000000E+00  0.1543210E-02
    1      -12.489515
    2      -12.061939
    3       -2.510312
    4       -2.414704
    5       -1.171498
    6       -1.136013
    7       -1.066308
    8        1.264350
    9       11.259020
   10       11.972371
   11       12.502832
   12       15.141660
 
 -0.2777778E+00  0.1666667E+00  0.0000000E+00  0.1543210E-02
    1      -13.069191
    2      -12.626119
    3       -1.863399
    4       -1.601572
    5       -1.489694
    6       -0.214862
    7       -0.137461
    8        0.651517
    9       11.809325
   10       12.462232
   11       13.143985
   12       14.351976
 
 -0.2222222E+00  0.1666667E+00  0.0000000E+00  0.1543210E-02
    1      -13.507041
    2      -13.052360
    3       -2.389391
    4       -0.803914
    5       -0.681194
    6        0.179807
    7        0.613428
    8        0.692084
    9       11.285477
   10       13.498470
   11       13.689229
   12       14.018925
 
 -0.1666667E+00  0.1666667E+00  0.0000000E+00  0.7716049E-03
    1      -13.800211
    2      -13.337758
    3       -2.742812
    4       -0.139467
    5       -0.084478
    6        0.029088
    7        1.116257
    8        1.190149
    9       10.938950
   10       13.506592
   11       13.790770
   12       14.313406
 
  0.2222222E+00  0.2222222E+00  0.0000000E+00  0.7716049E-03
    1      -10.992418
    2      -10.605665
    3       -4.436624
    4       -4.320115
    5       -2.878081
    6       -2.791288
    7        0.585402
    8        2.765374
    9        8.775373
   10        9.585432
   11       14.280297
   12       16.387605
 
  0.2777778E+00  0.2222222E+00  0.0000000E+00  0.1543210E-02
    1      -10.095875
    2       -9.735478
    3       -5.465076
    4       -5.290898
    5       -3.560999
    6       -3.429884
    7        1.607391
    8        3.572766
    9        7.586291
   10        8.470904
   11       15.316040
   12       16.419721
 
  0.3333333E+00  0.2222222E+00  0.0000000E+00  0.1543210E-02
    1       -9.109966
    2       -8.788542
    3       -6.600620
    4       -6.375256
    5       -3.923660
    6       -3.755255
    7        2.667151
    8        4.209465
    9        6.629436
   10        7.435901
   11       16.216300
   12       16.472782
 
  0.3888889E+00  0.2222222E+00  0.0000000E+00  0.1543210E-02
    1       -8.328417
    2       -8.156316
    3       -7.301964
    4       -7.207102
    5       -4.035075
    6       -3.856355
    7        3.345276
    8        4.244861
    9        6.571754
   10        6.679116
   11       16.201204
   12       17.200510
 
  0.4444444E+00  0.2222222E+00  0.0000000E+00  0.1543210E-02
    1       -9.116501
    2       -8.794953
    3       -6.593242
    4       -6.366911
    5       -3.925360
    6       -3.756707
    7        2.662687
    8        4.208094
    9        6.622648
   10        7.447006
   11       16.216298
   12       16.463067
 
  0.5000000E+00  0.2222222E+00  0.0000000E+00  0.1543210E-02
    1      -10.101887
    2       -9.741511
    3       -5.458208
    4       -5.282867
    5       -3.563091
    6       -3.431524
    7        1.602585
    8        3.568546
    9        7.580522
   10        8.482085
   11       15.307372
   12       16.423134
 
 -0.4444444E+00  0.2222222E+00  0.0000000E+00  0.1543210E-02
    1      -10.997593
    2      -10.610861
    3       -4.434805
    4       -4.315532
    5       -2.877448
    6       -2.788876
    7        0.580861
    8        2.760758
    9        8.767667
   10        9.595760
   11       14.273132
   12       16.408400
 
 -0.3888889E+00  0.2222222E+00  0.0000000E+00  0.1543210E-02
    1      -11.773562
    2      -11.365249
    3       -3.650028
    4       -3.504345
    5       -1.914175
    6       -1.808769
    7       -0.325644
    8        1.995936
    9        9.920471
   10       10.743742
   11       13.353380
   12       15.311452
 
 -0.3333333E+00  0.2222222E+00  0.0000000E+00  0.1543210E-02
    1      -12.417901
    2      -11.992208
    3       -2.942696
    4       -2.777465
    5       -1.087869
    6       -0.868499
    7       -0.763211
    8        1.334484
    9       10.991517
   10       11.858960
   11       12.577743
   12       14.204228
 
 -0.2777778E+00  0.2222222E+00  0.0000000E+00  0.1543210E-02
    1      -12.924100
    2      -12.484899
    3       -2.217639
    4       -2.052794
    5       -1.691007
    6        0.006436
    7        0.098602
    8        0.802757
    9       11.966392
   10       11.979159
   11       12.856318
   12       13.467976
 
 -0.2222222E+00  0.2222222E+00  0.0000000E+00  0.7716049E-03
    1      -13.287992
    2      -12.839103
    3       -2.126485
    4       -1.479540
    5       -1.327846
    6        0.415117
    7        0.517612
    8        0.601214
    9       11.536183
   10       12.848241
   11       13.285628
   12       13.683126
 
  0.2777778E+00  0.2777778E+00  0.0000000E+00  0.7716049E-03
    1       -9.167192
    2       -8.838987
    3       -6.080996
    4       -5.943401
    5       -4.418130
    6       -4.323044
    7        2.648536
    8        4.358190
    9        6.578420
   10        7.488074
   11       16.336209
   12       17.261214
 
  0.3333333E+00  0.2777778E+00  0.0000000E+00  0.1543210E-02
    1       -8.204601
    2       -7.940257
    3       -6.901976
    4       -6.738678
    5       -4.869856
    6       -4.737792
    7        3.656023
    8        4.826188
    9        5.862460
   10        6.655203
   11       16.877802
   12       16.982041
 
  0.3888889E+00  0.2777778E+00  0.0000000E+00  0.1543210E-02
    1       -8.212391
    2       -7.947310
    3       -6.896059
    4       -6.729377
    5       -4.870174
    6       -4.737705
    7        3.652032
    8        4.827594
    9        5.853134
   10        6.665716
   11       16.873792
   12       16.974141
 
  0.4444444E+00  0.2777778E+00  0.0000000E+00  0.1543210E-02
    1       -9.175218
    2       -8.847141
    3       -6.076250
    4       -5.935423
    5       -4.417265
    6       -4.320188
    7        2.643159
    8        4.352589
    9        6.571821
   10        7.501091
   11       16.324170
   12       17.279403
 
  0.5000000E+00  0.2777778E+00  0.0000000E+00  0.1543210E-02
    1      -10.102928
    2       -9.742624
    3       -5.465507
    4       -5.288845
    5       -3.555272
    6       -3.422459
    7        1.601925
    8        3.566169
    9        7.578924
   10        8.482013
   11       15.306428
   12       16.457663
 
 -0.4444444E+00  0.2777778E+00  0.0000000E+00  0.1543210E-02
    1      -10.928413
    2      -10.543635
    3       -4.934481
    4       -4.729051
    5       -2.463092
    6       -2.323236
    7        0.653154
    8        2.799797
    9        8.540217
   10        9.517959
   11       14.338830
   12       15.152115
 
 -0.3888889E+00  0.2777778E+00  0.0000000E+00  0.1543210E-02
    1      -11.631468
    2      -11.227161
    3       -4.350675
    4       -4.140054
    5       -1.385388
    6       -1.263987
    7       -0.166128
    8        2.116023
    9        9.461301
   10       10.535505
   11       13.474908
   12       14.002545
 
 -0.3333333E+00  0.2777778E+00  0.0000000E+00  0.1543210E-02
    1      -12.202192
    2      -11.782265
    3       -3.687482
    4       -3.483429
    5       -0.836783
    6       -0.521887
    7       -0.421387
    8        1.544306
    9       10.363478
   10       11.473518
   11       12.767976
   12       13.240501
 
 -0.2777778E+00  0.2777778E+00  0.0000000E+00  0.7716049E-03
    1      -12.634385
    2      -12.202865
    3       -2.959826
    4       -2.770139
    5       -1.347405
    6       -0.038559
    7        0.051589
    8        1.102624
    9       11.227906
   10       12.273588
   11       12.277837
   12       13.033054
 
  0.3333333E+00  0.3333333E+00  0.0000000E+00  0.7716049E-03
    1       -7.459733
    2       -7.300082
    3       -7.297329
    4       -7.140907
    5       -5.243128
    6       -5.241610
    7        4.350644
    8        5.193605
    9        5.205848
   10        6.278512
   11       16.684062
   12       16.714312
 
  0.3888889E+00  0.3333333E+00  0.0000000E+00  0.1543210E-02
    1       -8.214835
    2       -7.951545
    3       -6.897716
    4       -6.732164
    5       -4.864946
    6       -4.730991
    7        3.652922
    8        4.814335
    9        5.860720
   10        6.667273
   11       16.858014
   12       17.040516
 
  0.4444444E+00  0.3333333E+00  0.0000000E+00  0.1543210E-02
    1       -9.119221
    2       -8.798303
    3       -6.600594
    4       -6.374182
    5       -3.914149
    6       -3.745020
    7        2.662176
    8        4.198502
    9        6.624993
   10        7.446773
   11       16.241769
   12       16.472836
 
  0.5000000E+00  0.3333333E+00  0.0000000E+00  0.1543210E-02
    1       -9.970288
    2       -9.615760
    3       -6.228947
    4       -5.982949
    5       -2.807777
    6       -2.651276
    7        1.714917
    8        3.540711
    9        7.321778
   10        8.342534
   11       14.946594
   12       15.438891
 
 -0.4444444E+00  0.3333333E+00  0.0000000E+00  0.1543210E-02
    1      -10.720017
    2      -10.341725
    3       -5.742737
    4       -5.495198
    5       -1.759055
    6       -1.629004
    7        0.868161
    8        2.909886
    9        8.034326
   10        9.235417
   11       13.756106
   12       14.299592
 
 -0.3888889E+00  0.3333333E+00  0.0000000E+00  0.1543210E-02
    1      -11.348293
    2      -10.951978
    3       -5.143589
    4       -4.903387
    5       -0.938914
    6       -0.833265
    7        0.150110
    8        2.348566
    9        8.795042
   10       10.083255
   11       12.950417
   12       13.444177
 
 -0.3333333E+00  0.3333333E+00  0.0000000E+00  0.7716049E-03
    1      -11.844540
    2      -11.434159
    3       -4.447293
    4       -4.221113
    5       -0.505326
    6       -0.421889
    7       -0.410621
    8        1.886621
    9        9.590654
   10       10.850929
   11       12.713270
   12       13.090569
 
  0.3888889E+00  0.3888889E+00  0.0000000E+00  0.7716049E-03
    1       -8.337018
    2       -8.168805
    3       -7.300523
    4       -7.207943
    5       -4.023789
    6       -3.844704
    7        3.346632
    8        4.225543
    9        6.572152
   10        6.687141
   11       16.237637
   12       17.233003
 
  0.4444444E+00  0.3888889E+00  0.0000000E+00  0.1543210E-02
    1       -8.969795
    2       -8.687694
    3       -7.363081
    4       -7.133531
    5       -2.975218
    6       -2.812251
    7        2.683630
    8        3.829344
    9        6.756012
   10        7.341753
   11       14.870925
   12       15.631946
 
  0.5000000E+00  0.3888889E+00  0.0000000E+00  0.1543210E-02
    1       -9.711432
    2       -9.372725
    3       -7.040444
    4       -6.773467
    5       -1.985181
    6       -1.850728
    7        1.921934
    8        3.460413
    9        7.028424
   10        8.066265
   11       13.639335
   12       14.284285
 
 -0.4444444E+00  0.3888889E+00  0.0000000E+00  0.1543210E-02
    1      -10.377291
    2      -10.010815
    3       -6.529300
    4       -6.260498
    5       -1.225639
    6       -1.116860
    7        1.214305
    8        3.060914
    9        7.490482
   10        8.779248
   11       12.798885
   12       13.392396
 
 -0.3888889E+00  0.3888889E+00  0.0000000E+00  0.7716049E-03
    1      -10.927949
    2      -10.543644
    3       -5.886231
    4       -5.627735
    5       -0.854416
    6       -0.756788
    7        0.615073
    8        2.674424
    9        8.102399
   10        9.467978
   11       12.544208
   12       13.105593
 
  0.4444444E+00  0.4444444E+00  0.0000000E+00  0.7716049E-03
    1       -8.905537
    2       -8.728731
    3       -7.797289
    4       -7.670290
    5       -2.061007
    6       -1.925178
    7        2.562116
    8        3.474046
    9        6.832171
   10        7.413091
   11       13.596539
   12       14.257769
 
  0.5000000E+00  0.4444444E+00  0.0000000E+00  0.1543210E-02
    1       -9.357874
    2       -9.065230
    3       -7.713044
    4       -7.467018
    5       -1.371620
    6       -1.261106
    7        2.165450
    8        3.313960
    9        6.865428
   10        7.768245
   11       12.715337
   12       13.336369
 
 -0.4444444E+00  0.4444444E+00  0.0000000E+00  0.7716049E-03
    1       -9.911522
    2       -9.566595
    3       -7.212091
    4       -6.936484
    5       -1.069400
    6       -0.970003
    7        1.666119
    8        3.205569
    9        7.071479
   10        8.257113
   11       12.422160
   12       13.026404
 
  0.5000000E+00  0.5000000E+00  0.0000000E+00  0.3858025E-03
    1       -9.095461
    2       -8.915883
    3       -7.982413
    4       -7.849567
    5       -1.141886
    6       -1.041986
    7        2.295929
    8        3.216627
    9        6.832263
   10        7.630333
   11       12.379860
   12       12.996243
 