  32  32   0   0
  0.8206758E+01  0.4932875E-09  0.4932875E-09  0.1246769E-08  0.5000000E-15
  1.000000000000000E-004
  CAR 
 graphite                                
     17.13247228    -16.38142539  301      5.32951464      1.00000000
    -16.381  0.0000E+00  0.0000E+00
    -16.270  0.0000E+00  0.0000E+00
    -16.158  0.0000E+00  0.0000E+00
    -16.046  0.0000E+00  0.0000E+00
    -15.935  0.0000E+00  0.0000E+00
    -15.823  0.0000E+00  0.0000E+00
    -15.711  0.0000E+00  0.0000E+00
    -15.599  0.0000E+00  0.0000E+00
    -15.488  0.0000E+00  0.0000E+00
    -15.376  0.0000E+00  0.0000E+00
    -15.264  0.0000E+00  0.0000E+00
    -15.153  0.0000E+00  0.0000E+00
    -15.041  0.0000E+00  0.0000E+00
    -14.929  0.0000E+00  0.0000E+00
    -14.817  0.0000E+00  0.0000E+00
    -14.706  0.0000E+00  0.0000E+00
    -14.594  0.0000E+00  0.0000E+00
    -14.482  0.0000E+00  0.0000E+00
    -14.371  0.4452E-01  0.1608E-03
    -14.259  0.1445E+01  0.1001E+00
    -14.147  0.2309E+01  0.3087E+00
    -14.035  0.2903E+01  0.6000E+00
    -13.924  0.3732E+01  0.9682E+00
    -13.812  0.5112E+01  0.1463E+01
    -13.700  0.4938E+01  0.2011E+01
    -13.589  0.4871E+01  0.2560E+01
    -13.477  0.5002E+01  0.3112E+01
    -13.365  0.4926E+01  0.3669E+01
    -13.253  0.4931E+01  0.4218E+01
    -13.142  0.5380E+01  0.4789E+01
    -13.030  0.5580E+01  0.5402E+01
    -12.918  0.6379E+01  0.6067E+01
    -12.807  0.5654E+01  0.6766E+01
    -12.695  0.4114E+01  0.7321E+01
    -12.583  0.2624E+01  0.7667E+01
    -12.471  0.3686E+01  0.8042E+01
    -12.360  0.3756E+01  0.8427E+01
    -12.248  0.5830E+01  0.9106E+01
    -12.136  0.5319E+01  0.9715E+01
    -12.025  0.5537E+01  0.1030E+02
    -11.913  0.5322E+01  0.1093E+02
    -11.801  0.4834E+01  0.1147E+02
    -11.689  0.5183E+01  0.1203E+02
    -11.578  0.5008E+01  0.1260E+02
    -11.466  0.5002E+01  0.1316E+02
    -11.354  0.5151E+01  0.1372E+02
    -11.243  0.5781E+01  0.1433E+02
    -11.131  0.5006E+01  0.1493E+02
    -11.019  0.5018E+01  0.1548E+02
    -10.907  0.5091E+01  0.1605E+02
    -10.796  0.5180E+01  0.1662E+02
    -10.684  0.5253E+01  0.1721E+02
    -10.572  0.5331E+01  0.1780E+02
    -10.461  0.5580E+01  0.1840E+02
    -10.349  0.5710E+01  0.1903E+02
    -10.237  0.5951E+01  0.1968E+02
    -10.125  0.6079E+01  0.2036E+02
    -10.014  0.6131E+01  0.2104E+02
     -9.902  0.5131E+01  0.2167E+02
     -9.790  0.4141E+01  0.2219E+02
     -9.679  0.4228E+01  0.2264E+02
     -9.567  0.5004E+01  0.2316E+02
     -9.455  0.5387E+01  0.2375E+02
     -9.344  0.5599E+01  0.2436E+02
     -9.232  0.6271E+01  0.2501E+02
     -9.120  0.7017E+01  0.2575E+02
     -9.008  0.8535E+01  0.2661E+02
     -8.897  0.8612E+01  0.2764E+02
     -8.785  0.6119E+01  0.2850E+02
     -8.673  0.4941E+01  0.2911E+02
     -8.562  0.3635E+01  0.2965E+02
     -8.450  0.3241E+01  0.3004E+02
     -8.338  0.2847E+01  0.3038E+02
     -8.226  0.2493E+01  0.3068E+02
     -8.115  0.2986E+01  0.3099E+02
     -8.003  0.2331E+01  0.3127E+02
     -7.891  0.1876E+01  0.3151E+02
     -7.780  0.2067E+01  0.3171E+02
     -7.668  0.4098E+01  0.3201E+02
     -7.556  0.6250E+01  0.3268E+02
     -7.444  0.4232E+01  0.3321E+02
     -7.333  0.4111E+01  0.3367E+02
     -7.221  0.6224E+01  0.3422E+02
     -7.109  0.6631E+01  0.3490E+02
     -6.998  0.6730E+01  0.3570E+02
     -6.886  0.7901E+01  0.3651E+02
     -6.774  0.8216E+01  0.3745E+02
     -6.662  0.7284E+01  0.3832E+02
     -6.551  0.6109E+01  0.3904E+02
     -6.439  0.5816E+01  0.3971E+02
     -6.327  0.5580E+01  0.4034E+02
     -6.216  0.5378E+01  0.4096E+02
     -6.104  0.5192E+01  0.4155E+02
     -5.992  0.5001E+01  0.4212E+02
     -5.880  0.4865E+01  0.4267E+02
     -5.769  0.4828E+01  0.4321E+02
     -5.657  0.4795E+01  0.4374E+02
     -5.545  0.4625E+01  0.4427E+02
     -5.434  0.4515E+01  0.4478E+02
     -5.322  0.3789E+01  0.4526E+02
     -5.210  0.3831E+01  0.4566E+02
     -5.098  0.4460E+01  0.4613E+02
     -4.987  0.5178E+01  0.4667E+02
     -4.875  0.5929E+01  0.4729E+02
     -4.763  0.7962E+01  0.4803E+02
     -4.652  0.9298E+01  0.4900E+02
     -4.540  0.8449E+01  0.5006E+02
     -4.428  0.5741E+01  0.5085E+02
     -4.316  0.3090E+01  0.5135E+02
     -4.205  0.2377E+01  0.5163E+02
     -4.093  0.3324E+01  0.5194E+02
     -3.981  0.4758E+01  0.5239E+02
     -3.870  0.6459E+01  0.5301E+02
     -3.758  0.7871E+01  0.5383E+02
     -3.646  0.7801E+01  0.5472E+02
     -3.534  0.6302E+01  0.5551E+02
     -3.423  0.5597E+01  0.5616E+02
     -3.311  0.8418E+01  0.5693E+02
     -3.199  0.8121E+01  0.5786E+02
     -3.088  0.7799E+01  0.5874E+02
     -2.976  0.7619E+01  0.5960E+02
     -2.864  0.7784E+01  0.6046E+02
     -2.752  0.8200E+01  0.6142E+02
     -2.641  0.8727E+01  0.6239E+02
     -2.529  0.9222E+01  0.6343E+02
     -2.417  0.7826E+01  0.6438E+02
     -2.306  0.7103E+01  0.6519E+02
     -2.194  0.8087E+01  0.6603E+02
     -2.082  0.9634E+01  0.6702E+02
     -1.970  0.1101E+02  0.6821E+02
     -1.859  0.1250E+02  0.6951E+02
     -1.747  0.1065E+02  0.7084E+02
     -1.635  0.1145E+02  0.7201E+02
     -1.524  0.1259E+02  0.7334E+02
     -1.412  0.1456E+02  0.7485E+02
     -1.300  0.1275E+02  0.7644E+02
     -1.188  0.1526E+02  0.7791E+02
     -1.077  0.1100E+02  0.7945E+02
     -0.965  0.1827E+02  0.8086E+02
     -0.853  0.1839E+02  0.8301E+02
     -0.742  0.1579E+02  0.8496E+02
     -0.630  0.1395E+02  0.8662E+02
     -0.518  0.1203E+02  0.8808E+02
     -0.406  0.1026E+02  0.8931E+02
     -0.295  0.9644E+01  0.9042E+02
     -0.183  0.9369E+01  0.9145E+02
     -0.071  0.1309E+02  0.9268E+02
      0.040  0.1331E+02  0.9417E+02
      0.152  0.1102E+02  0.9572E+02
      0.264  0.8962E+01  0.9678E+02
      0.376  0.9097E+01  0.9774E+02
      0.487  0.9896E+01  0.9882E+02
      0.599  0.1063E+02  0.9996E+02
      0.711  0.1189E+02  0.1012E+03
      0.822  0.1074E+02  0.1024E+03
      0.934  0.9438E+01  0.1036E+03
      1.046  0.9296E+01  0.1046E+03
      1.158  0.9364E+01  0.1056E+03
      1.269  0.9370E+01  0.1067E+03
      1.381  0.9503E+01  0.1077E+03
      1.493  0.9481E+01  0.1088E+03
      1.604  0.9468E+01  0.1098E+03
      1.716  0.9979E+01  0.1110E+03
      1.828  0.9188E+01  0.1120E+03
      1.940  0.8707E+01  0.1130E+03
      2.051  0.8715E+01  0.1140E+03
      2.163  0.9490E+01  0.1150E+03
      2.275  0.9428E+01  0.1161E+03
      2.386  0.6248E+01  0.1170E+03
      2.498  0.6325E+01  0.1177E+03
      2.610  0.6319E+01  0.1184E+03
      2.721  0.5604E+01  0.1190E+03
      2.833  0.3579E+01  0.1195E+03
      2.945  0.5693E+01  0.1200E+03
      3.057  0.8408E+01  0.1208E+03
      3.168  0.8811E+01  0.1218E+03
      3.280  0.5037E+01  0.1225E+03
      3.392  0.5141E+01  0.1231E+03
      3.503  0.5392E+01  0.1237E+03
      3.615  0.6222E+01  0.1243E+03
      3.727  0.5424E+01  0.1250E+03
      3.839  0.4036E+01  0.1255E+03
      3.950  0.3291E+01  0.1259E+03
      4.062  0.2945E+01  0.1263E+03
      4.174  0.2610E+01  0.1266E+03
      4.285  0.2251E+01  0.1269E+03
      4.397  0.1837E+01  0.1271E+03
      4.509  0.1619E+01  0.1273E+03
      4.621  0.1400E+01  0.1275E+03
      4.732  0.1205E+01  0.1276E+03
      4.844  0.1027E+01  0.1277E+03
      4.956  0.9391E+00  0.1278E+03
      5.067  0.6409E+00  0.1279E+03
      5.179  0.3483E+00  0.1280E+03
      5.291  0.6139E-01  0.1280E+03
      5.403  0.7178E-01  0.1280E+03
      5.514  0.2251E+00  0.1280E+03
      5.626  0.3864E+00  0.1281E+03
      5.738  0.5559E+00  0.1281E+03
      5.849  0.7375E+00  0.1282E+03
      5.961  0.9266E+00  0.1283E+03
      6.073  0.1111E+01  0.1284E+03
      6.185  0.1371E+01  0.1285E+03
      6.296  0.1645E+01  0.1287E+03
      6.408  0.1960E+01  0.1289E+03
      6.520  0.2392E+01  0.1291E+03
      6.631  0.3527E+01  0.1295E+03
      6.743  0.4734E+01  0.1299E+03
      6.855  0.6112E+01  0.1305E+03
      6.967  0.1076E+02  0.1317E+03
      7.078  0.8081E+01  0.1326E+03
      7.190  0.7238E+01  0.1335E+03
      7.302  0.7027E+01  0.1343E+03
      7.413  0.7005E+01  0.1351E+03
      7.525  0.6032E+01  0.1359E+03
      7.637  0.5145E+01  0.1365E+03
      7.749  0.4354E+01  0.1370E+03
      7.860  0.4245E+01  0.1375E+03
      7.972  0.3538E+01  0.1379E+03
      8.084  0.3588E+01  0.1383E+03
      8.195  0.3852E+01  0.1387E+03
      8.307  0.4225E+01  0.1392E+03
      8.419  0.4662E+01  0.1397E+03
      8.531  0.4913E+01  0.1402E+03
      8.642  0.4937E+01  0.1407E+03
      8.754  0.4566E+01  0.1413E+03
      8.866  0.4202E+01  0.1418E+03
      8.977  0.4034E+01  0.1422E+03
      9.089  0.3927E+01  0.1427E+03
      9.201  0.3744E+01  0.1431E+03
      9.313  0.3613E+01  0.1435E+03
      9.424  0.3536E+01  0.1439E+03
      9.536  0.3416E+01  0.1443E+03
      9.648  0.3292E+01  0.1447E+03
      9.759  0.3210E+01  0.1450E+03
      9.871  0.3193E+01  0.1454E+03
      9.983  0.3200E+01  0.1458E+03
     10.095  0.3033E+01  0.1461E+03
     10.206  0.3016E+01  0.1464E+03
     10.318  0.2953E+01  0.1468E+03
     10.430  0.2966E+01  0.1471E+03
     10.541  0.3187E+01  0.1474E+03
     10.653  0.3389E+01  0.1478E+03
     10.765  0.3470E+01  0.1482E+03
     10.877  0.3543E+01  0.1486E+03
     10.988  0.3531E+01  0.1490E+03
     11.100  0.3776E+01  0.1494E+03
     11.212  0.4037E+01  0.1498E+03
     11.323  0.4154E+01  0.1503E+03
     11.435  0.4087E+01  0.1507E+03
     11.547  0.3951E+01  0.1512E+03
     11.659  0.3916E+01  0.1516E+03
     11.770  0.4053E+01  0.1521E+03
     11.882  0.5021E+01  0.1526E+03
     11.994  0.3775E+01  0.1531E+03
     12.105  0.3336E+01  0.1535E+03
     12.217  0.2472E+01  0.1538E+03
     12.329  0.2395E+01  0.1541E+03
     12.441  0.3548E+01  0.1544E+03
     12.552  0.5872E+01  0.1550E+03
     12.664  0.6019E+01  0.1556E+03
     12.776  0.8892E+01  0.1564E+03
     12.887  0.1006E+02  0.1575E+03
     12.999  0.1137E+02  0.1586E+03
     13.111  0.1228E+02  0.1600E+03
     13.223  0.1174E+02  0.1613E+03
     13.334  0.1018E+02  0.1625E+03
     13.446  0.9891E+01  0.1636E+03
     13.558  0.1028E+02  0.1647E+03
     13.669  0.1036E+02  0.1659E+03
     13.781  0.6730E+01  0.1669E+03
     13.893  0.3574E+01  0.1675E+03
     14.005  0.1905E+01  0.1678E+03
     14.116  0.5623E+00  0.1679E+03
     14.228  0.2635E+00  0.1680E+03
     14.340  0.1013E+00  0.1680E+03
     14.451  0.7289E-01  0.1680E+03
     14.563  0.5094E-01  0.1680E+03
     14.675  0.3291E-01  0.1680E+03
     14.786  0.1881E-01  0.1680E+03
     14.898  0.8622E-02  0.1680E+03
     15.010  0.2359E-02  0.1680E+03
     15.122  0.1844E-04  0.1680E+03
     15.233  0.0000E+00  0.1680E+03
     15.345  0.0000E+00  0.1680E+03
     15.457  0.0000E+00  0.1680E+03
     15.568  0.0000E+00  0.1680E+03
     15.680  0.0000E+00  0.1680E+03
     15.792  0.0000E+00  0.1680E+03
     15.904  0.0000E+00  0.1680E+03
     16.015  0.0000E+00  0.1680E+03
     16.127  0.0000E+00  0.1680E+03
     16.239  0.0000E+00  0.1680E+03
     16.350  0.0000E+00  0.1680E+03
     16.462  0.0000E+00  0.1680E+03
     16.574  0.0000E+00  0.1680E+03
     16.686  0.0000E+00  0.1680E+03
     16.797  0.0000E+00  0.1680E+03
     16.909  0.0000E+00  0.1680E+03
     17.021  0.0000E+00  0.1680E+03
     17.132  0.0000E+00  0.1680E+03
