   32   32    1    1
  0.8206758E+01  0.4932875E-09  0.4932875E-09  0.1246769E-08  0.5000000E-15
  1.000000000000000E-004
  CAR 
 graphite                                
    128     76     84
 
  0.0000000E+00  0.0000000E+00  0.0000000E+00  0.6944444E-02
    1      -14.382454
    2      -14.137843
    3      -14.137027
    4      -13.864502
    5       -9.007003
    6       -8.999717
    7       -8.996242
    8       -8.893160
    9       -8.892696
   10       -8.885019
   11       -8.881358
   12       -8.881330
   13       -8.878974
   14       -8.812748
   15       -8.800458
   16       -8.798338
   17       -7.887911
   18       -7.885324
   19       -7.883834
   20       -7.848450
   21       -7.844478
   22       -7.842497
   23       -7.841946
   24       -7.841940
   25       -7.837995
   26       -7.744884
   27       -7.739549
   28       -7.736764
   29       -3.503719
   30       -2.256485
   31       -2.254091
   32       -1.070731
   33       -1.067987
   34       -1.048569
   35       -1.018031
   36       -1.013748
   37       -1.013731
   38       -1.012898
   39       -0.995074
   40       -0.992499
   41       -0.960257
   42       -0.957744
   43       -0.938298
   44       -0.695471
   45        2.336823
   46        2.350606
   47        2.351242
   48        2.354839
   49        2.361818
   50        2.364411
   51        2.364621
   52        2.380460
   53        2.381676
   54        2.387192
   55        2.405021
   56        2.988696
   57        2.990497
   58        2.992650
   59        2.996297
   60        2.996324
   61        2.997826
   62        3.320544
   63        3.340765
   64        3.342150
   65        6.939122
   66        6.940738
   67        6.946516
   68        6.982597
   69        6.989385
   70        6.993151
   71        6.994463
   72        6.995065
   73        7.001949
   74        7.763550
   75        7.777782
   76        7.781173
   77       10.387151
   78       12.419022
   79       12.423114
   80       12.456348
   81       12.738833
   82       12.741291
   83       12.744764
   84       12.763162
 
  0.1666667E+00  0.2775558E-16  0.0000000E+00  0.1388889E-01
    1      -14.215869
    2      -13.973372
    3      -13.972566
    4      -13.702681
    5      -10.338502
    6      -10.147488
    7      -10.146801
    8       -9.940369
    9       -9.457318
   10       -9.450530
   11       -9.287247
   12       -9.286518
   13       -9.279630
   14       -9.279002
   15       -9.107801
   16       -9.099892
   17       -7.318555
   18       -7.310733
   19       -7.184768
   20       -7.181920
   21       -7.175200
   22       -7.174786
   23       -7.031213
   24       -7.022795
   25       -6.474117
   26       -6.333353
   27       -6.331627
   28       -6.180487
   29       -3.301486
   30       -2.061523
   31       -2.059137
   32       -1.566238
   33       -1.547044
   34       -1.500742
   35       -1.500277
   36       -1.482461
   37       -1.479944
   38       -1.432832
   39       -1.413617
   40       -0.906963
   41       -0.854396
   42       -0.851339
   43       -0.798059
   44       -0.510850
   45        1.204582
   46        1.692308
   47        1.724036
   48        1.728628
   49        1.760591
   50        1.996906
   51        2.023658
   52        2.029454
   53        2.055964
   54        2.101256
   55        2.102866
   56        2.148320
   57        2.150498
   58        2.881029
   59        2.882461
   60        2.887172
   61        2.888612
   62        3.151647
   63        3.512604
   64        3.527658
   65        7.022345
   66        7.024709
   67        7.264148
   68        7.270589
   69        7.274688
   70        7.277692
   71        7.583239
   72        8.042617
   73        8.052139
   74        8.094526
   75        8.099192
   76        8.975655
   77       10.578688
   78       12.516458
   79       12.827026
   80       12.828916
   81       13.147851
   82       13.156726
   83       13.191602
   84       13.482127
 
  0.3333333E+00  0.5551115E-16  0.0000000E+00  0.1388889E-01
    1      -13.717963
    2      -13.481729
    3      -13.480946
    4      -13.218948
    5      -11.758148
    6      -11.546848
    7      -11.546160
    8      -11.314937
    9       -9.886309
   10       -9.882668
   11       -9.702483
   12       -9.701221
   13       -9.698104
   14       -9.697321
   15       -9.502838
   16       -9.498937
   17       -6.142550
   18       -6.131774
   19       -6.014651
   20       -6.011791
   21       -6.002738
   22       -6.002104
   23       -5.875602
   24       -5.865122
   25       -4.347279
   26       -4.228774
   27       -4.226857
   28       -4.101852
   29       -2.731586
   30       -2.715554
   31       -2.698867
   32       -2.649281
   33       -2.648977
   34       -2.634207
   35       -2.631588
   36       -2.561192
   37       -2.544944
   38       -1.481772
   39       -1.479398
   40       -0.432016
   41       -0.381749
   42       -0.378356
   43       -0.372539
   44       -0.327212
   45        0.022858
   46        0.035842
   47        0.082868
   48        0.086541
   49        0.147020
   50        0.728727
   51        0.730852
   52        1.192620
   53        1.231153
   54        1.235841
   55        1.274789
   56        1.766058
   57        1.768443
   58        2.054807
   59        2.692099
   60        2.692819
   61        2.695654
   62        2.698250
   63        3.684777
   64        3.692041
   65        7.395972
   66        7.400165
   67        7.841957
   68        7.847335
   69        7.850522
   70        7.852477
   71        8.468008
   72        8.471708
   73        9.666677
   74       10.231132
   75       10.234750
   76       10.989369
   77       11.155597
   78       12.768973
   79       13.072241
   80       13.074346
   81       13.214486
   82       13.570862
   83       13.576449
   84       13.578256
 
  0.5000000E+00  0.5551115E-16  0.0000000E+00  0.6944444E-02
    1      -12.896136
    2      -12.893194
    3      -12.671549
    4      -12.668308
    5      -12.668291
    6      -12.665521
    7      -12.420426
    8      -12.417402
    9      -10.036393
   10      -10.034554
   11       -9.849768
   12       -9.847595
   13       -9.847497
   14       -9.845948
   15       -9.645828
   16       -9.643943
   17       -5.206969
   18       -5.204526
   19       -5.134668
   20       -5.130281
   21       -5.129492
   22       -5.129480
   23       -5.064751
   24       -5.062781
   25       -3.593416
   26       -3.592250
   27       -3.552423
   28       -3.552416
   29       -3.551213
   30       -3.548240
   31       -3.489723
   32       -3.487955
   33       -2.112170
   34       -2.109153
   35       -2.021826
   36       -2.021106
   37       -2.021085
   38       -2.015280
   39       -1.926307
   40       -1.922753
   41       -1.711486
   42       -1.709091
   43       -0.536879
   44       -0.533173
   45       -0.532845
   46       -0.530174
   47        0.301937
   48        0.308157
   49        0.346615
   50        0.355348
   51        0.355368
   52        0.356572
   53        0.400206
   54        0.404530
   55        0.915751
   56        0.918504
   57        1.636747
   58        1.638794
   59        2.607664
   60        2.609073
   61        2.609507
   62        2.613241
   63        3.720910
   64        3.723438
   65        7.685099
   66        7.688078
   67        8.148189
   68        8.153715
   69        8.153789
   70        8.153956
   71        8.615959
   72        8.618645
   73       12.095197
   74       12.100645
   75       12.127833
   76       12.133980
   77       12.502220
   78       12.504377
   79       12.506147
   80       12.512840
   81       13.097404
   82       13.101161
   83       13.212036
   84       13.215134
 
  0.0000000E+00  0.1666667E+00  0.0000000E+00  0.1388889E-01
    1      -14.215873
    2      -13.973378
    3      -13.972568
    4      -13.702685
    5      -10.338510
    6      -10.147491
    7      -10.146801
    8       -9.940365
    9       -9.457412
   10       -9.450591
   11       -9.287533
   12       -9.286547
   13       -9.279629
   14       -9.279030
   15       -9.107841
   16       -9.100057
   17       -7.318715
   18       -7.309450
   19       -7.185217
   20       -7.181923
   21       -7.174967
   22       -7.172280
   23       -7.031354
   24       -7.021476
   25       -6.475061
   26       -6.333694
   27       -6.333186
   28       -6.181448
   29       -3.301475
   30       -2.061509
   31       -2.059126
   32       -1.567564
   33       -1.547092
   34       -1.503220
   35       -1.500298
   36       -1.482461
   37       -1.480170
   38       -1.434092
   39       -1.413736
   40       -0.905474
   41       -0.851619
   42       -0.851310
   43       -0.796728
   44       -0.510832
   45        1.205231
   46        1.689949
   47        1.723162
   48        1.724040
   49        1.757287
   50        2.000557
   51        2.029132
   52        2.029458
   53        2.058138
   54        2.100277
   55        2.102778
   56        2.149508
   57        2.150941
   58        2.880905
   59        2.881987
   60        2.886236
   61        2.887592
   62        3.152680
   63        3.512594
   64        3.526485
   65        7.024195
   66        7.024806
   67        7.264709
   68        7.270497
   69        7.275529
   70        7.280821
   71        7.581407
   72        8.042753
   73        8.054260
   74        8.093454
   75        8.097020
   76        8.974099
   77       10.578707
   78       12.517022
   79       12.828014
   80       12.829027
   81       13.148260
   82       13.156256
   83       13.191561
   84       13.486774
 
  0.1666667E+00  0.1666667E+00  0.0000000E+00  0.1388889E-01
    1      -13.883406
    2      -13.645071
    3      -13.644281
    4      -13.379677
    5      -10.965037
    6      -10.961925
    7      -10.765802
    8      -10.762368
    9      -10.762339
   10      -10.759462
   11      -10.545454
   12      -10.542269
   13       -8.578918
   14       -8.469878
   15       -8.468510
   16       -8.391733
   17       -7.481646
   18       -7.447918
   19       -7.444253
   20       -7.355636
   21       -5.359584
   22       -5.356030
   23       -5.232244
   24       -5.229135
   25       -5.229115
   26       -5.224936
   27       -5.094148
   28       -5.090394
   29       -2.904507
   30       -2.898715
   31       -2.818708
   32       -2.816672
   33       -2.725920
   34       -1.673748
   35       -1.671375
   36       -1.238057
   37       -1.234854
   38       -1.176919
   39       -1.172455
   40       -1.172439
   41       -1.170804
   42       -1.109461
   43       -1.106519
   44       -0.144747
   45        0.541281
   46        0.543404
   47        0.657331
   48        0.688847
   49        0.693477
   50        0.721257
   51        1.324861
   52        1.345031
   53        1.350254
   54        1.374376
   55        1.574718
   56        1.578058
   57        1.578206
   58        1.580648
   59        2.779154
   60        2.781716
   61        2.951049
   62        3.584644
   63        3.587205
   64        3.893582
   65        6.772846
   66        6.778422
   67        6.919083
   68        7.205292
   69        8.483128
   70        8.485651
   71        9.043960
   72        9.046221
   73        9.047010
   74        9.051206
   75        9.803570
   76        9.806410
   77       10.965545
   78       13.336880
   79       13.341437
   80       13.640790
   81       13.646287
   82       13.646326
   83       13.649961
   84       13.835063
 
  0.3333333E+00  0.1666667E+00  0.0000000E+00  0.1388889E-01
    1      -13.222555
    2      -12.992547
    3      -12.991789
    4      -12.737576
    5      -12.243975
    6      -12.026401
    7      -12.025684
    8      -11.786823
    9      -11.282547
   10      -11.077588
   11      -11.076850
   12      -10.853310
   13       -8.582345
   14       -8.425073
   15       -8.424518
   16       -8.260643
   17       -6.663859
   18       -6.558867
   19       -6.555759
   20       -6.443539
   21       -4.335598
   22       -4.256082
   23       -4.253899
   24       -4.184454
   25       -4.160189
   26       -4.090100
   27       -4.088178
   28       -3.992592
   29       -3.201285
   30       -3.102038
   31       -3.100176
   32       -2.996663
   33       -2.134949
   34       -2.102200
   35       -2.072053
   36       -2.070424
   37       -1.999620
   38       -1.090199
   39       -1.033424
   40       -1.029644
   41       -0.960394
   42       -0.935891
   43       -0.901971
   44       -0.900380
   45       -0.595728
   46       -0.540526
   47       -0.537464
   48       -0.480107
   49        0.196402
   50        0.201811
   51        0.203841
   52        0.307945
   53        0.347812
   54        0.352705
   55        0.395547
   56        0.571583
   57        1.271100
   58        1.272999
   59        1.592169
   60        2.558004
   61        3.213604
   62        3.991408
   63        3.993646
   64        4.638880
   65        6.338871
   66        6.633754
   67        6.637768
   68        7.158397
   69        9.298524
   70        9.758407
   71        9.760951
   72       10.248158
   73       10.783387
   74       11.250211
   75       11.252849
   76       11.739350
   77       11.828620
   78       12.867341
   79       13.086901
   80       13.338840
   81       13.343371
   82       13.715947
   83       13.791728
   84       13.927794
 
  0.5000000E+00  0.1666667E+00  0.0000000E+00  0.1388889E-01
    1      -13.223789
    2      -12.993789
    3      -12.993016
    4      -12.738803
    5      -12.242245
    6      -12.024663
    7      -12.023964
    8      -11.785095
    9      -11.283786
   10      -11.078841
   11      -11.078088
   12      -10.854566
   13       -8.580016
   14       -8.422330
   15       -8.421819
   16       -8.257307
   17       -6.657612
   18       -6.551552
   19       -6.550279
   20       -6.437338
   21       -4.344862
   22       -4.265261
   23       -4.264650
   24       -4.195466
   25       -4.170633
   26       -4.101128
   27       -4.097839
   28       -4.002148
   29       -3.204279
   30       -3.105417
   31       -3.102808
   32       -2.999696
   33       -2.122619
   34       -2.103345
   35       -2.059887
   36       -2.056613
   37       -1.986133
   38       -1.090170
   39       -1.032562
   40       -1.030749
   41       -0.960645
   42       -0.934398
   43       -0.903088
   44       -0.901561
   45       -0.593075
   46       -0.538227
   47       -0.534299
   48       -0.477372
   49        0.196033
   50        0.202918
   51        0.205155
   52        0.308423
   53        0.348864
   54        0.351439
   55        0.395068
   56        0.570477
   57        1.269918
   58        1.271893
   59        1.593537
   60        2.556352
   61        3.212746
   62        3.994194
   63        3.995242
   64        4.649898
   65        6.334859
   66        6.636257
   67        6.638539
   68        7.158130
   69        9.293420
   70        9.754231
   71        9.757504
   72       10.247631
   73       10.785637
   74       11.249652
   75       11.252647
   76       11.737692
   77       11.825710
   78       12.869322
   79       13.081999
   80       13.339430
   81       13.343622
   82       13.710917
   83       13.794342
   84       13.921510
 
 -0.3333333E+00  0.1666667E+00  0.0000000E+00  0.1388889E-01
    1      -13.884139
    2      -13.645812
    3      -13.645012
    4      -13.380409
    5      -10.967191
    6      -10.961228
    7      -10.766639
    8      -10.765905
    9      -10.760592
   10      -10.759932
   11      -10.547733
   12      -10.541695
   13       -8.570751
   14       -8.459255
   15       -8.458825
   16       -8.379160
   17       -7.480080
   18       -7.443172
   19       -7.442829
   20       -7.351339
   21       -5.370239
   22       -5.360592
   23       -5.242429
   24       -5.239981
   25       -5.232673
   26       -5.230778
   27       -5.104503
   28       -5.095252
   29       -2.920125
   30       -2.899444
   31       -2.833549
   32       -2.833150
   33       -2.741625
   34       -1.674454
   35       -1.672091
   36       -1.234926
   37       -1.216468
   38       -1.173300
   39       -1.170059
   40       -1.154561
   41       -1.151938
   42       -1.106585
   43       -1.088168
   44       -0.145417
   45        0.539885
   46        0.543899
   47        0.646953
   48        0.680962
   49        0.681272
   50        0.711418
   51        1.335873
   52        1.357527
   53        1.357713
   54        1.383886
   55        1.573637
   56        1.575690
   57        1.578399
   58        1.580516
   59        2.775665
   60        2.781318
   61        2.948271
   62        3.591156
   63        3.591589
   64        3.913780
   65        6.778575
   66        6.781688
   67        6.911500
   68        7.211750
   69        8.475798
   70        8.485972
   71        9.035720
   72        9.040179
   73        9.044844
   74        9.048714
   75        9.799340
   76        9.802629
   77       10.964506
   78       13.335577
   79       13.371625
   80       13.641326
   81       13.643725
   82       13.678057
   83       13.679742
   84       13.841838
 
 -0.1666667E+00  0.1666667E+00  0.0000000E+00  0.1388889E-01
    1      -14.216119
    2      -13.973624
    3      -13.972811
    4      -13.702928
    5      -10.344748
    6      -10.153843
    7      -10.153180
    8       -9.946877
    9       -9.449466
   10       -9.447280
   11       -9.279865
   12       -9.277174
   13       -9.277105
   14       -9.275410
   15       -9.099022
   16       -9.096830
   17       -7.313784
   18       -7.311900
   19       -7.178869
   20       -7.177796
   21       -7.177740
   22       -7.174928
   23       -7.026215
   24       -7.024234
   25       -6.484097
   26       -6.343554
   27       -6.341327
   28       -6.190343
   29       -3.301719
   30       -2.061748
   31       -2.059368
   32       -1.567359
   33       -1.564799
   34       -1.503547
   35       -1.499461
   36       -1.499441
   37       -1.498630
   38       -1.433825
   39       -1.431462
   40       -0.885733
   41       -0.832967
   42       -0.830490
   43       -0.776969
   44       -0.511070
   45        1.201611
   46        1.674028
   47        1.705927
   48        1.711460
   49        1.743157
   50        2.015448
   51        2.042155
   52        2.046544
   53        2.073348
   54        2.101803
   55        2.105509
   56        2.143930
   57        2.146067
   58        2.884392
   59        2.888440
   60        2.888707
   61        2.889660
   62        3.143308
   63        3.525972
   64        3.527929
   65        7.023659
   66        7.025925
   67        7.272353
   68        7.274688
   69        7.275194
   70        7.281213
   71        7.576694
   72        8.049072
   73        8.052161
   74        8.084180
   75        8.089128
   76        8.966693
   77       10.578338
   78       12.551120
   79       12.861871
   80       12.863041
   81       13.152865
   82       13.156697
   83       13.183108
   84       13.475359
 
  0.2710505E-19  0.3333333E+00  0.0000000E+00  0.1388889E-01
    1      -13.717977
    2      -13.481748
    3      -13.480955
    4      -13.218963
    5      -11.758203
    6      -11.546926
    7      -11.546196
    8      -11.314996
    9       -9.886618
   10       -9.882357
   11       -9.703289
   12       -9.701242
   13       -9.698033
   14       -9.696510
   15       -9.503099
   16       -9.498629
   17       -6.142571
   18       -6.130511
   19       -6.014831
   20       -6.011792
   21       -6.002187
   22       -5.999765
   23       -5.875529
   24       -5.863719
   25       -4.348325
   26       -4.229130
   27       -4.228656
   28       -4.102965
   29       -2.733004
   30       -2.715855
   31       -2.698820
   32       -2.651795
   33       -2.649197
   34       -2.634208
   35       -2.632180
   36       -2.562527
   37       -2.545237
   38       -1.481706
   39       -1.479347
   40       -0.430365
   41       -0.378706
   42       -0.378335
   43       -0.372259
   44       -0.325777
   45        0.021037
   46        0.035919
   47        0.082553
   48        0.082893
   49        0.144845
   50        0.729145
   51        0.731109
   52        1.195176
   53        1.235556
   54        1.235855
   55        1.276758
   56        1.765198
   57        1.768345
   58        2.055290
   59        2.690580
   60        2.692679
   61        2.695757
   62        2.697574
   63        3.684396
   64        3.691053
   65        7.396454
   66        7.402102
   67        7.842691
   68        7.847285
   69        7.851437
   70        7.855398
   71        8.468077
   72        8.473727
   73        9.665357
   74       10.230231
   75       10.233474
   76       10.988361
   77       11.155638
   78       12.769703
   79       13.073719
   80       13.074426
   81       13.215127
   82       13.575427
   83       13.576528
   84       13.579012
 
  0.1666667E+00  0.3333333E+00  0.0000000E+00  0.1388889E-01
    1      -13.222563
    2      -12.992556
    3      -12.991793
    4      -12.737581
    5      -12.244039
    6      -12.026490
    7      -12.025721
    8      -11.786887
    9      -11.282486
   10      -11.077500
   11      -11.076816
   12      -10.853248
   13       -8.582394
   14       -8.425108
   15       -8.424601
   16       -8.260714
   17       -6.663437
   18       -6.557986
   19       -6.555756
   20       -6.443063
   21       -4.336038
   22       -4.256088
   23       -4.254763
   24       -4.182964
   25       -4.160595
   26       -4.088210
   27       -4.087009
   28       -3.991055
   29       -3.202680
   30       -3.103102
   31       -3.101998
   32       -2.998158
   33       -2.136746
   34       -2.102162
   35       -2.074035
   36       -2.072037
   37       -2.001411
   38       -1.091229
   39       -1.033463
   40       -1.031701
   41       -0.961530
   42       -0.935640
   43       -0.902035
   44       -0.900455
   45       -0.593772
   46       -0.537482
   47       -0.536766
   48       -0.478311
   49        0.196148
   50        0.202028
   51        0.204077
   52        0.309351
   53        0.350218
   54        0.352706
   55        0.396639
   56        0.571642
   57        1.270702
   58        1.272621
   59        1.592525
   60        2.557471
   61        3.213130
   62        3.991366
   63        3.992686
   64        4.638558
   65        6.339308
   66        6.635165
   67        6.637827
   68        7.159190
   69        9.300002
   70        9.760221
   71        9.761603
   72       10.249150
   73       10.782096
   74       11.248963
   75       11.252007
   76       11.739352
   77       11.827690
   78       12.867514
   79       13.086487
   80       13.338801
   81       13.343138
   82       13.717348
   83       13.791545
   84       13.928758
 
  0.3333333E+00  0.3333333E+00  0.0000000E+00  0.1388889E-01
    1      -12.409457
    2      -12.406664
    3      -12.404010
    4      -12.191621
    5      -12.187550
    6      -12.187505
    7      -12.186480
    8      -12.184630
    9      -12.182328
   10      -11.947636
   11      -11.944842
   12      -11.942125
   13       -7.375251
   14       -7.210444
   15       -7.209986
   16       -7.202016
   17       -7.199008
   18       -7.192603
   19       -7.191362
   20       -7.029421
   21       -5.158217
   22       -5.157962
   23       -5.143773
   24       -5.141743
   25       -2.421191
   26       -2.417425
   27       -2.413702
   28       -2.369601
   29       -2.363437
   30       -2.363272
   31       -2.363230
   32       -2.362489
   33       -2.357124
   34       -2.315950
   35       -2.313472
   36       -2.310019
   37       -1.128362
   38       -1.125964
   39       -1.123785
   40       -1.046563
   41       -1.041444
   42       -1.038170
   43       -1.016588
   44       -1.010594
   45       -1.009186
   46       -1.008211
   47       -1.008192
   48       -1.001304
   49       -0.970193
   50       -0.965630
   51       -0.960637
   52        0.019436
   53        0.023445
   54        0.023749
   55        0.025031
   56        0.026254
   57        0.029405
   58        1.431775
   59        1.434342
   60        1.436571
   61        4.395272
   62        5.282728
   63        5.296192
   64        5.327372
   65        5.328028
   66        5.365252
   67        5.365644
   68        6.436278
   69       11.327662
   70       11.330535
   71       11.339592
   72       11.689860
   73       11.694959
   74       11.695394
   75       11.695787
   76       11.696656
   77       11.700045
   78       12.081370
   79       12.086373
   80       12.089629
   81       12.708845
   82       12.710097
   83       12.713679
   84       15.132383
 
  0.5000000E+00  0.3333333E+00  0.0000000E+00  0.1388889E-01
    1      -13.224534
    2      -12.994543
    3      -12.993750
    4      -12.739546
    5      -12.245976
    6      -12.028433
    7      -12.027655
    8      -11.788826
    9      -11.278572
   10      -11.073576
   11      -11.072911
   12      -10.849332
   13       -8.572844
   14       -8.415344
   15       -8.414683
   16       -8.250488
   17       -6.663830
   18       -6.558390
   19       -6.557670
   20       -6.445260
   21       -4.344731
   22       -4.265499
   23       -4.264290
   24       -4.187886
   25       -4.170632
   26       -4.094121
   27       -4.091320
   28       -3.996348
   29       -3.216603
   30       -3.117746
   31       -3.114529
   32       -3.011372
   33       -2.134483
   34       -2.104021
   35       -2.072613
   36       -2.068794
   37       -1.999060
   38       -1.103676
   39       -1.045091
   40       -1.042486
   41       -0.972463
   42       -0.937567
   43       -0.904476
   44       -0.902852
   45       -0.576003
   46       -0.520835
   47       -0.517556
   48       -0.460233
   49        0.199273
   50        0.200503
   51        0.202098
   52        0.322484
   53        0.363674
   54        0.366016
   55        0.410234
   56        0.569805
   57        1.273808
   58        1.275907
   59        1.590380
   60        2.560398
   61        3.216239
   62        3.996910
   63        3.998399
   64        4.649238
   65        6.345076
   66        6.635228
   67        6.637040
   68        7.147408
   69        9.305611
   70        9.759268
   71        9.761728
   72       10.241749
   73       10.773092
   74       11.241805
   75       11.245677
   76       11.736781
   77       11.825333
   78       12.865900
   79       13.075925
   80       13.337220
   81       13.341485
   82       13.746713
   83       13.793813
   84       13.957549
 
 -0.3333333E+00  0.3333333E+00  0.0000000E+00  0.1388889E-01
    1      -13.718954
    2      -13.482735
    3      -13.481928
    4      -13.219939
    5      -11.762119
    6      -11.550867
    7      -11.550103
    8      -11.318934
    9       -9.879089
   10       -9.877202
   11       -9.695497
   12       -9.693294
   13       -9.693207
   14       -9.691590
   15       -9.495422
   16       -9.493488
   17       -6.138200
   18       -6.136264
   19       -6.009640
   20       -6.008681
   21       -6.008622
   22       -6.005562
   23       -5.871985
   24       -5.869903
   25       -4.360380
   26       -4.242006
   27       -4.239507
   28       -4.114609
   29       -2.731273
   30       -2.729148
   31       -2.699779
   32       -2.650745
   33       -2.646823
   34       -2.646747
   35       -2.646560
   36       -2.560860
   37       -2.558846
   38       -1.482651
   39       -1.480300
   40       -0.411314
   41       -0.375563
   42       -0.360808
   43       -0.358089
   44       -0.306668
   45        0.005390
   46        0.034950
   47        0.065415
   48        0.069607
   49        0.130072
   50        0.725533
   51        0.727579
   52        1.211710
   53        1.250328
   54        1.254376
   55        1.293627
   56        1.769725
   57        1.772004
   58        2.051014
   59        2.695054
   60        2.699159
   61        2.699518
   62        2.700620
   63        3.691671
   64        3.694077
   65        7.403248
   66        7.405947
   67        7.847436
   68        7.849045
   69        7.849339
   70        7.854522
   71        8.463526
   72        8.466331
   73        9.655302
   74       10.221130
   75       10.225332
   76       10.983788
   77       11.154314
   78       12.799218
   79       13.104831
   80       13.106210
   81       13.235682
   82       13.590938
   83       13.593742
   84       13.599022
 
 -0.1666667E+00  0.3333333E+00  0.0000000E+00  0.1388889E-01
    1      -13.884150
    2      -13.645827
    3      -13.645019
    4      -13.380421
    5      -10.967576
    6      -10.960902
    7      -10.767793
    8      -10.766023
    9      -10.760227
   10      -10.759018
   11      -10.548070
   12      -10.541296
   13       -8.571573
   14       -8.460819
   15       -8.458871
   16       -8.379830
   17       -7.478636
   18       -7.442869
   19       -7.439601
   20       -7.349513
   21       -5.370525
   22       -5.361236
   23       -5.243314
   24       -5.239984
   25       -5.232679
   26       -5.231527
   27       -5.104675
   28       -5.095808
   29       -2.921319
   30       -2.899412
   31       -2.835823
   32       -2.833204
   33       -2.742766
   34       -1.674410
   35       -1.672055
   36       -1.233699
   37       -1.216620
   38       -1.171047
   39       -1.170054
   40       -1.154561
   41       -1.151911
   42       -1.105356
   43       -1.088153
   44       -0.145360
   45        0.539395
   46        0.544597
   47        0.644070
   48        0.676201
   49        0.681271