    4    4  200    1
  0.8905205E+01  0.2466437E-09  0.2466437E-09  0.6764386E-09  0.5000000E-15
  1.000000000000000E-004
  CAR 
 graphite                                
     16    215     12
 
  0.0000000E+00  0.0000000E+00  0.0000000E+00  0.8680556E-03
    1      -15.017848
    2      -14.736020
    3       -3.862390
    4       -1.976885
    5        1.594054
    6        1.610594
    7        1.611225
    8        1.627235
    9        8.843203
   10       12.934906
   11       12.945127
   12       12.983261
 
  0.8333333E-01  0.0000000E+00  0.0000000E+00  0.3472222E-02
    1      -14.852277
    2      -14.573288
    3       -3.661414
    4       -1.788658
    5        0.947672
    6        0.978712
    7        1.255051
    8        1.281085
    9        9.043838
   10       12.987113
   11       13.066398
   12       13.635844
 
  0.1666667E+00 -0.1387779E-16  0.0000000E+00  0.3472222E-02
    1      -14.357352
    2      -14.086841
    3       -3.062956
    4       -1.230472
    5       -0.706480
    6       -0.646749
    7        0.456239
    8        0.493556
    9        9.647224
   10       12.883286
   11       13.056030
   12       13.784885
 
  0.2500000E+00  0.0000000E+00  0.0000000E+00  0.3472222E-02
    1      -13.538988
    2      -13.282402
    3       -2.823467
    4       -2.731059
    5       -2.082660
    6       -0.427354
    7       -0.383002
    8       -0.326540
    9       10.646605
   10       11.565101
   11       12.167510
   12       12.550906
 
  0.3333333E+00  0.0000000E+00  0.0000000E+00  0.3472222E-02
    1      -12.409463
    2      -12.172084
    3       -5.045119
    4       -4.920334
    5       -1.162768
    6       -1.114426
    7       -0.760369
    8        0.856727
    9        9.134370
   10        9.991454
   11       11.940221
   12       12.222584
 
  0.4166667E+00  0.0000000E+00  0.0000000E+00  0.3472222E-02
    1      -10.999476
    2      -10.788149
    3       -7.160642
    4       -7.008635
    5       -1.636644
    6       -1.586259
    7        0.781783
    8        2.082327
    9        6.988251
   10        7.936250
   11       11.904523
   12       12.255880
 
  0.5000000E+00  0.0000000E+00  0.0000000E+00  0.1736111E-02
    1       -9.689871
    2       -9.584347
    3       -8.623988
    4       -8.544284
    5       -1.799337
    6       -1.748254
    7        1.865693
    8        2.527193
    9        6.117181
   10        6.773124
   11       11.814322
   12       12.186475
 
  0.8333333E-01  0.8333333E-01  0.0000000E+00  0.1736111E-02
    1      -14.521789
    2      -14.248465
    3       -3.261359
    4       -1.415059
    5       -0.086484
    6       -0.056840
    7        0.578882
    8        0.600838
    9        9.447499
   10       13.265598
   11       13.376161
   12       14.443252
 
  0.1666667E+00  0.8333333E-01  0.0000000E+00  0.3472222E-02
    1      -13.864909
    2      -13.602804
    3       -2.470875
    4       -1.816994
    5       -1.753529
    6       -0.681996
    7       -0.427446
    8       -0.386560
    9       10.254752
   10       12.492235
   11       12.914545
   12       13.351265
 
  0.2500000E+00  0.8333333E-01  0.0000000E+00  0.3472222E-02
    1      -12.890567
    2      -12.644980
    3       -3.912245
    4       -3.809535
    5       -1.320934
    6       -1.314773
    7       -1.266140
    8        0.371475
    9       10.232706
   10       10.890474
   11       11.450895
   12       13.056303
 
  0.3333333E+00  0.8333333E-01  0.0000000E+00  0.3472222E-02
    1      -11.617693
    2      -11.394108
    3       -6.053593
    4       -5.917596
    5       -1.959633
    6       -1.898512
    7        0.141570
    8        1.629851
    9        7.938106
   10        8.806160
   11       12.690781
   12       12.930339
 
  0.4166667E+00  0.8333333E-01  0.0000000E+00  0.3472222E-02
    1      -10.118627
    2       -9.933712
    3       -8.002282
    4       -7.852105
    5       -2.290175
    6       -2.226489
    7        1.645027
    8        2.605442
    9        6.300802
   10        7.047522
   11       12.544789
   12       12.933332
 
  0.5000000E+00  0.8333333E-01  0.0000000E+00  0.3472222E-02
    1      -10.121009
    2       -9.936003
    3       -7.999537
    4       -7.849210
    5       -2.291024
    6       -2.227316
    7        1.643529
    8        2.605016
    9        6.300708
   10        7.049461
   11       12.545779
   12       12.934328
 
 -0.4166667E+00  0.8333333E-01  0.0000000E+00  0.3472222E-02
    1      -11.619873
    2      -11.396258
    3       -6.050109
    4       -5.914051
    5       -1.962007
    6       -1.900830
    7        0.139682
    8        1.628304
    9        7.938502
   10        8.808618
   11       12.693176
   12       12.930127
 
 -0.3333333E+00  0.8333333E-01  0.0000000E+00  0.3472222E-02
    1      -12.892269
    2      -12.646672
    3       -3.908954
    4       -3.806170
    5       -1.324058
    6       -1.316413
    7       -1.269201
    8        0.369949
    9       10.231830
   10       10.892531
   11       11.448612
   12       13.060854
 
 -0.2500000E+00  0.8333333E-01  0.0000000E+00  0.3472222E-02
    1      -13.866120
    2      -13.604009
    3       -2.472108
    4       -1.816142
    5       -1.752652
    6       -0.683180
    7       -0.428508
    8       -0.387750
    9       10.253079
   10       12.489121
   11       12.915951
   12       13.357149
 
 -0.1666667E+00  0.8333333E-01  0.0000000E+00  0.3472222E-02
    1      -14.522515
    2      -14.249185
    3       -3.262119
    4       -1.415798
    5       -0.094586
    6       -0.064227
    7        0.586510
    8        0.608485
    9        9.446459
   10       13.272757
   11       13.384615
   12       14.342638
 
 -0.8333333E-01  0.8333333E-01  0.0000000E+00  0.1736111E-02
    1      -14.852520
    2      -14.573529
    3       -3.661674
    4       -1.788908
    5        0.934765
    6        0.966151
    7        1.268014
    8        1.293829
    9        9.043477
   10       12.991443
   11       13.071047
   12       13.642065
 
  0.1666667E+00  0.1666667E+00  0.0000000E+00  0.1736111E-02
    1      -13.052021
    2      -12.803714
    3       -3.145108
    4       -3.094975
    5       -1.785936
    6       -1.749320
    7       -1.501740
    8        0.206341
    9       10.759054
   10       11.209718
   11       11.264358
   12       14.523109
 
  0.2500000E+00  0.1666667E+00  0.0000000E+00  0.3472222E-02
    1      -11.932934
    2      -11.703744
    3       -4.897786
    4       -4.801039
    5       -2.858522
    6       -2.791671
    7       -0.193509
    8        1.375354
    9        8.746681
   10        9.337485
   11       12.650476
   12       14.643566
 
  0.3333333E+00  0.1666667E+00  0.0000000E+00  0.3472222E-02
    1      -10.542350
    2      -10.339405
    3       -6.829539
    4       -6.692318
    5       -3.445210
    6       -3.360797
    7        1.344184
    8        2.623027
    9        6.808388
   10        7.515602
   11       14.282465
   12       14.466782
 
  0.4166667E+00  0.1666667E+00  0.0000000E+00  0.3472222E-02
    1       -9.265471
    2       -9.164279
    3       -8.221665
    4       -8.151476
    5       -3.633714
    6       -3.545075
    7        2.463923
    8        3.111722
    9        6.032763
   10        6.332658
   11       14.290247
   12       14.807171
 
  0.5000000E+00  0.1666667E+00  0.0000000E+00  0.3472222E-02
    1      -10.547093
    2      -10.344126
    3       -6.823208
    4       -6.685766
    5       -3.447655
    6       -3.363149
    7        1.340517
    8        2.620457
    9        6.807672
   10        7.521108
   11       14.280197
   12       14.464922
 
 -0.4166667E+00  0.1666667E+00  0.0000000E+00  0.3472222E-02
    1      -11.936816
    2      -11.707616
    3       -4.892128
    4       -4.795103
    5       -2.861702
    6       -2.794725
    7       -0.197037
    8        1.372079
    9        8.744064
   10        9.342692
   11       12.645206
   12       14.649746
 
 -0.3333333E+00  0.1666667E+00  0.0000000E+00  0.3472222E-02
    1      -13.054930
    2      -12.806612
    3       -3.146670
    4       -3.095340
    5       -1.783670
    6       -1.746389
    7       -1.504598
    8        0.203559
    9       10.752713
   10       11.213294
   11       11.260455
   12       14.542944
 
 -0.2500000E+00  0.1666667E+00  0.0000000E+00  0.3472222E-02
    1      -13.866841
    2      -13.604727
    3       -2.472859
    4       -1.827178
    5       -1.763007
    6       -0.683952
    7       -0.416407
    8       -0.375300
    9       10.252143
   10       12.484551
   11       12.914456
   12       13.377029
 
 -0.1666667E+00  0.1666667E+00  0.0000000E+00  0.1736111E-02
    1      -14.358319
    2      -14.087800
    3       -3.063968
    4       -1.231478
    5       -0.720020
    6       -0.659988
    7        0.470923
    8        0.508109
    9        9.645895
   10       12.901812
   11       13.073934
   12       13.777504
 
  0.2500000E+00  0.2500000E+00  0.0000000E+00  0.1736111E-02
    1      -10.691680
    2      -10.484845
    3       -5.925113
    4       -5.855125
    5       -4.332490
    6       -4.280593
    7        1.225358
    8        2.604459
    9        7.139432
   10        7.705092
   11       14.180450
   12       16.457966
 
  0.3333333E+00  0.2500000E+00  0.0000000E+00  0.3472222E-02
    1       -9.249636
    2       -9.080786
    3       -7.367129
    4       -7.253955
    5       -5.061069
    6       -4.972445
    7        2.760136
    8        3.724545
    9        5.694079
   10        6.202894
   11       15.880876
   12       16.114705
 
  0.4166667E+00  0.2500000E+00  0.0000000E+00  0.3472222E-02
    1       -9.256865
    2       -9.087849
    3       -7.359663
    4       -7.245541
    5       -5.061991
    6       -4.973227
    7        2.755614
    8        3.722673
    9        5.689207
   10        6.212139
   11       15.869180
   12       16.260212
 
  0.5000000E+00  0.2500000E+00  0.0000000E+00  0.3472222E-02
    1      -10.698226
    2      -10.491411
    3       -5.921396
    4       -5.849756
    5       -4.331133
    6       -4.278138
    7        1.220068
    8        2.599209
    9        7.134807
   10        7.713410
   11       14.171388
   12       16.476518
 
 -0.4166667E+00  0.2500000E+00  0.0000000E+00  0.3472222E-02
    1      -11.938050
    2      -11.708847
    3       -4.902155
    4       -4.804477
    5       -2.849724
    6       -2.782327
    7       -0.198179
    8        1.370515
    9        8.739717
   10        9.341242
   11       12.643794
   12       14.680850
 
 -0.3333333E+00  0.2500000E+00  0.0000000E+00  0.3472222E-02
    1      -12.894198
    2      -12.648599
    3       -3.921699
    4       -3.818604
    5       -1.318339
    6       -1.307340
    7       -1.252491
    8        0.367782
    9       10.224324
   10       10.888773
   11       11.446376
   12       13.089543
 
 -0.2500000E+00  0.2500000E+00  0.0000000E+00  0.1736111E-02
    1      -13.541156
    2      -13.284562
    3       -2.836277
    4       -2.743614
    5       -2.084876
    6       -0.410980
    7       -0.366726
    8       -0.328826
    9       10.643893
   10       11.556609
   11       12.163611
   12       12.578390
 
  0.3333333E+00  0.3333333E+00  0.0000000E+00  0.1736111E-02
    1       -8.043613
    2       -7.954550
    3       -7.952504
    4       -7.865366
    5       -5.906581
    6       -5.905699
    7        4.002594
    8        4.582525
    9        4.591081
   10        5.288214
   11       15.710589
   12       15.733613
 
  0.4166667E+00  0.3333333E+00  0.0000000E+00  0.3472222E-02
    1       -9.259514
    2       -9.091050
    3       -7.365153
    4       -7.251126
    5       -5.053011
    6       -4.963767
    7        2.755128
    8        3.714979
    9        5.691402
   10        6.211927
   11       15.868306
   12       16.126829
 
  0.5000000E+00  0.3333333E+00  0.0000000E+00  0.3472222E-02
    1      -10.550269
    2      -10.347446
    3       -6.832977
    4       -6.695417
    5       -3.432594
    6       -3.348053
    7        1.338315
    8        2.614891
    9        6.804204
   10        7.517929
   11       14.288721
   12       14.491132
 
 -0.4166667E+00  0.3333333E+00  0.0000000E+00  0.3472222E-02
    1      -11.623569
    2      -11.400016
    3       -6.061153
    4       -5.924929
    5       -1.944000
    6       -1.882901
    7        0.136411
    8        1.623542
    9        7.931681
   10        8.802863
   11       12.719051
   12       12.948593
 
 -0.3333333E+00  0.3333333E+00  0.0000000E+00  0.1736111E-02
    1      -12.413348
    2      -12.175970
    3       -5.056104
    4       -4.931105
    5       -1.145070
    6       -1.096820
    7       -0.764084
    8        0.852433
    9        9.126086
   10        9.985714
   11       11.943430
   12       12.251424
 
  0.4166667E+00  0.4166667E+00  0.0000000E+00  0.1736111E-02
    1       -9.275157
    2       -9.176269
    3       -8.222491
    4       -8.153831
    5       -3.619099
    6       -3.530458
    7        2.463214
    8        3.095863
    9        6.037651
   10        6.327626
   11       14.327345
   12       14.845079
 
  0.5000000E+00  0.4166667E+00  0.0000000E+00  0.3472222E-02
    1      -10.127781
    2       -9.943404
    3       -8.006451
    4       -7.856483
    5       -2.273049
    6       -2.209421
    7        1.640532
    8        2.593163
    9        6.300717
   10        7.041322
   11       12.580413
   12       12.969072
 
 -0.4166667E+00  0.4166667E+00  0.0000000E+00  0.1736111E-02
    1      -11.005762
    2      -10.794580
    3       -7.168798
    4       -7.016730
    5       -1.618118
    6       -1.567824
    7        0.777004
    8        2.074095
    9        6.983780
   10        7.928990
   11       11.937977
   12       12.289167
 
  0.5000000E+00  0.5000000E+00  0.0000000E+00  0.8680556E-03
    1       -9.700300
    2       -9.597174
    3       -8.625892
    4       -8.547868
    5       -1.780535
    6       -1.729537
    7        1.864398
    8        2.510401
    9        6.121091
   10        6.761746
   11       11.848646
   12       12.220833
 
  0.0000000E+00  0.0000000E+00  0.1250000E+00  0.1736111E-02
    1      -15.007746
    2      -14.747427
    3       -3.801755
    4       -2.065103
    5        1.594734
    6        1.610629
    7        1.611257
    8        1.626657
    9        9.030566
   10       12.940277
   11       12.942701
   12       12.984401
 
  0.8333333E-01  0.0000000E+00  0.1250000E+00  0.6944444E-02
    1      -14.842266
    2      -14.584576
    3       -3.601174
    4       -1.876185
    5        0.948841
    6        0.977505
    7        1.256033
    8        1.280075
    9        9.229719
   10       12.987824
   11       13.063721
   12       13.669256
 
  0.1666667E+00 -0.1387779E-16  0.1250000E+00  0.6944444E-02
    1      -14.347624
    2      -14.097768
    3       -3.003853
    4       -1.315787
    5       -0.704142
    6       -0.649041
    7        0.457692
    8        0.492133
    9        9.828142
   10       12.884520
   11       13.048852
   12       13.799807
 
  0.2500000E+00  0.0000000E+00  0.1250000E+00  0.6944444E-02
    1      -13.529732
    2      -13.292717
    3       -2.820045
    4       -2.734667
    5       -2.025623
    6       -0.425648
    7       -0.407419
    8       -0.384695
    9       10.808285
   10       11.595858
   11       12.135798
   12       12.560166
 
  0.3333333E+00  0.0000000E+00  0.1250000E+00  0.6944444E-02
    1      -12.400867
    2      -12.181576
    3       -5.040506
    4       -4.925239
    5       -1.160967
    6       -1.116291
    7       -0.707042
    8        0.783849
    9        9.156897
   10        9.950889
   11       12.047364
   12       12.253243
 
  0.4166667E+00  0.0000000E+00  0.1250000E+00  0.6944444E-02
    1      -10.991763
    2      -10.796557
    3       -7.155065
    4       -7.014622
    5       -1.634785
    6       -1.588207
    7        0.827637
    8        2.029233
    9        7.008690
   10        7.886560
   11       11.918053
   12       12.242739
 
  0.5000000E+00  0.0000000E+00  0.1250000E+00  0.3472222E-02
    1       -9.685273
    2       -9.587611
    3       -8.622293
    4       -8.548476
    5       -1.797354
    6       -1.750231
    7        1.897464
    8        2.512444
    9        6.113384
   10        6.723003
   11       11.827944
   12       12.171866
 
  0.8333333E-01  0.8333333E-01  0.1250000E+00  0.3472222E-02
    1      -14.511969
    2      -14.259510
    3       -3.201876
    4       -1.501085
    5       -0.085258
    6       -0.057897
    7        0.579649
    8        0.599926
    9        9.630346
   10       13.263382
   11       13.372222
   12       14.351007
 
  0.1666667E+00  0.8333333E-01  0.1250000E+00  0.6944444E-02
    1      -13.855469
    2      -13.613350
    3       -2.413053
    4       -1.814619
    5       -1.755917
    6       -0.764800
    7       -0.425973
    8       -0.388194
    9       10.430120
   10       12.506027
   11       12.891844
   12       13.358148
 
  0.2500000E+00  0.8333333E-01  0.1250000E+00  0.6944444E-02
    1      -12.881686
    2      -12.654833
    3       -3.908409
    4       -3.813515
    5       -1.318903
    6       -1.268364
    7       -1.259551
    8        0.294556
    9       10.249284
   10       10.861239
   11       11.621337
   12       13.066277
 
  0.3333333E+00  0.8333333E-01  0.1250000E+00  0.6944444E-02
    1      -11.609566
    2      -11.403038
    3       -6.048574
    4       -5.922943
    5       -1.957348
    6       -1.900884
    7        0.191629
    8        1.564720
    9        7.961993
   10        8.765614
   11       12.716519
   12       12.966223
 
  0.4166667E+00  0.8333333E-01  0.1250000E+00  0.6944444E-02
    1      -10.111800
    2       -9.940936
    3       -7.996922
    4       -7.858166
    5       -2.287786
    6       -2.228984
    7        1.683480
    8        2.573778
    9        6.307540
   10        7.001578
   11       12.558811
   12       12.917734
 
  0.5000000E+00  0.8333333E-01  0.1250000E+00  0.6944444E-02
    1      -10.114180
    2       -9.943231
    3       -7.994170
    4       -7.855276
    5       -2.288634
    6       -2.229810
    7        1.682004
    8        2.573284
    9        6.307553
   10        7.003456
   11       12.559794
   12       12.918718
 
 -0.4166667E+00  0.8333333E-01  0.1250000E+00  0.6944444E-02
    1      -11.611740
    2      -11.405203
    3       -6.045092
    4       -5.919392
    5       -1.959725
    6       -1.903202
    7        0.189750
    8        1.563150
    9        7.962503
   10        8.767995
   11       12.719167
   12       12.966938
 
 -0.3333333E+00  0.8333333E-01  0.1250000E+00  0.6944444E-02
    1      -12.883386
    2      -12.656525
    3       -3.905115
    4       -3.810152
    5       -1.322030
    6       -1.271388
    7       -1.261222
    8        0.293024
    9       10.248573
   10       10.863189
   11       11.618967
   12       13.070803
 
 -0.2500000E+00  0.8333333E-01  0.1250000E+00  0.6944444E-02
    1      -13.856680
    2      -13.614555
    3       -2.414284
    4       -1.813767
    5       -1.755040
    6       -0.765986
    7       -0.427043
    8       -0.389381
    9       10.428463
   10       12.503094
   11       12.893175
   12       13.363966
 
 -0.1666667E+00  0.8333333E-01  0.1250000E+00  0.6944444E-02
    1      -14.512694
    2      -14.260230
    3       -3.202635
    4       -1.501824
    5       -0.093334
    6       -0.065315
    7        0.587280
    8        0.607573
    9        9.629308
   10       13.270514
   11       13.380637
   12       14.360399
 
 -0.8333333E-01  0.8333333E-01  0.1250000E+00  0.3472222E-02
    1      -14.842510
    2      -14.584816
    3       -3.601429
    4       -1.876434
    5        0.935956
    6        0.964936
    7        1.268991
    8        1.292823
    9        9.229358
   10       12.992182
   11       13.068369
   12       13.639476
 
  0.1666667E+00  0.1666667E+00  0.1250000E+00  0.3472222E-02
    1      -13.043043
    2      -12.813686
    3       -3.143099
    4       -3.096790
    5       -1.784752
    6       -1.750887
    7       -1.446076
    8        0.128122
    9       10.775705
   10       11.187004
   11       11.435017
   12       14.524439
 
  0.2500000E+00  0.1666667E+00  0.1250000E+00  0.6944444E-02
    1      -11.924616
    2      -11.712904
    3       -4.894152
    4       -4.804745
    5       -2.856144
    6       -2.794377
    7       -0.141558
    8        1.305074
    9        8.767537
   10        9.313714
   11       12.796445
   12       14.653072
 
  0.3333333E+00  0.1666667E+00  0.1250000E+00  0.6944444E-02
    1      -10.534935
    2      -10.347455
    3       -6.824491
    4       -6.697735
    5       -3.442108
    6       -3.364114
    7        1.389097
    8        2.570450
    9        6.827569
   10        7.483084
   11       14.343223
   12       14.502945
 
  0.4166667E+00  0.1666667E+00  0.1250000E+00  0.6944444E-02
    1       -9.261060
    2       -9.167437
    3       -8.220182
    4       -8.155185
    5       -3.630442
    6       -3.548550
    7        2.495682
    8        3.098483
    9        6.021004
   10        6.304484
   11       14.304605
   12       14.780460
 
  0.5000000E+00  0.1666667E+00  0.1250000E+00  0.6944444E-02
    1      -10.539673
    2      -10.352173
    3       -6.818148
    4       -6.691188
    5       -3.444546
    6       -3.366468
    7        1.385452
    8        2.567805
    9        6.827134
   10        7.488348
   11       14.342811
   12       14.499306
 
 -0.4166667E+00  0.1666667E+00  0.1250000E+00  0.6944444E-02
    1      -11.928497
    2      -11.716777
    3       -4.888483
    4       -4.798820
    5       -2.859320
    6       -2.797436
    7       -0.145080
    8        1.301782
    9        8.765213
   10        9.318584
   11       12.791085
   12       14.659094
 
 -0.3333333E+00  0.1666667E+00  0.1250000E+00  0.6944444E-02
    1      -13.045950
    2      -12.816582
    3       -3.144626
    4       -3.097207
    5       -1.782430
    6       -1.747974
    7       -1.448932
    8        0.125335
    9       10.769705
   10       11.190097
   11       11.431193
   12       14.543957
 
 -0.2500000E+00  0.1666667E+00  0.1250000E+00  0.6944444E-02
    1      -13.857401
    2      -13.615273
    3       -2.415035
    4       -1.824775
    5       -1.765426
    6       -0.766758
    7       -0.414925
    8       -0.376942
    9       10.427496
   10       12.498803
   11       12.891628
   12       13.383333
 
 -0.1666667E+00  0.1666667E+00  0.1250000E+00  0.3472222E-02
    1      -14.348585
    2      -14.098725
    3       -3.004864
    4       -1.316785
    5       -0.717666
    6       -0.662267
    7        0.472400
    8        0.506708
    9        9.826815
   10       12.902948
   11       13.066756
   12       13.793530
 
  0.2500000E+00  0.2500000E+00  0.1250000E+00  0.3472222E-02
    1      -10.684141
    2      -10.493062
    3       -5.922325
    4       -5.857644
    5       -4.330951
    6       -4.282970
    7        1.272271
    8        2.544870
    9        7.161106
   10        7.682860
   11       14.268047
   12       16.153053
 
  0.3333333E+00  0.2500000E+00  0.1250000E+00  0.6944444E-02
    1       -9.243374
    2       -9.087361
    3       -7.362972
    4       -7.258405
    5       -5.057975
    6       -4.976098
    7        2.798089
    8        3.692097
    9        5.705948
   10        6.176316
   11       15.627410
   12       15.866837
 
  0.4166667E+00  0.2500000E+00  0.1250000E+00  0.6944444E-02
    1       -9.250599
    2       -9.094433
    3       -7.355467
    4       -7.250026
    5       -5.058892
    6       -4.976885
    7        2.793589
    8        3.689987
    9        5.701695
   10        6.185103
   11       15.614819
   12       15.876280
 
  0.5000000E+00  0.2500000E+00  0.1250000E+00  0.6944444E-02
    1      -10.690687
    2      -10.499625
    3       -5.918550
    4       -5.852350
    5       -4.329544
    6       -4.280586
    7        1.266981
    8        2.539614
    9        7.156890
   10        7.690624
   11       14.258884
   12       16.163978
 
 -0.4166667E+00  0.2500000E+00  0.1250000E+00  0.6944444E-02
    1      -11.929720
    2      -11.718008
    3       -4.898486
    4       -4.808221
    5       -2.847322
    6       -2.785047
    7       -0.146231
    8        1.300248
    9        8.760852
   10        9.316956
   11       12.789886
   12       14.690020
 
 -0.3333333E+00  0.2500000E+00  0.1250000E+00  0.6944444E-02
    1      -12.885315
    2      -12.658452
    3       -3.917849
    4       -3.822598
    5       -1.305319
    6       -1.263273
    7       -1.254549
    8        0.290874
    9       10.240980
   10       10.859197
   11       11.617127
   12       13.099421
 
 -0.2500000E+00  0.2500000E+00  0.1250000E+00  0.3472222E-02
    1      -13.531901
    2      -13.294878
    3       -2.832860
    4       -2.747229
    5       -2.027843
    6       -0.409699
    7       -0.409276
    8       -0.368417
    9       10.805290
   10       11.588025
   11       12.131850
   12       12.587495
 
  0.3333333E+00  0.3333333E+00  0.1250000E+00  0.3472222E-02
    1       -8.037132
    2       -7.954265
    3       -7.952262
    4       -7.872374
    5       -5.907241
    6       -5.906426
    7        4.045815
    8        4.587180
    9        4.595106
   10        5.231950
   11       15.493837
   12       15.513106
 
  0.4166667E+00  0.3333333E+00  0.1250000E+00  0.6944444E-02
    1       -9.253262
    2       -9.097602
    3       -7.360972
    4       -7.255616
    5       -5.049925
    6       -4.967443
    7        2.792972
    8        3.682795
    9        5.703504
   10        6.184772
   11       15.614086
   12       15.884955
 
  0.5000000E+00  0.3333333E+00  0.1250000E+00  0.6944444E-02
    1      -10.542858
    2      -10.355490
    3       -6.827918
    4       -6.700850
    5       -3.429486
    6       -3.351374
    7        1.383183
    8        2.562467
    9        6.823447
   10        7.484981
   11       14.359468
   12       14.519582
 
 -0.4166667E+00  0.3333333E+00  0.1250000E+00  0.6944444E-02
    1      -11.615442
    2      -11.408942
    3       -6.056128
    4       -5.930288
    5       -1.941714
    6       -1.885268
    7        0.186449
    8        1.558489
    9        7.955522
   10        8.762062
   11       12.747972
   12       12.989925
 
 -0.3333333E+00  0.3333333E+00  0.1250000E+00  0.3472222E-02
    1      -12.404744
    2      -12.185468
    3       -5.051463
    4       -4.936009
    5       -1.143274
    6       -1.098677
    7       -0.710768
    8        0.779601
    9        9.148544
   10        9.944962
   11       12.057348
   12       12.279472
 
  0.4166667E+00  0.4166667E+00  0.1250000E+00  0.3472222E-02
    1       -9.270825
    2       -9.179342
    3       -8.221074
    4       -8.157496
    5       -3.615827
    6       -3.533933
    7        2.494620
    8        3.083379
    9        6.025210
   10        6.299469
   11       14.341703
   12       14.817991
 
  0.5000000E+00  0.4166667E+00  0.1250000E+00  0.6944444E-02
    1      -10.120972
    2       -9.950604
    3       -8.001103
    4       -7.862541
    5       -2.270661
    6       -2.211913
    7        1.678821
    8        2.561964
    9        6.306935
   10        6.995358
   11       12.594445
   12       12.953439
 
 -0.4166667E+00  0.4166667E+00  0.1250000E+00  0.3472222E-02
    1      -10.998054
    2      -10.802991
    3       -7.163223
    4       -7.022722
    5       -1.616268
    6       -1.569768
    7        0.822791
    8        2.021236
    9        7.003887
   10        7.879243
   11       11.951542
   12       12.276062
 
  0.5000000E+00  0.5000000E+00  0.1250000E+00  0.1736111E-02
    1       -9.695781
    2       -9.600341
    3       -8.624280
    4       -8.552007
    5       -1.778555
    6       -1.731512
    7        1.895801
    8        2.496434
    9        6.116414
   10        6.711882
   11       11.862269
   12       12.206203
 
  0.0000000E+00  0.0000000E+00  0.2500000E+00  0.1736111E-02
    1      -14.978717
    2      -14.779597
    3       -3.625805
    4       -2.306076
    5        1.596614
    6        1.608798
    7        1.613079
    8        1.624885
    9        9.567198
   10       12.942669
   11       12.953894
   12       12.978213
 
  0.8333333E-01  0.0000000E+00  0.2500000E+00  0.6944444E-02
    1      -14.813525
    2      -14.616395
    3       -3.426297
    4       -2.115307
    5        0.952188
    6        0.974090
    7        1.258878
    8        1.277270
    9        9.762019
   10       12.984653
   11       13.056313
   12       13.641654
 
  0.1666667E+00 -0.1387779E-16  0.2500000E+00  0.6944444E-02
    1      -14.319703
    2      -14.128564
    3       -2.832329
    4       -1.549053
    5       -0.697685
    6       -0.655506
    7        0.461757
    8        0.488093
    9       10.345650
   10       12.884101
   11       13.029861
   12       13.838176
 
  0.2500000E+00  0.0000000E+00  0.2500000E+00  0.6944444E-02
    1      -13.503166
    2      -13.321854
    3       -2.810241
    4       -2.744892
    5       -1.860193
    6       -0.629343
    7       -0.420872
    8       -0.389522
    9       11.237233
   10       11.713704
   11       12.049700
   12       12.584327
 
  0.3333333E+00  0.0000000E+00  0.2500000E+00  0.6944444E-02
    1      -12.376206
    2      -12.208412
    3       -5.027297
    4       -4.939110
    5       -1.155757
    6       -1.121546
    7       -0.552498
    8        0.583036
    9        9.227813
   10        9.839007
   11       12.184995
   12       12.342218
 