mesh: [     9,     9,     4 ]
nqpoint: 50     
reciprocal_lattice:
- [   0.40553429,   0.23434576,   0.00000000 ] # a*
- [   0.00018224,   0.46837588,   0.00000000 ] # b*
- [   0.00000000,   0.00000000,   0.14783308 ] # c*
natom:   4      
lattice:
- [     2.466437248995937,    -0.000959642981403,     0.000000000000000 ] # a
- [    -1.234049699648306,     2.135517492938035,     0.000000000000000 ] # b
- [     0.000000000000000,     0.000000000000000,     6.764385742708610 ] # c
points:
- symbol: C  # 1
  coordinates: [  0.999346608899160,  0.000653437440448,  0.250000000000000 ]
  mass: 12.010700
- symbol: C  # 2
  coordinates: [  0.000653437440448,  0.999346608899160,  0.750000000000000 ]
  mass: 12.010700
- symbol: C  # 3
  coordinates: [  0.332584924946424,  0.667415057713967,  0.250000000000000 ]
  mass: 12.010700
- symbol: C  # 4
  coordinates: [  0.667415057713967,  0.332584924946424,  0.750000000000000 ]
  mass: 12.010700
phonon:
- q-position: [    0.0000000,    0.0000000,    0.1250000 ]
  weight: 2    
  band:
  - # 1
    frequency:    -2.3870256214
  - # 2
    frequency:    -0.8844423069
  - # 3
    frequency:    -0.7885186346
  - # 4
    frequency:     0.7014077363
  - # 5
    frequency:     0.7326870974
  - # 6
    frequency:     2.0515059879
  - # 7
    frequency:    23.1071195866
  - # 8
    frequency:    26.2104329983
  - # 9
    frequency:    42.2597422834
  - # 10
    frequency:    42.5126353512
  - # 11
    frequency:    42.8815882878
  - # 12
    frequency:    42.9293810736

- q-position: [    0.1111111,    0.0000000,    0.1250000 ]
  weight: 8    
  band:
  - # 1
    frequency:     3.6251718565
  - # 2
    frequency:     5.0625362335
  - # 3
    frequency:     5.9807680951
  - # 4
    frequency:     6.1088229288
  - # 5
    frequency:    11.3303435809
  - # 6
    frequency:    11.4924899485
  - # 7
    frequency:    22.7566059356
  - # 8
    frequency:    25.6147598966
  - # 9
    frequency:    42.2937701321
  - # 10
    frequency:    42.8303309932
  - # 11
    frequency:    42.9005685578
  - # 12
    frequency:    43.3062150297

- q-position: [    0.2222222,    0.0000000,    0.1250000 ]
  weight: 8    
  band:
  - # 1
    frequency:     7.4195863961
  - # 2
    frequency:     8.7578302684
  - # 3
    frequency:    11.5956466870
  - # 4
    frequency:    11.6980964365
  - # 5
    frequency:    21.7796811222
  - # 6
    frequency:    22.0698531396
  - # 7
    frequency:    22.1711681531
  - # 8
    frequency:    23.9567437411
  - # 9
    frequency:    42.2304251358
  - # 10
    frequency:    42.6200328889
  - # 11
    frequency:    43.7009022516
  - # 12
    frequency:    44.0077366173

- q-position: [    0.3333333,    0.0000000,    0.1250000 ]
  weight: 8    
  band:
  - # 1
    frequency:    10.8566225960
  - # 2
    frequency:    11.9198568659
  - # 3
    frequency:    16.0023481656
  - # 4
    frequency:    16.0596580337
  - # 5
    frequency:    20.3902694753
  - # 6
    frequency:    21.6131628556
  - # 7
    frequency:    31.1099430889
  - # 8
    frequency:    31.1903219820
  - # 9
    frequency:    42.0523616306
  - # 10
    frequency:    42.2674256040
  - # 11
    frequency:    43.7866915699
  - # 12
    frequency:    43.9707641625

- q-position: [    0.4444444,    0.0000000,    0.1250000 ]
  weight: 8    
  band:
  - # 1
    frequency:    13.5611500614
  - # 2
    frequency:    14.0601478345
  - # 3
    frequency:    18.4988876445
  - # 4
    frequency:    18.5114857700
  - # 5
    frequency:    19.0421255707
  - # 6
    frequency:    19.3485806670
  - # 7
    frequency:    37.8735956059
  - # 8
    frequency:    37.9333844532
  - # 9
    frequency:    41.8767887394
  - # 10
    frequency:    41.9414285652
  - # 11
    frequency:    42.0804346264
  - # 12
    frequency:    42.1700281622

- q-position: [    0.1111111,    0.1111111,    0.1250000 ]
  weight: 4    
  band:
  - # 1
    frequency:     7.1623452048
  - # 2
    frequency:     7.5411677911
  - # 3
    frequency:    10.5275470714
  - # 4
    frequency:    10.7212215226
  - # 5
    frequency:    18.8905628281
  - # 6
    frequency:    19.0316706759
  - # 7
    frequency:    22.0641174275
  - # 8
    frequency:    24.3884167751
  - # 9
    frequency:    42.3709030202
  - # 10
    frequency:    42.8467404659
  - # 11
    frequency:    43.5089325561
  - # 12
    frequency:    43.7971704527

- q-position: [    0.2222222,    0.1111111,    0.1250000 ]
  weight: 8    
  band:
  - # 1
    frequency:    10.3061804489
  - # 2
    frequency:    10.8148788652
  - # 3
    frequency:    15.7948263874
  - # 4
    frequency:    15.9624537990
  - # 5
    frequency:    20.8387518492
  - # 6
    frequency:    22.3017126603
  - # 7
    frequency:    27.2311757420
  - # 8
    frequency:    27.3270998265
  - # 9
    frequency:    42.4780238496
  - # 10
    frequency:    42.7827944851
  - # 11
    frequency:    43.8004469703
  - # 12
    frequency:    43.9925729479

- q-position: [    0.3333333,    0.1111111,    0.1250000 ]
  weight: 8    
  band:
  - # 1
    frequency:    13.1239011750
  - # 2
    frequency:    13.4627446616
  - # 3
    frequency:    19.3720842161
  - # 4
    frequency:    19.6407527917
  - # 5
    frequency:    19.7652266275
  - # 6
    frequency:    19.8846402714
  - # 7
    frequency:    34.3662409263
  - # 8
    frequency:    34.4308345453
  - # 9
    frequency:    42.2253186178
  - # 10
    frequency:    42.3293864181
  - # 11
    frequency:    43.0836892140
  - # 12
    frequency:    43.2290867062

- q-position: [   -0.5555556,    0.1111111,    0.1250000 ]
  weight: 8    
  band:
  - # 1
    frequency:    14.2673751467
  - # 2
    frequency:    14.7774399795
  - # 3
    frequency:    18.5455549052
  - # 4
    frequency:    18.6099574569
  - # 5
    frequency:    21.1623845203
  - # 6
    frequency:    21.2820928042
  - # 7
    frequency:    39.4334151128
  - # 8
    frequency:    39.4590845672
  - # 9
    frequency:    39.7670694563
  - # 10
    frequency:    39.8270338832
  - # 11
    frequency:    42.6531549659
  - # 12
    frequency:    42.6860564886

- q-position: [   -0.4444444,    0.1111111,    0.1250000 ]
  weight: 8    
  band:
  - # 1
    frequency:    12.2398548130
  - # 2
    frequency:    13.4531425763
  - # 3
    frequency:    19.5284637941
  - # 4
    frequency:    19.9721637276
  - # 5
    frequency:    20.1102871944
  - # 6
    frequency:    20.3065981617
  - # 7
    frequency:    34.5689941804
  - # 8
    frequency:    34.6536776862
  - # 9
    frequency:    42.0221306573
  - # 10
    frequency:    42.1394642673
  - # 11
    frequency:    42.9579760095
  - # 12
    frequency:    43.0693702828

- q-position: [   -0.3333333,    0.1111111,    0.1250000 ]
  weight: 8    
  band:
  - # 1
    frequency:     9.1086838558
  - # 2
    frequency:    10.8448895852
  - # 3
    frequency:    16.3143760374
  - # 4
    frequency:    16.4845549429
  - # 5
    frequency:    20.9571064944
  - # 6
    frequency:    22.7062159254
  - # 7
    frequency:    27.4713962650
  - # 8
    frequency:    27.5767305332
  - # 9
    frequency:    42.3219578817
  - # 10
    frequency:    42.5743326689
  - # 11
    frequency:    43.5890134848
  - # 12
    frequency:    43.8415618560

- q-position: [   -0.2222222,    0.1111111,    0.1250000 ]
  weight: 8    
  band:
  - # 1
    frequency:     5.5441461744
  - # 2
    frequency:     7.8422151089
  - # 3
    frequency:    10.9495167168
  - # 4
    frequency:    11.1778814112
  - # 5
    frequency:    19.2232286681
  - # 6
    frequency:    19.3518932983
  - # 7
    frequency:    22.1287482192
  - # 8
    frequency:    24.6649271791
  - # 9
    frequency:    42.3665163560
  - # 10
    frequency:    42.7333301530
  - # 11
    frequency:    43.2402788385
  - # 12
    frequency:    43.6522191439

- q-position: [   -0.1111111,    0.1111111,    0.1250000 ]
  weight: 4    
  band:
  - # 1
    frequency:     2.2639819292
  - # 2
    frequency:     5.2829777007
  - # 3
    frequency:     5.7753317449
  - # 4
    frequency:     6.2159538173
  - # 5
    frequency:    11.6971319945
  - # 6
    frequency:    11.8565265670
  - # 7
    frequency:    22.7765887931
  - # 8
    frequency:    25.7125474318
  - # 9
    frequency:    42.4582057735
  - # 10
    frequency:    42.6369528163
  - # 11
    frequency:    42.8473854599
  - # 12
    frequency:    43.1963960103

- q-position: [    0.2222222,    0.2222222,    0.1250000 ]
  weight: 4    
  band:
  - # 1
    frequency:    13.0045998049
  - # 2
    frequency:    13.2083883893
  - # 3
    frequency:    19.4867137082
  - # 4
    frequency:    20.0761869807
  - # 5
    frequency:    21.5472855597
  - # 6
    frequency:    21.7373041951
  - # 7
    frequency:    31.9631622863
  - # 8
    frequency:    32.0442481161
  - # 9
    frequency:    42.7369138306
  - # 10
    frequency:    42.8124012982
  - # 11
    frequency:    43.0831553037
  - # 12
    frequency:    43.2645471234

- q-position: [    0.3333333,    0.2222222,    0.1250000 ]
  weight: 8    
  band:
  - # 1
    frequency:    15.0053244793
  - # 2
    frequency:    15.2625897546
  - # 3
    frequency:    17.9488378938
  - # 4
    frequency:    18.1046437205
  - # 5
    frequency:    25.4932410456
  - # 6
    frequency:    25.6460567488
  - # 7
    frequency:    36.1457198804
  - # 8
    frequency:    36.1874531027
  - # 9
    frequency:    40.1872727858
  - # 10
    frequency:    40.2016099233
  - # 11
    frequency:    43.5461188094
  - # 12
    frequency:    43.6158416729

- q-position: [   -0.5555556,    0.2222222,    0.1250000 ]
  weight: 8    
  band:
  - # 1
    frequency:    14.1717514266
  - # 2
    frequency:    15.1241562025
  - # 3
    frequency:    18.3181211201
  - # 4
    frequency:    18.5276849426
  - # 5
    frequency:    25.7629627421
  - # 6
    frequency:    25.9014775450
  - # 7
    frequency:    36.3358609978
  - # 8
    frequency:    36.4047528992
  - # 9
    frequency:    39.9085028646
  - # 10
    frequency:    39.9404720791
  - # 11
    frequency:    43.4782274648
  - # 12
    frequency:    43.5138733426

- q-position: [   -0.4444444,    0.2222222,    0.1250000 ]
  weight: 8    
  band:
  - # 1
    frequency:    11.6774092214
  - # 2
    frequency:    13.0840135540
  - # 3
    frequency:    19.6923045981
  - # 4
    frequency:    20.7832362939
  - # 5
    frequency:    22.1145254694
  - # 6
    frequency:    22.2498739219
  - # 7
    frequency:    32.2335746264
  - # 8
    frequency:    32.3589225966
  - # 9
    frequency:    42.3724672818
  - # 10
    frequency:    42.5170422822
  - # 11
    frequency:    42.9253399665
  - # 12
    frequency:    43.0450158975

- q-position: [   -0.3333333,    0.2222222,    0.1250000 ]
  weight: 8    
  band:
  - # 1
    frequency:     8.8672843637
  - # 2
    frequency:    10.7376209114
  - # 3
    frequency:    16.2488079549
  - # 4
    frequency:    16.4046807871
  - # 5
    frequency:    20.9517661022
  - # 6
    frequency:    22.8678391135
  - # 7
    frequency:    27.6457660748
  - # 8
    frequency:    27.8026132395
  - # 9
    frequency:    42.3983838703
  - # 10
    frequency:    42.6307234539
  - # 11
    frequency:    43.3992441185
  - # 12
    frequency:    43.6798521935

- q-position: [   -0.2222222,    0.2222222,    0.1250000 ]
  weight: 4    
  band:
  - # 1
    frequency:     6.3157757103
  - # 2
    frequency:     8.6861105213
  - # 3
    frequency:    11.6303448118
  - # 4
    frequency:    11.8505285825
  - # 5
    frequency:    21.8254437123
  - # 6
    frequency:    22.4797669604
  - # 7
    frequency:    22.6521810669
  - # 8
    frequency:    24.2698848634
  - # 9
    frequency:    42.2917316300
  - # 10
    frequency:    42.6036784829
  - # 11
    frequency:    43.3626163181
  - # 12
    frequency:    43.7641464443

- q-position: [   -0.6666667,    0.3333333,    0.1250000 ]
  weight: 4    
  band:
  - # 1
    frequency:    16.0446499205
  - # 2
    frequency:    16.3582793336
  - # 3
    frequency:    16.8717309910
  - # 4
    frequency:    17.0986831720
  - # 5
    frequency:    29.2009591260
  - # 6
    frequency:    29.2968187988
  - # 7
    frequency:    37.3053732352
  - # 8
    frequency:    37.3170923029
  - # 9
    frequency:    37.3370942961
  - # 10
    frequency:    37.3977356764
  - # 11
    frequency:    43.9544306168
  - # 12
    frequency:    43.9749486900

- q-position: [   -0.5555556,    0.3333333,    0.1250000 ]
  weight: 8    
  band:
  - # 1
    frequency:    14.2700789731
  - # 2
    frequency:    14.9977684961
  - # 3
    frequency:    18.2829226529
  - # 4
    frequency:    18.6045311613
  - # 5
    frequency:    25.8659549141
  - # 6
    frequency:    25.9276359233
  - # 7
    frequency:    36.2446377614
  - # 8
    frequency:    36.3444752094
  - # 9
    frequency:    39.9281413978
  - # 10
    frequency:    39.9665254483
  - # 11
    frequency:    43.4714947707
  - # 12
    frequency:    43.5020087434

- q-position: [   -0.4444444,    0.3333333,    0.1250000 ]
  weight: 8    
  band:
  - # 1
    frequency:    12.2759745769
  - # 2
    frequency:    13.2951096337
  - # 3
    frequency:    19.4453939399
  - # 4
    frequency:    19.9476429603
  - # 5
    frequency:    20.0225770185
  - # 6
    frequency:    20.4933849060
  - # 7
    frequency:    34.6476662498
  - # 8
    frequency:    34.7851754967
  - # 9
    frequency:    42.0594539824
  - # 10
    frequency:    42.1870955483
  - # 11
    frequency:    42.8371503273
  - # 12
    frequency:    42.9392674113

- q-position: [   -0.3333333,    0.3333333,    0.1250000 ]
  weight: 4    
  band:
  - # 1
    frequency:    10.2325288122
  - # 2
    frequency:    11.7012575455
  - # 3
    frequency:    16.0445678511
  - # 4
    frequency:    16.1633100418
  - # 5
    frequency:    20.3964882214
  - # 6
    frequency:    22.0552721620
  - # 7
    frequency:    31.4252026557
  - # 8
    frequency:    31.5870707894
  - # 9
    frequency:    42.0464499508
  - # 10
    frequency:    42.2457289967
  - # 11
    frequency:    43.4752367432
  - # 12
    frequency:    43.6863715882

- q-position: [   -0.5555556,    0.4444444,    0.1250000 ]
  weight: 4    
  band:
  - # 1
    frequency:    14.2938745130
  - # 2
    frequency:    14.6320893509
  - # 3
    frequency:    18.6031795975
  - # 4
    frequency:    18.6845470443
  - # 5
    frequency:    21.2882522912
  - # 6
    frequency:    21.3043396705
  - # 7
    frequency:    39.4318798600
  - # 8
    frequency:    39.4719132515
  - # 9
    frequency:    39.7194376888
  - # 10
    frequency:    39.7812405801
  - # 11
    frequency:    42.6335552987
  - # 12
    frequency:    42.6402847673

- q-position: [   -0.4444444,    0.4444444,    0.1250000 ]
  weight: 4    
  band:
  - # 1
    frequency:    13.4800121562
  - # 2
    frequency:    13.9649648960
  - # 3
    frequency:    18.4945963746
  - # 4
    frequency:    18.5320303503
  - # 5
    frequency:    18.9676576043
  - # 6
    frequency:    19.5871563632
  - # 7
    frequency:    37.9758436115
  - # 8
    frequency:    38.0773877835
  - # 9
    frequency:    41.8645831059
  - # 10
    frequency:    41.9335808237
  - # 11
    frequency:    41.9506967210
  - # 12
    frequency:    42.0114808202

- q-position: [    0.0000000,    0.0000000,    0.3750000 ]
  weight: 2    
  band:
  - # 1
    frequency:    -2.5142377816
  - # 2
    frequency:    -2.0450024557
  - # 3
    frequency:    -1.9317224235
  - # 4
    frequency:    -1.7588034214
  - # 5
    frequency:     2.0171875640
  - # 6
    frequency:     2.8120584932
  - # 7
    frequency:    25.1693113601
  - # 8
    frequency:    26.4424976328
  - # 9
    frequency:    40.2939739939
  - # 10
    frequency:    40.4770335345
  - # 11
    frequency:    40.5966965790
  - # 12
    frequency:    40.8645640492

- q-position: [    0.1111111,    0.0000000,    0.3750000 ]
  weight: 8    
  band:
  - # 1
    frequency:     4.3598290435
  - # 2
    frequency:     5.0085428788
  - # 3
    frequency:     5.8796134437
  - # 4
    frequency:     5.9299520587
  - # 5
    frequency:    11.2655324783
  - # 6
    frequency:    11.3341432050
  - # 7
    frequency:    24.6440397424
  - # 8
    frequency:    25.8169048417
  - # 9
    frequency:    40.6855577243
  - # 10
    frequency:    40.8840833331
  - # 11
    frequency:    41.1119154883
  - # 12
    frequency:    41.3193459193

- q-position: [    0.2222222,    0.0000000,    0.3750000 ]
  weight: 8    
  band:
  - # 1
    frequency:     7.8540442301
  - # 2
    frequency:     8.4156820193
  - # 3
    frequency:    11.6598752946
  - # 4
    frequency:    11.6991074916
  - # 5
    frequency:    22.0839346409
  - # 6
    frequency:    22.1265251306
  - # 7
    frequency:    23.1894946963
  - # 8
    frequency:    24.0832926713
  - # 9
    frequency:    41.1657664384
  - # 10
    frequency:    41.3256078270
  - # 11
    frequency:    42.5307806583
  - # 12
    frequency:    42.6665443601

- q-position: [    0.3333333,    0.0000000,    0.3750000 ]
  weight: 8    
  band:
  - # 1
    frequency:    11.1137664763
  - # 2
    frequency:    11.5500537745
  - # 3
    frequency:    16.0693349432
  - # 4
    frequency:    16.0909667105
  - # 5
    frequency:    21.1514871190
  - # 6
    frequency:    21.6552091316
  - # 7
    frequency:    31.2014128539
  - # 8
    frequency:    31.2347482160
  - # 9
    frequency:    41.5998956324
  - # 10
    frequency:    41.6882718956
  - # 11
    frequency:    43.2539908970
  - # 12
    frequency:    43.3325054870

- q-position: [    0.4444444,    0.0000000,    0.3750000 ]
  weight: 8    
  band:
  - # 1
    frequency:    13.6898542288
  - # 2
    frequency:    13.8957933446
  - # 3
    frequency:    18.5113462773
  - # 4
    frequency:    18.5163367831
  - # 5
    frequency:    19.2038620901
  - # 6
    frequency:    19.3317279037
  - # 7
    frequency:    37.9565600707
  - # 8
    frequency:    37.9811920789
  - # 9
    frequency:    41.8330197724
  - # 10
    frequency:    41.8593689836
  - # 11
    frequency:    41.9757225615
  - # 12
    frequency:    42.0136706442

- q-position: [    0.1111111,    0.1111111,    0.3750000 ]
  weight: 4    
  band:
  - # 1
    frequency:     7.3751256733
  - # 2
    frequency:     7.6101995640
  - # 3
    frequency:    10.3976069158
  - # 4
    frequency:    10.4816010260
  - # 5
    frequency:    18.8371665328
  - # 6
    frequency:    18.8972683767
  - # 7
    frequency:    23.5831219989
  - # 8
    frequency:    24.5377561503
  - # 9
    frequency:    41.2980880716
  - # 10
    frequency:    41.4997939292
  - # 11
    frequency:    42.0802778408
  - # 12
    frequency:    42.2040090988

- q-position: [    0.2222222,    0.1111111,    0.3750000 ]
  weight: 8    
  band:
  - # 1
    frequency:    10.4836060655
  - # 2
    frequency:    10.7016669684
  - # 3
    frequency:    15.7556881812
  - # 4
    frequency:    15.8256408941
  - # 5
    frequency:    21.7625297164
  - # 6
    frequency:    22.3640263726
  - # 7
    frequency:    27.2015452480
  - # 8
    frequency:    27.2422272792
  - # 9
    frequency:    41.9281050497
  - # 10
    frequency:    42.0536695569
  - # 11
    frequency:    43.0832910652
  - # 12
    frequency:    43.1663291523

- q-position: [    0.3333333,    0.1111111,    0.3750000 ]
  weight: 8    
  band:
  - # 1
    frequency:    13.2262448858
  - # 2
    frequency:    13.3654318841
  - # 3
    frequency:    19.6406197585
  - # 4
    frequency:    19.6590243892
  - # 5
    frequency:    19.6947793920
  - # 6
    frequency:    19.8680696130
  - # 7
    frequency:    34.3847259917
  - # 8
    frequency:    34.4117058166
  - # 9
    frequency:    42.0947080101
  - # 10
    frequency:    42.1363593715
  - # 11
    frequency:    42.9624833398
  - # 12
    frequency:    43.0234963980

- q-position: [   -0.5555556,    0.1111111,    0.3750000 ]
  weight: 8    
  band:
  - # 1
    frequency:    14.3930534960
  - # 2
    frequency:    14.6068765931
  - # 3
    frequency:    18.5490069632
  - # 4
    frequency:    18.5781420492
  - # 5
    frequency:    21.2514405215
  - # 6
    frequency:    21.3009148793
  - # 7
    frequency:    39.4191936820
  - # 8
    frequency:    39.4306468998
  - # 9
    frequency:    39.8738576784
  - # 10
    frequency:    39.8981255923
  - # 11
    frequency:    42.6856910292
  - # 12
    frequency:    42.6993052737

- q-position: [   -0.4444444,    0.1111111,    0.3750000 ]
  weight: 8    
  band:
  - # 1
    frequency:    12.4382034899
  - # 2
    frequency:    12.9407249758
  - # 3
    frequency:    19.9982446191
  - # 4
    frequency:    20.2290711077
  - # 5
    frequency:    20.2846359120
  - # 6
    frequency:    20.3216572255
  - # 7
    frequency:    34.7462873334
  - # 8
    frequency:    34.7805803163
  - # 9
    frequency:    41.8126968737
  - # 10
    frequency:    41.8618507055
  - # 11
    frequency:    42.6649783218
  - # 12
    frequency:    42.7110135856

- q-position: [   -0.3333333,    0.1111111,    0.3750000 ]
  weight: 8    
  band:
  - # 1
    frequency:     9.4712471650
  - # 2
    frequency:    10.1971834737
  - # 3
    frequency:    16.6968589000
  - # 4
    frequency:    16.7648873319
  - # 5
    frequency:    22.0552206053
  - # 6
    frequency:    22.7732740091
  - # 7
    frequency:    27.5876700970
  - # 8
    frequency:    27.6305457659
  - # 9
    frequency:    41.5581909786
  - # 10
    frequency:    41.6621573907
  - # 11
    frequency:    42.8250289685
  - # 12
    frequency:    42.9332218889

- q-position: [   -0.2222222,    0.1111111,    0.3750000 ]
  weight: 8    
  band:
  - # 1
    frequency:     6.2357077824
  - # 2
    frequency:     7.2017944183
  - # 3
    frequency:    11.2594723928
  - # 4
    frequency:    11.3499254702
  - # 5
    frequency:    19.3315896105
  - # 6
    frequency:    19.3831810874
  - # 7
    frequency:    23.7676325974
  - # 8
    frequency:    24.8077519010
  - # 9
    frequency:    40.9257521840
  - # 10
    frequency:    41.0770988968
  - # 11
    frequency:    41.9824265313
  - # 12
    frequency:    42.1638696590

- q-position: [   -0.1111111,    0.1111111,    0.3750000 ]
  weight: 4    
  band:
  - # 1
    frequency:     3.6319100750
  - # 2
    frequency:     4.8124984177
  - # 3
    frequency:     5.9028260608
  - # 4
    frequency:     6.0859067705
  - # 5
    frequency:    11.8030483196
  - # 6
    frequency:    11.8674183247
  - # 7
    frequency:    24.7066180535
  - # 8
    frequency:    25.9107553730
  - # 9
    frequency:    40.4868652858
  - # 10
    frequency:    40.6566765732
  - # 11
    frequency:    41.1377319825
  - # 12
    frequency:    41.3776483568

- q-position: [    0.2222222,    0.2222222,    0.3750000 ]
  weight: 4    
  band:
  - # 1
    frequency:    13.0770889973
  - # 2
    frequency:    13.1616516705
  - # 3
    frequency:    19.8163237037
  - # 4
    frequency:    20.0587316359
  - # 5
    frequency:    21.5714553698
  - # 6
    frequency:    21.6503156783
  - # 7
    frequency:    31.9432926372
  - # 8
    frequency:    31.9772310148
  - # 9
    frequency:    42.5408741009
  - # 10
    frequency:    42.5729564440
  - # 11
    frequency:    42.9790361390
  - # 12
    frequency:    43.0548474205

- q-position: [    0.3333333,    0.2222222,    0.3750000 ]
  weight: 8    
  band:
  - # 1
    frequency:    15.0860887282
  - # 2
    frequency:    15.1984315283
  - # 3
    frequency:    17.8924725353
  - # 4
    frequency:    17.9540187418
  - # 5
    frequency:    25.5839300387
  - # 6
    frequency:    25.6471670365
  - # 7
    frequency:    36.1892402527
  - # 8
    frequency:    36.2063830562
  - # 9
    frequency:    40.3360243637
  - # 10
    frequency:    40.3416286623
  - # 11
    frequency:    43.6453174604
  - # 12
    frequency:    43.6742383257

- q-position: [   -0.5555556,    0.2222222,    0.3750000 ]
  weight: 8    
  band:
  - # 1
    frequency:    14.2593661862
  - # 2
    frequency:    14.6615566376
  - # 3
    frequency:    18.4365700043
  - # 4
    frequency:    18.5266642608
  - # 5
    frequency:    26.0478225683
  - # 6
    frequency:    26.1050965844
  - # 7
    frequency:    36.5424787677
  - # 8
    frequency:    36.5693464677
  - # 9
    frequency:    39.8634147396
  - # 10
    frequency:    39.8771581725
  - # 11
    frequency:    43.5026299323
  - # 12
    frequency:    43.5175199847

- q-position: [   -0.4444444,    0.2222222,    0.3750000 ]
  weight: 8    
  band:
  - # 1
    frequency:    11.8397049650
  - # 2
    frequency:    12.4336848290
  - # 3
    frequency:    20.3353895855
  - # 4
    frequency:    20.7822341490
  - # 5
    frequency:    22.5585002540
  - # 6
    frequency:    22.6130528891
  - # 7
    frequency:    32.3883120054
  - # 8
    frequency:    32.4394548444
  - # 9
    frequency:    42.0314240266
  - # 10
    frequency:    42.0921583193
  - # 11
    frequency:    42.6149086003
  - # 12
    frequency:    42.6648881412

- q-position: [   -0.3333333,    0.2222222,    0.3750000 ]
  weight: 8    
  band:
  - # 1
    frequency:     9.1973829631
  - # 2
    frequency:     9.9987012997
  - # 3
    frequency:    16.5812219752
  - # 4
    frequency:    16.6427475402
  - # 5
    frequency:    22.1282471158
  - # 6
    frequency:    22.9130428429
  - # 7
    frequency:    27.8958192589
  - # 8
    frequency:    27.9598114986
  - # 9
    frequency:    41.5611644492
  - # 10
    frequency:    41.6591817980
  - # 11
    frequency:    42.6477657779
  - # 12
    frequency:    42.7658159777

- q-position: [   -0.2222222,    0.2222222,    0.3750000 ]
  weight: 4    
  band:
  - # 1
    frequency:     6.8988419743
  - # 2
    frequency:     7.9137564269
  - # 3
    frequency:    11.8384419393
  - # 4
    frequency:    11.9271142539
  - # 5
    frequency:    22.7840573970
  - # 6
    frequency:    22.8544507235
  - # 7
    frequency:    23.3774723180
  - # 8
    frequency:    24.3781827756
  - # 9
    frequency:    40.9610644971
  - # 10
    frequency:    41.0948437825
  - # 11
    frequency:    42.2732898470
  - # 12
    frequency:    42.4436712414

- q-position: [   -0.6666667,    0.3333333,    0.3750000 ]
  weight: 4    
  band:
  - # 1
    frequency:    15.9839755856
  - # 2
    frequency:    16.1864142206
  - # 3
    frequency:    16.8787862766
  - # 4
    frequency:    16.9051395195
  - # 5
    frequency:    29.4228511592
  - # 6
    frequency:    29.4630805597
  - # 7
    frequency:    37.4250902699
  - # 8
    frequency:    37.4293456042
  - # 9
    frequency:    37.5351230142
  - # 10
    frequency:    37.5592170871
  - # 11
    frequency:    44.0764002513
  - # 12
    frequency:    44.0846264996

- q-position: [   -0.5555556,    0.3333333,    0.3750000 ]
  weight: 8    
  band:
  - # 1
    frequency:    14.2886492762
  - # 2
    frequency:    14.6000364166
  - # 3
    frequency:    18.4375707445
  - # 4
    frequency:    18.5667694415
  - # 5
    frequency:    26.2052613989
  - # 6
    frequency:    26.2304213606
  - # 7
    frequency:    36.3777965153
  - # 8
    frequency:    36.4183477238
  - # 9
    frequency:    39.9072619461
  - # 10
    frequency:    39.9230618701
  - # 11
    frequency:    43.4965277911
  - # 12
    frequency:    43.5095720629

- q-position: [   -0.4444444,    0.3333333,    0.3750000 ]
  weight: 8    
  band:
  - # 1
    frequency:    12.3772584458
  - # 2
    frequency:    12.8162909133
  - # 3
    frequency:    20.0166437795
  - # 4
    frequency:    20.1616305839
  - # 5
    frequency:    20.1913285003
  - # 6
    frequency:    20.4442963389
  - # 7
    frequency:    34.8793725236
  - # 8
    frequency:    34.9358049638
  - # 9
    frequency:    41.8242846732
  - # 10
    frequency:    41.8774816351
  - # 11
    frequency:    42.5484979730
  - # 12
    frequency:    42.5909887558

- q-position: [   -0.3333333,    0.3333333,    0.3750000 ]
  weight: 4    
  band:
  - # 1
    frequency:    10.4395837196
  - # 2
    frequency:    11.0770814914
  - # 3
    frequency:    16.1861667031
  - # 4
    frequency:    16.2341424098
  - # 5
    frequency:    21.3698070820
  - # 6
    frequency:    22.0486366202
  - # 7
    frequency:    31.7561488005
  - # 8
    frequency:    31.8222246213
  - # 9
    frequency:    41.4762469186
  - # 10
    frequency:    41.5599963553
  - # 11
    frequency:    42.8746369699
  - # 12
    frequency:    42.9631582696

- q-position: [   -0.5555556,    0.4444444,    0.3750000 ]
  weight: 4    
  band:
  - # 1
    frequency:    14.3462662739
  - # 2
    frequency:    14.4879734561
  - # 3
    frequency:    18.6298853520
  - # 4
    frequency:    18.6644870832
  - # 5
    frequency:    21.4202658819
  - # 6
    frequency:    21.4268978869
  - # 7
    frequency:    39.4446303883
  - # 8
    frequency:    39.4608802249
  - # 9
    frequency:    39.7754705182
  - # 10
    frequency:    39.8004576668
  - # 11
    frequency:    42.6488222950
  - # 12
    frequency:    42.6518547553

- q-position: [   -0.4444444,    0.4444444,    0.3750000 ]
  weight: 4    
  band:
  - # 1
    frequency:    13.5587701043
  - # 2
    frequency:    13.7687563155
  - # 3
    frequency:    18.5218899771
  - # 4
    frequency:    18.5372889398
  - # 5
    frequency:    19.2536489188
  - # 6
    frequency:    19.5063869692
  - # 7
    frequency:    38.1436761258
  - # 8
    frequency:    38.1854880994
  - # 9
    frequency:    41.7835353396
  - # 10
    frequency:    41.8059614057
  - # 11
    frequency:    41.8088434684
  - # 12
    frequency:    41.8345758285

