# Thermal properties / unit cell (natom)

unit:
  temperature:   K
  free_energy:   kJ/mol
  entropy:       J/K/mol
  heat_capacity: J/K/mol

natom:     4
num_modes: 3888
num_integrated_modes: 3874

zero_point_energy:      65.5447615
high_T_entropy:        229.9027078

thermal_properties:
- temperature:         0.0000000
  free_energy:        65.5447615
  entropy:             0.0000000
  heat_capacity:       0.0000000
  energy:             65.5447615

- temperature:        10.0000000
  free_energy:        65.5447280
  entropy:             0.0151418
  heat_capacity:       0.0423731
  energy:             65.5448794

- temperature:        20.0000000
  free_energy:        65.5443293
  entropy:             0.0673702
  heat_capacity:       0.1208991
  energy:             65.5456767

- temperature:        30.0000000
  free_energy:        65.5433185
  entropy:             0.1388310
  heat_capacity:       0.2541887
  energy:             65.5474834

- temperature:        40.0000000
  free_energy:        65.5414483
  entropy:             0.2415681
  heat_capacity:       0.4914767
  energy:             65.5511110

- temperature:        50.0000000
  free_energy:        65.5383413
  entropy:             0.3878380
  heat_capacity:       0.8542250
  energy:             65.5577332

- temperature:        60.0000000
  free_energy:        65.5335216
  entropy:             0.5849948
  heat_capacity:       1.3447970
  energy:             65.5686213

- temperature:        70.0000000
  free_energy:        65.5264578
  entropy:             0.8372197
  heat_capacity:       1.9655894
  energy:             65.5850631

- temperature:        80.0000000
  free_energy:        65.5165838
  entropy:             1.1474268
  heat_capacity:       2.7197251
  energy:             65.6083780

- temperature:        90.0000000
  free_energy:        65.5033089
  entropy:             1.5176958
  heat_capacity:       3.6068515
  energy:             65.6399015

- temperature:       100.0000000
  free_energy:        65.4860259
  entropy:             1.9491487
  heat_capacity:       4.6215365
  energy:             65.6809407

- temperature:       110.0000000
  free_energy:        65.4641217
  entropy:             2.4418438
  heat_capacity:       5.7537820
  energy:             65.7327245

- temperature:       120.0000000
  free_energy:        65.4369880
  entropy:             2.9948011
  heat_capacity:       6.9902955
  energy:             65.7963641

- temperature:       130.0000000
  free_energy:        65.4040310
  entropy:             3.6061258
  heat_capacity:       8.3158787
  energy:             65.8728274

- temperature:       140.0000000
  free_energy:        65.3646796
  entropy:             4.2731869
  heat_capacity:       9.7147042
  energy:             65.9629258

- temperature:       150.0000000
  free_energy:        65.3183920
  entropy:             4.9928140
  heat_capacity:      11.1713704
  energy:             66.0673141

- temperature:       160.0000000
  free_energy:        65.2646598
  entropy:             5.7614915
  heat_capacity:      12.6716766
  energy:             66.1864985

- temperature:       170.0000000
  free_energy:        65.2030110
  entropy:             6.5755306
  heat_capacity:      14.2031023
  energy:             66.3208512

- temperature:       180.0000000
  free_energy:        65.1330104
  entropy:             7.4312122
  heat_capacity:      15.7550193
  energy:             66.4706286

- temperature:       190.0000000
  free_energy:        65.0542601
  entropy:             8.3248972
  heat_capacity:      17.3186912
  energy:             66.6359905

- temperature:       200.0000000
  free_energy:        64.9663974
  entropy:             9.2531036
  heat_capacity:      18.8871268
  energy:             66.8170182

- temperature:       210.0000000
  free_energy:        64.8690939
  entropy:            10.2125557
  heat_capacity:      20.4548490
  energy:             67.0137306

- temperature:       220.0000000
  free_energy:        64.7620523
  entropy:            11.2002101
  heat_capacity:      22.0176301
  energy:             67.2260986

- temperature:       230.0000000
  free_energy:        64.6450050
  entropy:            12.2132642
  heat_capacity:      23.5722290
  energy:             67.4540558

- temperature:       240.0000000
  free_energy:        64.5177110
  entropy:            13.2491522
  heat_capacity:      25.1161539
  energy:             67.6975075

- temperature:       250.0000000
  free_energy:        64.3799537
  entropy:            14.3055323
  heat_capacity:      26.6474603
  energy:             67.9563368

- temperature:       260.0000000
  free_energy:        64.2315392
  entropy:            15.3802703
  heat_capacity:      28.1645902
  energy:             68.2304094

- temperature:       270.0000000
  free_energy:        64.0722936
  entropy:            16.4714199
  heat_capacity:      29.6662492
  energy:             68.5195770

- temperature:       280.0000000
  free_energy:        63.9020620
  entropy:            17.5772039
  heat_capacity:      31.1513173
  energy:             68.8236791

- temperature:       290.0000000
  free_energy:        63.7207062
  entropy:            18.6959948
  heat_capacity:      32.6187886
  energy:             69.1425447

- temperature:       300.0000000
  free_energy:        63.5281037
  entropy:            19.8262979
  heat_capacity:      34.0677328
  energy:             69.4759931

- temperature:       310.0000000
  free_energy:        63.3241465
  entropy:            20.9667361
  heat_capacity:      35.4972735
  energy:             69.8238347

- temperature:       320.0000000
  free_energy:        63.1087395
  entropy:            22.1160363
  heat_capacity:      36.9065779
  energy:             70.1858711

- temperature:       330.0000000
  free_energy:        62.8818001
  entropy:            23.2730181
  heat_capacity:      38.2948556
  energy:             70.5618961

- temperature:       340.0000000
  free_energy:        62.6432572
  entropy:            24.4365837
  heat_capacity:      39.6613606
  energy:             70.9516956

- temperature:       350.0000000
  free_energy:        62.3930499
  entropy:            25.6057100
  heat_capacity:      41.0053973
  energy:             71.3550484

- temperature:       360.0000000
  free_energy:        62.1311276
  entropy:            26.7794414
  heat_capacity:      42.3263263
  energy:             71.7717266

- temperature:       370.0000000
  free_energy:        61.8574487
  entropy:            27.9568845
  heat_capacity:      43.6235710
  energy:             72.2014960

- temperature:       380.0000000
  free_energy:        61.5719804
  entropy:            29.1372025
  heat_capacity:      44.8966225
  energy:             72.6441173

- temperature:       390.0000000
  free_energy:        61.2746977
  entropy:            30.3196118
  heat_capacity:      46.1450434
  energy:             73.0993463

- temperature:       400.0000000
  free_energy:        60.9655836
  entropy:            31.5033781
  heat_capacity:      47.3684708
  energy:             73.5669349

- temperature:       410.0000000
  free_energy:        60.6446279
  entropy:            32.6878135
  heat_capacity:      48.5666165
  energy:             74.0466315

- temperature:       420.0000000
  free_energy:        60.3118273
  entropy:            33.8722737
  heat_capacity:      49.7392678
  energy:             74.5381822

- temperature:       430.0000000
  free_energy:        59.9671844
  entropy:            35.0561558
  heat_capacity:      50.8862850
  energy:             75.0413314

- temperature:       440.0000000
  free_energy:        59.6107080
  entropy:            36.2388961
  heat_capacity:      52.0075997
  energy:             75.5558222

- temperature:       450.0000000
  free_energy:        59.2424120
  entropy:            37.4199681
  heat_capacity:      53.1032110
  energy:             76.0813977

- temperature:       460.0000000
  free_energy:        58.8623158
  entropy:            38.5988808
  heat_capacity:      54.1731817
  energy:             76.6178010

- temperature:       470.0000000
  free_energy:        58.4704432
  entropy:            39.7751768
  heat_capacity:      55.2176344
  energy:             77.1647763

- temperature:       480.0000000
  free_energy:        58.0668224
  entropy:            40.9484308
  heat_capacity:      56.2367462
  energy:             77.7220692

- temperature:       490.0000000
  free_energy:        57.6514860
  entropy:            42.1182479
  heat_capacity:      57.2307442
  energy:             78.2894275

- temperature:       500.0000000
  free_energy:        57.2244701
  entropy:            43.2842623
  heat_capacity:      58.1999008
  energy:             78.8666013

- temperature:       510.0000000
  free_energy:        56.7858146
  entropy:            44.4461356
  heat_capacity:      59.1445286
  energy:             79.4533437

- temperature:       520.0000000
  free_energy:        56.3355623
  entropy:            45.6035557
  heat_capacity:      60.0649758
  energy:             80.0494112

- temperature:       530.0000000
  free_energy:        55.8737592
  entropy:            46.7562352
  heat_capacity:      60.9616219
  energy:             80.6545639

- temperature:       540.0000000
  free_energy:        55.4004542
  entropy:            47.9039101
  heat_capacity:      61.8348731
  energy:             81.2685657

- temperature:       550.0000000
  free_energy:        54.9156985
  entropy:            49.0463386
  heat_capacity:      62.6851585
  energy:             81.8911848

- temperature:       560.0000000
  free_energy:        54.4195457
  entropy:            50.1833002
  heat_capacity:      63.5129261
  energy:             82.5221938

- temperature:       570.0000000
  free_energy:        53.9120514
  entropy:            51.3145936
  heat_capacity:      64.3186396
  energy:             83.1613698

- temperature:       580.0000000
  free_energy:        53.3932733
  entropy:            52.4400368
  heat_capacity:      65.1027747
  energy:             83.8084947

- temperature:       590.0000000
  free_energy:        52.8632707
  entropy:            53.5594648
  heat_capacity:      65.8658168
  energy:             84.4633550

- temperature:       600.0000000
  free_energy:        52.3221046
  entropy:            54.6727296
  heat_capacity:      66.6082578
  energy:             85.1257423

- temperature:       610.0000000
  free_energy:        51.7698371
  entropy:            55.7796983
  heat_capacity:      67.3305937
  energy:             85.7954531

- temperature:       620.0000000
  free_energy:        51.2065320
  entropy:            56.8802530
  heat_capacity:      68.0333228
  energy:             86.4722888

- temperature:       630.0000000
  free_energy:        50.6322538
  entropy:            57.9742890
  heat_capacity:      68.7169435
  energy:             87.1560559

- temperature:       640.0000000
  free_energy:        50.0470683
  entropy:            59.0617147
  heat_capacity:      69.3819526
  energy:             87.8465657

- temperature:       650.0000000
  free_energy:        49.4510418
  entropy:            60.1424503
  heat_capacity:      70.0288439
  energy:             88.5436345

- temperature:       660.0000000
  free_energy:        48.8442418
  entropy:            61.2164273
  heat_capacity:      70.6581066
  energy:             89.2470838

- temperature:       670.0000000
  free_energy:        48.2267360
  entropy:            62.2835874
  heat_capacity:      71.2702246
  energy:             89.9567395

- temperature:       680.0000000
  free_energy:        47.5985929
  entropy:            63.3438821
  heat_capacity:      71.8656751
  energy:             90.6724327

- temperature:       690.0000000
  free_energy:        46.9598814
  entropy:            64.3972720
  heat_capacity:      72.4449279
  energy:             91.3939990

- temperature:       700.0000000
  free_energy:        46.3106706
  entropy:            65.4437260
  heat_capacity:      73.0084450
  energy:             92.1212788

- temperature:       710.0000000
  free_energy:        45.6510301
  entropy:            66.4832210
  heat_capacity:      73.5566793
  energy:             92.8541170

- temperature:       720.0000000
  free_energy:        44.9810294
  entropy:            67.5157410
  heat_capacity:      74.0900747
  energy:             93.5923629

- temperature:       730.0000000
  free_energy:        44.3007385
  entropy:            68.5412767
  heat_capacity:      74.6090658
  energy:             94.3358705

- temperature:       740.0000000
  free_energy:        43.6102272
  entropy:            69.5598250
  heat_capacity:      75.1140769
  energy:             95.0844977

- temperature:       750.0000000
  free_energy:        42.9095653
  entropy:            70.5713887
  heat_capacity:      75.6055225
  energy:             95.8381068

- temperature:       760.0000000
  free_energy:        42.1988227
  entropy:            71.5759758
  heat_capacity:      76.0838068
  energy:             96.5965642

- temperature:       770.0000000
  free_energy:        41.4780690
  entropy:            72.5735992
  heat_capacity:      76.5493235
  energy:             97.3597404

- temperature:       780.0000000
  free_energy:        40.7473738
  entropy:            73.5642764
  heat_capacity:      77.0024562
  energy:             98.1275094

- temperature:       790.0000000
  free_energy:        40.0068065
  entropy:            74.5480290
  heat_capacity:      77.4435778
  energy:             98.8997495

- temperature:       800.0000000
  free_energy:        39.2564363
  entropy:            75.5248824
  heat_capacity:      77.8730509
  energy:             99.6763422

- temperature:       810.0000000
  free_energy:        38.4963318
  entropy:            76.4948655
  heat_capacity:      78.2912281
  energy:            100.4571728

- temperature:       820.0000000
  free_energy:        37.7265617
  entropy:            77.4580103
  heat_capacity:      78.6984515
  energy:            101.2421302

- temperature:       830.0000000
  free_energy:        36.9471943
  entropy:            78.4143520
  heat_capacity:      79.0950532
  energy:            102.0311065

- temperature:       840.0000000
  free_energy:        36.1582972
  entropy:            79.3639282
  heat_capacity:      79.4813555
  energy:            102.8239970

- temperature:       850.0000000
  free_energy:        35.3599381
  entropy:            80.3067790
  heat_capacity:      79.8576708
  energy:            103.6207003

- temperature:       860.0000000
  free_energy:        34.5521839
  entropy:            81.2429467
  heat_capacity:      80.2243023
  energy:            104.4211181

- temperature:       870.0000000
  free_energy:        33.7351013
  entropy:            82.1724755
  heat_capacity:      80.5815434
  energy:            105.2251550

- temperature:       880.0000000
  free_energy:        32.9087564
  entropy:            83.0954116
  heat_capacity:      80.9296786
  energy:            106.0327186

- temperature:       890.0000000
  free_energy:        32.0732149
  entropy:            84.0118025
  heat_capacity:      81.2689835
  energy:            106.8437192

- temperature:       900.0000000
  free_energy:        31.2285420
  entropy:            84.9216975
  heat_capacity:      81.5997247
  energy:            107.6580697

- temperature:       910.0000000
  free_energy:        30.3748024
  entropy:            85.8251467
  heat_capacity:      81.9221607
  energy:            108.4756860

- temperature:       920.0000000
  free_energy:        29.5120604
  entropy:            86.7222018
  heat_capacity:      82.2365415
  energy:            109.2964861

- temperature:       930.0000000
  free_energy:        28.6403795
  entropy:            87.6129153
  heat_capacity:      82.5431089
  energy:            110.1203908

- temperature:       940.0000000
  free_energy:        27.7598230
  entropy:            88.4973404
  heat_capacity:      82.8420973
  energy:            110.9473230

- temperature:       950.0000000
  free_energy:        26.8704535
  entropy:            89.3755312
  heat_capacity:      83.1337331
  energy:            111.7772082

- temperature:       960.0000000
  free_energy:        25.9723330
  entropy:            90.2475426
  heat_capacity:      83.4182356
  energy:            112.6099739

- temperature:       970.0000000
  free_energy:        25.0655231
  entropy:            91.1134296
  heat_capacity:      83.6958168
  energy:            113.4455498

- temperature:       980.0000000
  free_energy:        24.1500847
  entropy:            91.9732481
  heat_capacity:      83.9666818
  energy:            114.2838678

- temperature:       990.0000000
  free_energy:        23.2260782
  entropy:            92.8270541
  heat_capacity:      84.2310292
  energy:            115.1248618

- temperature:      1000.0000000
  free_energy:        22.2935634
  entropy:            93.6749039
  heat_capacity:      84.4890507
  energy:            115.9684673
