   4   4   0   0
  0.8555981E+01  0.2466437E-09  0.2466437E-09  0.6499116E-09  0.5000000E-15
  1.000000000000000E-004
  CAR 
 graphite                                
     18.86782528    -16.70587076  301      4.95188299      1.00000000
    -16.706  0.0000E+00  0.0000E+00
    -16.587  0.0000E+00  0.0000E+00
    -16.469  0.0000E+00  0.0000E+00
    -16.350  0.0000E+00  0.0000E+00
    -16.232  0.0000E+00  0.0000E+00
    -16.113  0.0000E+00  0.0000E+00
    -15.994  0.0000E+00  0.0000E+00
    -15.876  0.0000E+00  0.0000E+00
    -15.757  0.0000E+00  0.0000E+00
    -15.639  0.0000E+00  0.0000E+00
    -15.520  0.0000E+00  0.0000E+00
    -15.402  0.0000E+00  0.0000E+00
    -15.283  0.0000E+00  0.0000E+00
    -15.164  0.0000E+00  0.0000E+00
    -15.046  0.0000E+00  0.0000E+00
    -14.927  0.0000E+00  0.0000E+00
    -14.809  0.0000E+00  0.0000E+00
    -14.690  0.7817E-04  0.4181E-06
    -14.571  0.1119E-02  0.8650E-04
    -14.453  0.1833E-02  0.2623E-03
    -14.334  0.2539E-02  0.5155E-03
    -14.216  0.3070E-02  0.8698E-03
    -14.097  0.3084E-02  0.1239E-02
    -13.979  0.3066E-02  0.1600E-02
    -13.860  0.3122E-02  0.1967E-02
    -13.741  0.3081E-02  0.2335E-02
    -13.623  0.3094E-02  0.2701E-02
    -13.504  0.3109E-02  0.3069E-02
    -13.386  0.3095E-02  0.3436E-02
    -13.267  0.3120E-02  0.3806E-02
    -13.149  0.3121E-02  0.4176E-02
    -13.030  0.3126E-02  0.4546E-02
    -12.911  0.3110E-02  0.4916E-02
    -12.793  0.3132E-02  0.5285E-02
    -12.674  0.3156E-02  0.5659E-02
    -12.556  0.3156E-02  0.6033E-02
    -12.437  0.3154E-02  0.6407E-02
    -12.318  0.3140E-02  0.6780E-02
    -12.200  0.3156E-02  0.7153E-02
    -12.081  0.3182E-02  0.7529E-02
    -11.963  0.3199E-02  0.7908E-02
    -11.844  0.3200E-02  0.8287E-02
    -11.726  0.3198E-02  0.8667E-02
    -11.607  0.3192E-02  0.9045E-02
    -11.488  0.3207E-02  0.9424E-02
    -11.370  0.3229E-02  0.9806E-02
    -11.251  0.3256E-02  0.1019E-01
    -11.133  0.3266E-02  0.1058E-01
    -11.014  0.3273E-02  0.1096E-01
    -10.896  0.3272E-02  0.1135E-01
    -10.777  0.3288E-02  0.1174E-01
    -10.658  0.3310E-02  0.1213E-01
    -10.540  0.3339E-02  0.1253E-01
    -10.421  0.3374E-02  0.1292E-01
    -10.303  0.3410E-02  0.1333E-01
    -10.184  0.3444E-02  0.1373E-01
    -10.065  0.3490E-02  0.1414E-01
     -9.947  0.3563E-02  0.1456E-01
     -9.828  0.3701E-02  0.1499E-01
     -9.710  0.3882E-02  0.1544E-01
     -9.591  0.4493E-02  0.1592E-01
     -9.473  0.4975E-02  0.1649E-01
     -9.354  0.4899E-02  0.1709E-01
     -9.235  0.3436E-02  0.1758E-01
     -9.117  0.3427E-02  0.1803E-01
     -8.998  0.2429E-02  0.1844E-01
     -8.880  0.2090E-02  0.1870E-01
     -8.761  0.1834E-02  0.1893E-01
     -8.642  0.1577E-02  0.1914E-01
     -8.524  0.1705E-02  0.1932E-01
     -8.405  0.1599E-02  0.1953E-01
     -8.287  0.1131E-02  0.1970E-01
     -8.168  0.1097E-02  0.1981E-01
     -8.050  0.2077E-02  0.1998E-01
     -7.931  0.3423E-02  0.2036E-01
     -7.812  0.3283E-02  0.2076E-01
     -7.694  0.2820E-02  0.2110E-01
     -7.575  0.4032E-02  0.2152E-01
     -7.457  0.4498E-02  0.2204E-01
     -7.338  0.4580E-02  0.2255E-01
     -7.220  0.5338E-02  0.2313E-01
     -7.101  0.4783E-02  0.2376E-01
     -6.982  0.3845E-02  0.2425E-01
     -6.864  0.3687E-02  0.2470E-01
     -6.745  0.3542E-02  0.2513E-01
     -6.627  0.3399E-02  0.2554E-01
     -6.508  0.3258E-02  0.2593E-01
     -6.389  0.3116E-02  0.2631E-01
     -6.271  0.3000E-02  0.2667E-01
     -6.152  0.2958E-02  0.2703E-01
     -6.034  0.2922E-02  0.2737E-01
     -5.915  0.2886E-02  0.2772E-01
     -5.797  0.2849E-02  0.2806E-01
     -5.678  0.2710E-02  0.2839E-01
     -5.559  0.2572E-02  0.2870E-01
     -5.441  0.2943E-02  0.2903E-01
     -5.322  0.3380E-02  0.2940E-01
     -5.204  0.3817E-02  0.2983E-01
     -5.085  0.3831E-02  0.3029E-01
     -4.967  0.3715E-02  0.3074E-01
     -4.848  0.3657E-02  0.3117E-01
     -4.729  0.3600E-02  0.3160E-01
     -4.611  0.3619E-02  0.3203E-01
     -4.492  0.3721E-02  0.3246E-01
     -4.374  0.3816E-02  0.3291E-01
     -4.255  0.3900E-02  0.3337E-01
     -4.136  0.3941E-02  0.3383E-01
     -4.018  0.3954E-02  0.3430E-01
     -3.899  0.3921E-02  0.3477E-01
     -3.781  0.3923E-02  0.3523E-01
     -3.662  0.4041E-02  0.3571E-01
     -3.544  0.4455E-02  0.3621E-01
     -3.425  0.4663E-02  0.3675E-01
     -3.306  0.4833E-02  0.3732E-01
     -3.188  0.5035E-02  0.3790E-01
     -3.069  0.5307E-02  0.3851E-01
     -2.951  0.5498E-02  0.3916E-01
     -2.832  0.5669E-02  0.3982E-01
     -2.714  0.5860E-02  0.4050E-01
     -2.595  0.6047E-02  0.4121E-01
     -2.476  0.6541E-02  0.4194E-01
     -2.358  0.6830E-02  0.4275E-01
     -2.239  0.6842E-02  0.4356E-01
     -2.121  0.7044E-02  0.4438E-01
     -2.002  0.7093E-02  0.4522E-01
     -1.883  0.7082E-02  0.4606E-01
     -1.765  0.7367E-02  0.4688E-01
     -1.646  0.8621E-02  0.4781E-01
     -1.528  0.1110E-01  0.4899E-01
     -1.409  0.1249E-01  0.5040E-01
     -1.291  0.1002E-01  0.5173E-01
     -1.172  0.9247E-02  0.5287E-01
     -1.053  0.8473E-02  0.5391E-01
     -0.935  0.8255E-02  0.5492E-01
     -0.816  0.7594E-02  0.5586E-01
     -0.698  0.5629E-02  0.5660E-01
     -0.579  0.6336E-02  0.5732E-01
     -0.461  0.7466E-02  0.5814E-01
     -0.342  0.7505E-02  0.5901E-01
     -0.223  0.6754E-02  0.5990E-01
     -0.105  0.5881E-02  0.6064E-01
      0.014  0.5908E-02  0.6133E-01
      0.132  0.6366E-02  0.6205E-01
      0.251  0.7177E-02  0.6285E-01
      0.370  0.6548E-02  0.6372E-01
      0.488  0.6148E-02  0.6447E-01
      0.607  0.5971E-02  0.6518E-01
      0.725  0.5850E-02  0.6588E-01
      0.844  0.5737E-02  0.6657E-01
      0.962  0.5825E-02  0.6725E-01
      1.081  0.5843E-02  0.6795E-01
      1.200  0.5736E-02  0.6864E-01
      1.318  0.5606E-02  0.6931E-01
      1.437  0.5590E-02  0.6997E-01
      1.555  0.5733E-02  0.7065E-01
      1.674  0.5739E-02  0.7132E-01
      1.792  0.5544E-02  0.7200E-01
      1.911  0.5018E-02  0.7267E-01
      2.030  0.4253E-02  0.7318E-01
      2.148  0.4162E-02  0.7368E-01
      2.267  0.4082E-02  0.7417E-01
      2.385  0.4038E-02  0.7466E-01
      2.504  0.4280E-02  0.7514E-01
      2.623  0.4195E-02  0.7564E-01
      2.741  0.4263E-02  0.7614E-01
      2.860  0.4510E-02  0.7666E-01
      2.978  0.3989E-02  0.7719E-01
      3.097  0.3328E-02  0.7762E-01
      3.215  0.2680E-02  0.7797E-01
      3.334  0.2425E-02  0.7827E-01
      3.453  0.2200E-02  0.7854E-01
      3.571  0.1951E-02  0.7879E-01
      3.690  0.1767E-02  0.7901E-01
      3.808  0.1547E-02  0.7921E-01
      3.927  0.1264E-02  0.7937E-01
      4.045  0.1093E-02  0.7951E-01
      4.164  0.9234E-03  0.7963E-01
      4.283  0.7633E-03  0.7973E-01
      4.401  0.6320E-03  0.7981E-01
      4.520  0.5582E-03  0.7988E-01
      4.638  0.3938E-03  0.7994E-01
      4.757  0.2363E-03  0.7998E-01
      4.876  0.8400E-04  0.8000E-01
      4.994  0.2762E-04  0.8000E-01
      5.113  0.1177E-03  0.8001E-01
      5.231  0.2146E-03  0.8003E-01
      5.350  0.3194E-03  0.8006E-01
      5.468  0.4351E-03  0.8010E-01
      5.587  0.5625E-03  0.8016E-01
      5.706  0.7135E-03  0.8024E-01
      5.824  0.9438E-03  0.8034E-01
      5.943  0.1225E-02  0.8046E-01
      6.061  0.1494E-02  0.8063E-01
      6.180  0.1778E-02  0.8082E-01
      6.298  0.2383E-02  0.8107E-01
      6.417  0.3164E-02  0.8142E-01
      6.536  0.6825E-02  0.8196E-01
      6.654  0.4794E-02  0.8259E-01
      6.773  0.4327E-02  0.8313E-01
      6.891  0.4215E-02  0.8364E-01
      7.010  0.4116E-02  0.8414E-01
      7.129  0.3925E-02  0.8461E-01
      7.247  0.3944E-02  0.8507E-01
      7.366  0.3646E-02  0.8554E-01
      7.484  0.3291E-02  0.8594E-01
      7.603  0.3094E-02  0.8632E-01
      7.721  0.2942E-02  0.8668E-01
      7.840  0.2818E-02  0.8702E-01
      7.959  0.2716E-02  0.8735E-01
      8.077  0.2625E-02  0.8766E-01
      8.196  0.2551E-02  0.8797E-01
      8.314  0.2489E-02  0.8827E-01
      8.433  0.2427E-02  0.8856E-01
      8.551  0.2362E-02  0.8885E-01
      8.670  0.2302E-02  0.8912E-01
      8.789  0.2249E-02  0.8939E-01
      8.907  0.2200E-02  0.8966E-01
      9.026  0.2152E-02  0.8991E-01
      9.144  0.2107E-02  0.9017E-01
      9.263  0.2066E-02  0.9041E-01
      9.382  0.2036E-02  0.9066E-01
      9.500  0.2004E-02  0.9090E-01
      9.619  0.2029E-02  0.9113E-01
      9.737  0.2169E-02  0.9138E-01
      9.856  0.2248E-02  0.9165E-01
      9.974  0.2278E-02  0.9192E-01
     10.093  0.2303E-02  0.9219E-01
     10.212  0.2348E-02  0.9246E-01
     10.330  0.2381E-02  0.9274E-01
     10.449  0.2413E-02  0.9303E-01
     10.567  0.2450E-02  0.9332E-01
     10.686  0.2485E-02  0.9361E-01
     10.804  0.2516E-02  0.9390E-01
     10.923  0.2634E-02  0.9421E-01
     11.042  0.2869E-02  0.9453E-01
     11.160  0.3032E-02  0.9489E-01
     11.279  0.2941E-02  0.9524E-01
     11.397  0.2626E-02  0.9557E-01
     11.516  0.2422E-02  0.9587E-01
     11.635  0.2361E-02  0.9615E-01
     11.753  0.2211E-02  0.9643E-01
     11.872  0.2052E-02  0.9668E-01
     11.990  0.2044E-02  0.9692E-01
     12.109  0.2314E-02  0.9717E-01
     12.227  0.3479E-02  0.9751E-01
     12.346  0.5006E-02  0.9801E-01
     12.465  0.6359E-02  0.9869E-01
     12.583  0.7047E-02  0.9949E-01
     12.702  0.8362E-02  0.1004E+00
     12.820  0.9290E-02  0.1014E+00
     12.939  0.9380E-02  0.1026E+00
     13.057  0.8193E-02  0.1036E+00
     13.176  0.8022E-02  0.1046E+00
     13.295  0.8997E-02  0.1055E+00
     13.413  0.1283E-01  0.1071E+00
     13.532  0.1148E-01  0.1087E+00
     13.650  0.8612E-02  0.1099E+00
     13.769  0.6335E-02  0.1108E+00
     13.888  0.5545E-02  0.1115E+00
     14.006  0.5345E-02  0.1121E+00
     14.125  0.4555E-02  0.1127E+00
     14.243  0.4523E-02  0.1133E+00
     14.362  0.4414E-02  0.1138E+00
     14.480  0.4297E-02  0.1143E+00
     14.599  0.3032E-02  0.1148E+00
     14.718  0.2786E-02  0.1151E+00
     14.836  0.2789E-02  0.1154E+00
     14.955  0.3097E-02  0.1158E+00
     15.073  0.3085E-02  0.1162E+00
     15.192  0.3009E-02  0.1165E+00
     15.310  0.3768E-02  0.1169E+00
     15.429  0.4450E-02  0.1174E+00
     15.548  0.4864E-02  0.1179E+00
     15.666  0.3380E-02  0.1184E+00
     15.785  0.2758E-02  0.1188E+00
     15.903  0.2471E-02  0.1191E+00
     16.022  0.2013E-02  0.1194E+00
     16.141  0.1901E-02  0.1196E+00
     16.259  0.1188E-02  0.1198E+00
     16.378  0.7427E-03  0.1199E+00
     16.496  0.3414E-03  0.1200E+00
     16.615  0.1419E-03  0.1200E+00
     16.733  0.3007E-04  0.1200E+00
     16.852  0.8648E-07  0.1200E+00
     16.971  0.0000E+00  0.1200E+00
     17.089  0.0000E+00  0.1200E+00
     17.208  0.0000E+00  0.1200E+00
     17.326  0.0000E+00  0.1200E+00
     17.445  0.0000E+00  0.1200E+00
     17.563  0.0000E+00  0.1200E+00
     17.682  0.0000E+00  0.1200E+00
     17.801  0.0000E+00  0.1200E+00
     17.919  0.0000E+00  0.1200E+00
     18.038  0.0000E+00  0.1200E+00
     18.156  0.0000E+00  0.1200E+00
     18.275  0.0000E+00  0.1200E+00
     18.394  0.0000E+00  0.1200E+00
     18.512  0.0000E+00  0.1200E+00
     18.631  0.0000E+00  0.1200E+00
     18.749  0.0000E+00  0.1200E+00
     18.868  0.0000E+00  0.1200E+00
