    4    4  200    1
  0.7857534E+01  0.2466437E-09  0.2466437E-09  0.5968576E-09  0.5000000E-15
  1.000000000000000E-004
  CAR 
 graphite                                
     16    455     12
 
  0.0000000E+00  0.0000000E+00  0.0000000E+00  0.3858025E-03
    1      -14.046403
    2      -13.346655
    3       -3.323299
    4        0.093931
    5        2.771926
    6        2.788744
    7        2.831025
    8        2.846012
    9       11.369614
   10       14.078865
   11       14.085596
   12       14.218821
 
  0.5555556E-01  0.0000000E+00  0.0000000E+00  0.1543210E-02
    1      -13.971976
    2      -13.274988
    3       -3.233131
    4        0.175040
    5        2.475478
    6        2.553553
    7        2.612672
    8        2.685613
    9       11.451459
   10       14.108381
   11       14.269958
   12       14.398887
 
  0.1111111E+00  0.0000000E+00  0.0000000E+00  0.1543210E-02
    1      -13.749052
    2      -13.060246
    3       -2.963261
    4        0.416912
    5        1.633228
    6        1.756610
    7        2.183252
    8        2.281941
    9       11.698343
   10       14.098115
   11       14.356746
   12       15.286168
 
  0.1666667E+00 -0.1387779E-16  0.0000000E+00  0.1543210E-02
    1      -13.378816
    2      -12.703428
    3       -2.515839
    4        0.429043
    5        0.606599
    6        0.814833
    7        1.612493
    8        1.732519
    9       12.109914
   10       13.956611
   11       14.370314
   12       14.720183
 
  0.2222222E+00  0.0000000E+00  0.0000000E+00  0.1543210E-02
    1      -12.863112
    2      -12.206515
    3       -1.895669
    4       -0.976848
    5       -0.742125
    6        1.009601
    7        1.145159
    8        1.358860
    9       12.674483
   10       13.234046
   11       13.713737
   12       14.288157
 
  0.2777778E+00  0.2775558E-16  0.0000000E+00  0.1543210E-02
    1      -12.205144
    2      -11.572406
    3       -2.467648
    4       -2.176872
    5       -1.110856
    6        0.450504
    7        0.596166
    8        2.029711
    9       11.594395
   10       12.964267
   11       13.248962
   12       13.544201
 
  0.3333333E+00  0.0000000E+00  0.0000000E+00  0.1543210E-02
    1      -11.409962
    2      -10.806336
    3       -3.965306
    4       -3.622043
    5       -0.176869
    6       -0.018475
    7        0.134046
    8        2.784804
    9        9.950279
   10       11.579069
   11       13.113774
   12       13.801527
 
  0.3888889E+00  0.2775558E-16  0.0000000E+00  0.1543210E-02
    1      -10.486921
    2       -9.919216
    3       -5.413217
    4       -5.023953
    5       -0.369047
    6       -0.211863
    7        0.873247
    8        3.511618
    9        8.490568
   10       10.225776
   11       12.914178
   12       13.726525
 
  0.4444444E+00  0.0000000E+00  0.0000000E+00  0.1543210E-02
    1       -9.461065
    2       -8.948771
    3       -6.743825
    4       -6.331576
    5       -0.585147
    6       -0.425251
    7        1.946277
    8        3.898481
    9        7.580798
   10        9.023755
   11       12.784501
   12       13.647567
 
  0.5000000E+00  0.0000000E+00  0.0000000E+00  0.7716049E-03
    1       -8.622774
    2       -8.356162
    3       -7.457959
    4       -7.265526
    5       -0.657982
    6       -0.497218
    7        2.595170
    8        3.780179
    9        7.473644
   10        8.378028
   11       12.739895
   12       13.618562
 
  0.5555556E-01  0.5555556E-01  0.0000000E+00  0.7716049E-03
    1      -13.823190
    2      -13.131688
    3       -3.052989
    4        0.336663
    5        1.943882
    6        2.017837
    7        2.305447
    8        2.368367
    9       11.616476
   10       14.205721
   11       14.393503
   12       14.908279
 
  0.1111111E+00  0.5555556E-01  0.0000000E+00  0.1543210E-02
    1      -13.526504
    2      -12.845799
    3       -2.694183
    4        0.656787
    5        0.973402
    6        1.096441
    7        1.748710
    8        1.841879
    9       11.948451
   10       14.262668
   11       14.560861
   12       15.206900
 
  0.1666667E+00  0.5555556E-01  0.0000000E+00  0.1543210E-02
    1      -13.083462
    2      -12.418821
    3       -2.160057
    4       -0.295105
    5       -0.104779
    6        1.110904
    7        1.128567
    8        1.237067
    9       12.444366
   10       13.897365
   11       14.127291
   12       14.601114
 
  0.2222222E+00  0.5555556E-01  0.0000000E+00  0.1543210E-02
    1      -12.496481
    2      -11.853197
    3       -1.720254
    4       -1.466881
    5       -1.456873
    6        0.498214
    7        0.645728
    8        1.738386
    9       12.357725
   10       13.084291
   11       13.515252
   12       13.889488
 
  0.2777778E+00  0.5555556E-01  0.0000000E+00  0.1543210E-02
    1      -11.769628
    2      -11.152845
    3       -3.201062
    4       -2.889671
    5       -0.595630
    6       -0.034025
    7        0.126603
    8        2.458386
    9       10.726752
   10       12.169216
   11       13.524585
   12       13.910073
 
  0.3333333E+00  0.5555556E-01  0.0000000E+00  0.1543210E-02
    1      -10.909752
    2      -10.325434
    3       -4.667110
    4       -4.303926
    5       -0.453816
    6       -0.285059
    7        0.401708
    8        3.222287
    9        9.163166
   10       10.814281
   11       13.331403
   12       14.091067
 
  0.3888889E+00  0.5555556E-01  0.0000000E+00  0.1543210E-02
    1       -9.931082
    2       -9.388411
    3       -6.060703
    4       -5.657143
    5       -0.742401
    6       -0.568969
    7        1.482850
    8        3.839790
    9        7.923563
   10        9.532841
   11       13.165074
   12       14.011055
 
  0.4444444E+00  0.5555556E-01  0.0000000E+00  0.1543210E-02
    1       -8.897654
    2       -8.462069
    3       -7.234290
    4       -6.868374
    5       -0.889281
    6       -0.713570
    7        2.458914
    8        3.915976
    9        7.465236
   10        8.512812
   11       13.077252
   12       13.956845
 
  0.5000000E+00  0.5555556E-01  0.0000000E+00  0.1543210E-02
    1       -8.899174
    2       -8.463330
    3       -7.233014
    4       -6.866557
    5       -0.889739
    6       -0.713973
    7        2.458051
    8        3.916309
    9        7.464088
   10        8.514540
   11       13.077724
   12       13.957322
 
 -0.4444444E+00  0.5555556E-01  0.0000000E+00  0.1543210E-02
    1       -9.932671
    2       -9.389978
    3       -6.058543
    4       -5.654845
    5       -0.743627
    6       -0.570111
    7        1.481572
    8        3.839378
    9        7.922746
   10        9.535433
   11       13.166478
   12       14.012440
 
 -0.3888889E+00  0.5555556E-01  0.0000000E+00  0.1543210E-02
    1      -10.911157
    2      -10.326828
    3       -4.664761
    4       -4.301441
    5       -0.455743
    6       -0.286867
    7        0.400457
    8        3.221354
    9        9.162508
   10       10.817043
   11       13.333677
   12       14.092992
 
 -0.3333333E+00  0.5555556E-01  0.0000000E+00  0.1543210E-02
    1      -11.770819
    2      -11.154027
    3       -3.198726
    4       -2.887173
    5       -0.596756
    6       -0.036412
    7        0.124347
    8        2.457370
    9       10.725533
   10       12.172025
   11       13.527020
   12       13.909800
 
 -0.2777778E+00  0.5555556E-01  0.0000000E+00  0.1543210E-02
    1      -12.497454
    2      -11.854162
    3       -1.718303
    4       -1.464776
    5       -1.457831
    6        0.495936
    7        0.643477
    8        1.737462
    9       12.355434
   10       13.083050
   11       13.518059
   12       13.892969
 
 -0.2222222E+00  0.5555556E-01  0.0000000E+00  0.1543210E-02
    1      -13.084217
    2      -12.419570
    3       -2.160822
    4       -0.294423
    5       -0.104084
    6        1.110025
    7        1.127809
    8        1.235819
    9       12.443232
   10       13.893837
   11       14.130956
   12       14.605927
 
 -0.1666667E+00  0.5555556E-01  0.0000000E+00  0.1543210E-02
    1      -13.527043
    2      -12.846331
    3       -2.694739
    4        0.656229
    5        0.970664
    6        1.093488
    7        1.751921
    8        1.843795
    9       11.947583
   10       14.265380
   11       14.565607
   12       15.202725
 
 -0.1111111E+00  0.5555556E-01  0.0000000E+00  0.1543210E-02
    1      -13.823516
    2      -13.132019
    3       -3.053325
    4        0.336322
    5        1.933357
    6        2.009342
    7        2.315131
    8        2.377468
    9       11.615919
   10       14.206573
   11       14.397351
   12       14.928017
 
 -0.5555556E-01  0.5555556E-01  0.0000000E+00  0.7716049E-03
    1      -13.972083
    2      -13.275094
    3       -3.233243
    4        0.174925
    5        2.462938
    6        2.542256
    7        2.625026
    8        2.697157
    9       11.451265
   10       14.107942
   11       14.271172
   12       14.400367
 
  0.1111111E+00  0.1111111E+00  0.0000000E+00  0.7716049E-03
    1      -13.157033
    2      -12.489714
    3       -2.248398
    4        0.074258
    5        0.183744
    6        1.051362
    7        1.052824
    8        1.133287
    9       12.369069
   10       14.161603
   11       14.673234
   12       14.970899
 
  0.1666667E+00  0.1111111E+00  0.0000000E+00  0.1543210E-02
    1      -12.642716
    2      -11.994094
    3       -1.630769
    4       -1.094994
    5       -0.924136
    6        0.290041
    7        0.410867
    8        1.590921
    9       12.853976
   10       12.954391
   11       13.766329
   12       14.786060
 
  0.2222222E+00  0.1111111E+00  0.0000000E+00  0.1543210E-02
    1      -11.986811
    2      -11.362143
    3       -2.448986
    4       -2.196563
    5       -0.849208
    6       -0.376022
    7       -0.211049
    8        2.257143
    9       11.367411
   10       12.504841
   11       13.686378
   12       14.615235
 
  0.2777778E+00  0.1111111E+00  0.0000000E+00  0.1543210E-02
    1      -11.194849
    2      -10.599538
    3       -3.868555
    4       -3.548778
    5       -0.900309
    6       -0.709950
    7        0.081187
    8        3.010537
    9        9.827945
   10       11.215029
   11       14.285514
   12       14.625990
 
  0.3333333E+00  0.1111111E+00  0.0000000E+00  0.1543210E-02
    1      -10.276529
    2       -9.717312
    3       -5.270493
    4       -4.897371
    5       -1.278357
    6       -1.074425
    7        1.128515
    8        3.746175
    9        8.423084
   10        9.946820
   11       14.133839
   12       14.952278
 
  0.3888889E+00  0.1111111E+00  0.0000000E+00  0.1543210E-02
    1       -9.258379
    2       -8.754758
    3       -6.572874
    4       -6.173025
    5       -1.507042
    6       -1.296339
    7        2.203155
    8        4.153308
    9        7.536173
   10        8.789148
   11       14.005876
   12       14.901742
 
  0.4444444E+00  0.1111111E+00  0.0000000E+00  0.1543210E-02
    1       -8.431988
    2       -8.168910
    3       -7.272816
    4       -7.088728
    5       -1.584023
    6       -1.371403
    7        2.859806
    8        4.032482
    9        7.490059
   10        8.107032
   11       13.961462
   12       14.876580
 
  0.5000000E+00  0.1111111E+00  0.0000000E+00  0.1543210E-02
    1       -9.261652
    2       -8.757882
    3       -6.569022
    4       -6.168739
    5       -1.508494
    6       -1.297685
    7        2.200803
    8        4.153394
    9        7.533178
   10        8.794443
   11       14.007501
   12       14.903380
 
 -0.4444444E+00  0.1111111E+00  0.0000000E+00  0.1543210E-02
    1      -10.279527
    2       -9.720299
    3       -5.266016
    4       -4.892456
    5       -1.281079
    6       -1.076968
    7        1.125976
    8        3.744618
    9        8.421083
   10        9.952699
   11       14.137046
   12       14.954847
 
 -0.3888889E+00  0.1111111E+00  0.0000000E+00  0.1543210E-02
    1      -11.197444
    2      -10.602121
    3       -3.864045
    4       -3.543893
    5       -0.903960
    6       -0.713357
    7        0.078819
    8        3.008474
    9        9.825232
   10       11.221163
   11       14.288841
   12       14.624268
 
 -0.3333333E+00  0.1111111E+00  0.0000000E+00  0.1543210E-02
    1      -11.988973
    2      -11.364293
    3       -2.445292
    4       -2.192450
    5       -0.851282
    6       -0.379471
    7       -0.214403
    8        2.255144
    9       11.362726
   10       12.511141
   11       13.683484
   12       14.621274
 
 -0.2777778E+00  0.1111111E+00  0.0000000E+00  0.1543210E-02
    1      -12.644443
    2      -11.995807
    3       -1.632483
    4       -1.094270
    5       -0.922801
    6        0.289256
    7        0.409792
    8        1.589203
    9       12.846926
   10       12.951899
   11       13.772426
   12       14.794011
 
 -0.2222222E+00  0.1111111E+00  0.0000000E+00  0.1543210E-02
    1      -13.158327
    2      -12.490993
    3       -2.249712
    4        0.067962
    5        0.180078
    6        1.050023
    7        1.057576
    8        1.138591
    9       12.367133
   10       14.153316
   11       14.685248
   12       14.985809
 
 -0.1666667E+00  0.1111111E+00  0.0000000E+00  0.1543210E-02
    1      -13.527365
    2      -12.846649
    3       -2.695071
    4        0.655875
    5        0.961121
    6        1.086333
    7        1.760079
    8        1.853423
    9       11.947104
   10       14.276113
   11       14.574180
   12       15.205028
 
 -0.1111111E+00  0.1111111E+00  0.0000000E+00  0.7716049E-03
    1      -13.749481
    2      -13.060672
    3       -2.963709
    4        0.416452
    5        1.619908
    6        1.744253
    7        2.196744
    8        2.294815
    9       11.697641
   10       14.107457
   11       14.365596
   12       15.290709
 
  0.1666667E+00  0.1666667E+00  0.0000000E+00  0.7716049E-03
    1      -12.059397
    2      -11.432128
    3       -2.007953
    4       -1.862939
    5       -0.934165
    6       -0.620108
    7       -0.513799
    8        2.189207
    9       11.641552
   10       12.590485
   11       13.627893
   12       15.585913
 
  0.2222222E+00  0.1666667E+00  0.0000000E+00  0.1543210E-02
    1      -11.338234
    2      -10.737393
    3       -3.156909
    4       -2.937301
    5       -1.413567
    6       -1.253279
    7       -0.080859
    8        2.899372
    9       10.294353
   10       11.373354
   11       14.446634
   12       15.715427
 
  0.2777778E+00  0.1666667E+00  0.0000000E+00  0.1543210E-02
    1      -10.486791
    2       -9.918599
    3       -4.454754
    4       -4.144817
    5       -1.978374
    6       -1.763485
    7        0.908491
    8        3.666107
    9        8.912675
   10       10.173730
   11       15.324566
   12       15.598460
 
  0.3333333E+00  0.1666667E+00  0.0000000E+00  0.1543210E-02
    1       -9.520327
    2       -8.994748
    3       -5.758690
    4       -5.389248
    5       -2.331030
    6       -2.089702
    7        1.986098
    8        4.320677
    9        7.742934
   10        9.024187
   11       15.329212
   12       16.227459
 
  0.3888889E+00  0.1666667E+00  0.0000000E+00  0.1543210E-02
    1       -8.506201
    2       -8.086085
    3       -6.883257
    4       -6.541932
    5       -2.502133
    6       -2.250620
    7        2.975761
    8        4.423428
    9        7.356804
   10        8.012816
   11       15.240947
   12       16.251350
 
  0.4444444E+00  0.1666667E+00  0.0000000E+00  0.1543210E-02
    1       -8.510740
    2       -8.089559
    3       -6.879503
    4       -6.536391
    5       -2.503057
    6       -2.251455
    7        2.973190
    8        4.424566
    9        7.349316
   10        8.021620
   11       15.241907
   12       16.252279
 
  0.5000000E+00  0.1666667E+00  0.0000000E+00  0.1543210E-02
    1       -9.525206
    2       -8.999463
    3       -5.752482
    4       -5.382378
    5       -2.333658
    6       -2.091968
    7        1.982400
    8        4.319206
    9        7.737756
   10        9.033952
   11       15.332085
   12       16.228358
 
 -0.4444444E+00  0.1666667E+00  0.0000000E+00  0.1543210E-02
    1      -10.490993
    2       -9.922803
    3       -4.448559
    4       -4.137851
    5       -1.981995
    6       -1.766762
    7        0.904865
    8        3.663049
    9        8.907406
   10       10.183977
   11       15.322079
   12       15.599637
 
 -0.3888889E+00  0.1666667E+00  0.0000000E+00  0.1543210E-02
    1      -11.341803
    2      -10.740965
    3       -3.152770
    4       -2.931983
    5       -1.416211
    6       -1.255579
    7       -0.084146
    8        2.896138
    9       10.286668
   10       11.383822
   11       14.441663
   12       15.723241
 
 -0.3333333E+00  0.1666667E+00  0.0000000E+00  0.1543210E-02
    1      -12.062311
    2      -11.435028
    3       -2.010190
    4       -1.861734
    5       -0.936961
    6       -0.618807
    7       -0.510780
    8        2.186311
    9       11.631330
   10       12.599963
   11       13.623825
   12       15.605451
 
 -0.2777778E+00  0.1666667E+00  0.0000000E+00  0.1543210E-02
    1      -12.644978
    2      -11.996341
    3       -1.633015
    4       -1.103450
    5       -0.929583
    6        0.297620
    7        0.419849
    8        1.588558
    9       12.842846
   10       12.951254
   11       13.772967
   12       14.812982
 
 -0.2222222E+00  0.1666667E+00  0.0000000E+00  0.1543210E-02
    1      -13.085074
    2      -12.420421
    3       -2.161694
    4       -0.307158
    5       -0.115418
    6        1.123587
    7        1.126836
    8        1.249746
    9       12.442119
   10       13.886966
   11       14.151187
   12       14.623742
 
 -0.1666667E+00  0.1666667E+00  0.0000000E+00  0.7716049E-03
    1      -13.379782
    2      -12.704385
    3       -2.516833
    4        0.415443
    5        0.593873
    6        0.813780
    7        1.627113
    8        1.746705
    9       12.108519
   10       13.975469
   11       14.387587
   12       14.712111
 
  0.2222222E+00  0.2222222E+00  0.0000000E+00  0.7716049E-03
    1      -10.557100
    2       -9.986248
    3       -3.943913
    4       -3.765798
    5       -2.363290
    6       -2.231260
    7        0.834094
    8        3.635370
    9        9.136052
   10       10.223455
   11       15.333333
   12       16.828812
 
  0.2777778E+00  0.2222222E+00  0.0000000E+00  0.1543210E-02
    1       -9.655268
    2       -9.121199
    3       -4.984354
    4       -4.720941
    5       -3.060288
    6       -2.860773
    7        1.867680
    8        4.392216
    9        7.951857
   10        9.128341
   11       16.302960
   12       16.859570
 
  0.3333333E+00  0.2222222E+00  0.0000000E+00  0.1543210E-02
    1       -8.661624
    2       -8.183509
    3       -6.128899
    4       -5.790289
    5       -3.435849
    6       -3.178711
    7        2.944457
    8        4.893713
    9        7.080396
   10        8.120336
   11       16.667753
   12       17.353435
 
  0.3888889E+00  0.2222222E+00  0.0000000E+00  0.1543210E-02
    1       -7.861907
    2       -7.610067
    3       -6.771689
    4       -6.638617
    5       -3.550704
    6       -3.277973
    7        3.635820
    8        4.761431
    9        7.126403
   10        7.413294
   11       16.622833
   12       17.872255
 
  0.4444444E+00  0.2222222E+00  0.0000000E+00  0.1543210E-02
    1       -8.668172
    2       -8.189885
    3       -6.121836
    4       -5.781641
    5       -3.437652
    6       -3.180183
    7        2.940069
    8        4.893729
    9        7.069937
   10        8.134154
   11       16.669366
   12       17.342733
 
  0.5000000E+00  0.2222222E+00  0.0000000E+00  0.1543210E-02
    1       -9.661273
    2       -9.127258
    3       -4.977775
    4       -4.712581
    5       -3.062611
    6       -2.862382
    7        1.862968
    8        4.388257
    9        7.943486
   10        9.142733
   11       16.294557
   12       16.862438
 
 -0.4444444E+00  0.2222222E+00  0.0000000E+00  0.1543210E-02
    1      -10.562275
    2       -9.991447
    3       -3.942594
    4       -3.760312
    5       -2.363097
    6       -2.228602
    7        0.829644
    8        3.630640
    9        9.126142
   10       10.237304
   11       15.326049
   12       16.849417
 
 -0.3888889E+00  0.2222222E+00  0.0000000E+00  0.1543210E-02
    1      -11.342552
    2      -10.741721
    3       -3.161536
    4       -2.938498
    5       -1.407960
    6       -1.245458
    7       -0.084808
    8        2.894964
    9       10.283101
   10       11.384319
   11       14.440927
   12       15.750732
 
 -0.3333333E+00  0.2222222E+00  0.0000000E+00  0.1543210E-02
    1      -11.990259
    2      -11.365584
    3       -2.457465
    4       -2.203227
    5       -0.852501
    6       -0.365423
    7       -0.199770
    8        2.253437
    9       11.355861
   10       12.511404
   11       13.682406
   12       14.648470
 
 -0.2777778E+00  0.2222222E+00  0.0000000E+00  0.1543210E-02
    1      -12.499062
    2      -11.855763
    3       -1.731660
    4       -1.477225
    5       -1.459413
    6        0.512174
    7        0.659618
    8        1.735531
    9       12.346417
   10       13.081787
   11       13.518046
   12       13.918908
 
 -0.2222222E+00  0.2222222E+00  0.0000000E+00  0.7716049E-03
    1      -12.864829
    2      -12.208220
    3       -1.897394
    4       -0.990092
    5       -0.754609
    6        1.025361
    7        1.160584
    8        1.356929
    9       12.672580
   10       13.223869
   11       13.739061
   12       14.310483
 
  0.2777778E+00  0.2777778E+00  0.0000000E+00  0.7716049E-03
    1       -8.720029
    2       -8.231198
    3       -5.594711
    4       -5.386811
    5       -3.903343
    6       -3.760996
    7        2.921039
    8        5.113564
    9        6.941851
   10        8.173456
   11       17.246070
   12       17.970005
 
  0.3333333E+00  0.2777778E+00  0.0000000E+00  0.1543210E-02
    1       -7.746782
    2       -7.352877
    3       -6.413265
    4       -6.169864
    5       -4.367615
    6       -4.168673
    7        3.935603
    8        5.382847
    9        6.327753
   10        7.417459
   11       17.696855
   12       17.786040
 
  0.3888889E+00  0.2777778E+00  0.0000000E+00  0.1543210E-02
    1       -7.754604
    2       -7.359522
    3       -6.408513
    4       -6.159781
    5       -4.368052
    6       -4.168608
    7        3.931974
    8        5.386076
    9        6.316106
   10        7.428441
   11       17.686462
   12       17.783352
 
  0.4444444E+00  0.2777778E+00  0.0000000E+00  0.1543210E-02
    1       -8.728022
    2       -8.239417
    3       -5.590622
    4       -5.377842
    5       -3.903128
    6       -3.757794
    7        2.915949
    8        5.108277
    9        6.932653
   10        8.189513
   11       17.234311
   12       17.991577
 
  0.5000000E+00  0.2777778E+00  0.0000000E+00  0.1543210E-02
    1       -9.662300
    2       -9.128398
    3       -4.985284
    4       -4.718091
    5       -3.055256
    6       -2.853099
    7        1.862431
    8        4.385130
    9        7.942538
   10        9.143166
   11       16.294365
   12       16.896467
 
 -0.4444444E+00  0.2777778E+00  0.0000000E+00  0.1543210E-02
    1      -10.492744
    2       -9.924636
    3       -4.459367
    4       -4.147496
    5       -1.968675
    6       -1.752802
    7        0.903557
    8        3.659484
    9        8.903041
   10       10.184130
   11       15.327864
   12       15.626231
 
 -0.3888889E+00  0.2777778E+00  0.0000000E+00  0.1543210E-02
    1      -11.199706
    2      -10.604431
    3       -3.876193
    4       -3.555297
    5       -0.887501
    6       -0.696887
    7        0.076862
    8        3.004912
    9        9.818014
   10       11.220326
   11       14.310777
   12       14.635122
 
 -0.3333333E+00  0.2777778E+00  0.0000000E+00  0.1543210E-02
    1      -11.773396
    2      -11.156618
    3       -3.211288
    4       -2.899121
    5       -0.599149
    6       -0.018814
    7        0.141705
    8        2.453936
    9       10.716350
   10       12.170613
   11       13.549604
   12       13.920994
 
 -0.2777778E+00  0.2777778E+00  0.0000000E+00  0.7716049E-03
    1      -12.207829
    2      -11.575084
    3       -2.479969
    4       -2.188543
    5       -1.113445
    6        0.467292
    7        0.612658
    8        2.026505
    9       11.583927
   10       12.963880
   11       13.259383
   12       13.563440
 
  0.3333333E+00  0.3333333E+00  0.0000000E+00  0.7716049E-03
    1       -7.014807
    2       -6.778645
    3       -6.774915
    4       -6.534289
    5       -4.703721
    6       -4.701490
    7        4.582675
    8        5.667723
    9        5.683461
   10        7.146077
   11       17.566322
   12       17.602095
 
  0.3888889E+00  0.3333333E+00  0.0000000E+00  0.1543210E-02
    1       -7.756780
    2       -7.364468
    3       -6.409309
    4       -6.162555
    5       -4.363293
    6       -4.161586
    7        3.933460
    8        5.368722
    9        6.326939
   10        7.430789
   11       17.668496
   12       17.808677
 
  0.4444444E+00  0.3333333E+00  0.0000000E+00  0.1543210E-02
    1       -8.670789
    2       -8.193465
    3       -6.128986
    4       -5.788787
    5       -3.426628
    6       -3.168400
    7        2.940113
    8        4.880745
    9        7.075176
   10        8.134866
   11       16.703785
   12       17.343827
 
  0.5000000E+00  0.3333333E+00  0.0000000E+00  0.1543210E-02
    1       -9.528196
    2       -9.003006
    3       -5.762093
    4       -5.391731
    5       -2.318783
    6       -2.077098
    7        1.981016
    8        4.309641
    9        7.737446
   10        9.033219
   11       15.366371
   12       16.253053
 
 -0.4444444E+00  0.3333333E+00  0.0000000E+00  0.1543210E-02
    1      -10.283051
    2       -9.724028
    3       -5.276723
    4       -4.902813
    5       -1.263831
    6       -1.059889
    7        1.123544
    8        3.737175
    9        8.416757
   10        9.950440
   11       14.169578
   12       14.985478
 
 -0.3888889E+00  0.3333333E+00  0.0000000E+00  0.1543210E-02
    1      -10.914945
    2      -10.330720
    3       -4.675852
    4       -4.312111
    5       -0.437481
    6       -0.268870
    7        0.397341
    8        3.215234
    9        9.155434
   10       10.814105
   11       13.364698
   12       14.122250
 
 -0.3333333E+00  0.3333333E+00  0.0000000E+00  0.7716049E-03
    1      -11.413838
    2      -10.810255
    3       -3.976251
    4       -3.632461
    5       -0.180337
    6       -0.000852
    7        0.151399
    8        2.779598
    9        9.941309
   10       11.577163
   11       13.144054
   12       13.827705
 
  0.3888889E+00  0.3888889E+00  0.0000000E+00  0.7716049E-03
    1       -7.869808
    2       -7.623504
    3       -6.769654
    4       -6.639669
    5       -3.539578
    6       -3.266298
    7        3.638545
    8        4.738589
    9        7.128141
   10        7.423464
   11       16.659566
   12       17.906935
 
  0.4444444E+00  0.3888889E+00  0.0000000E+00  0.1543210E-02
    1       -8.516264
    2       -8.098421
    3       -6.883606
    4       -6.542981
    5       -2.488263
    6       -2.236667
    7        2.974515
    8        4.403443
    9        7.358141
   10        8.019126
   11       15.278273
   12       16.289390
 
  0.5000000E+00  0.3888889E+00  0.0000000E+00  0.1543210E-02
    1       -9.266958
    2       -8.764430
    3       -6.577006
    4       -6.176987
    5       -1.491278
    6       -1.280658
    7        2.199375
    8        4.137303
    9        7.536878
   10        8.790152
   11       14.042125
   12       14.938138
 
 -0.4444444E+00  0.3888889E+00  0.0000000E+00  0.1543210E-02
    1       -9.938019
    2       -9.395774
    3       -6.067445
    4       -5.663669
    5       -0.725141
    6       -0.551890
    7        1.478467
    8        3.827507
    9        7.921455
   10        9.530696
   11       13.199638
   12       14.045429
 
 -0.3888889E+00  0.3888889E+00  0.0000000E+00  0.7716049E-03
    1      -10.492261
    2       -9.924766
    3       -5.422348
    4       -5.032753
    5       -0.350815
    6       -0.193880
    7        0.869243
    8        3.502634
    9        8.485531
   10       10.222277
   11       12.946928
   12       13.758809
 
  0.4444444E+00  0.4444444E+00  0.0000000E+00  0.7716049E-03
    1       -8.440857
    2       -8.183578
    3       -7.272473
    4       -7.092322
    5       -1.567247
    6       -1.354871
    7        2.862311
    8        4.007394
    9        7.501982
   10        8.099106
   11       13.997246
   12       14.912694
 
  0.5000000E+00  0.4444444E+00  0.0000000E+00  0.1543210E-02
    1       -8.906881
    2       -8.474128
    3       -7.236861
    4       -6.872530
    5       -0.871396
    6       -0.695848
    7        2.458278
    8        3.894180
    9        7.473049
   10        8.505667
   11       13.111992
   12       13.991664
 
 -0.4444444E+00  0.4444444E+00  0.0000000E+00  0.7716049E-03
    1       -9.468331
    2       -8.957065
    3       -6.750135
    4       -6.338252
    5       -0.566543
    6       -0.406889
    7        1.943465
    8        3.881707
    9        7.583974
   10        9.017519
   11       12.818321
   12       13.681307
 
  0.5000000E+00  0.5000000E+00  0.0000000E+00  0.3858025E-03
    1       -8.631958
    2       -8.371233
    3       -7.458016
    4       -7.269657
    5       -0.639252
    6       -0.478731
    7        2.597500
    8        3.754491
    9        7.485869
   10        8.366153
   11       12.774036
   12       13.652692
 