    4    4  200    1
  0.8555981E+01  0.2466437E-09  0.2466437E-09  0.6499116E-09  0.5000000E-15
  1.000000000000000E-004
  CAR 
 graphite                                
     16    455     12
 
  0.0000000E+00  0.0000000E+00  0.0000000E+00  0.3858025E-03
    1      -14.705871
    2      -14.323495
    3       -3.680468
    4       -1.375888
    5        1.959285
    6        1.975743
    7        1.985457
    8        2.001092
    9        9.554475
   10       13.291687
   11       13.301517
   12       13.359296
 
  0.5555556E-01 -0.1040834E-16  0.0000000E+00  0.1543210E-02
    1      -14.632027
    2      -14.251273
    3       -3.590818
    4       -1.292874
    5        1.668054
    6        1.703639
    7        1.803588
    8        1.836482
    9        9.641787
   10       13.323482
   11       13.408672
   12       13.626469
 
  0.1111111E+00 -0.2081668E-16  0.0000000E+00  0.1543210E-02
    1      -14.410763
    2      -14.034909
    3       -3.322502
    4       -1.044933
    5        0.838210
    6        0.896427
    7        1.381242
    8        1.426472
    9        9.904532
   10       13.333083
   11       13.473594
   12       14.499992
 
  0.1666667E+00 -0.1387779E-16  0.0000000E+00  0.1543210E-02
    1      -14.043430
    2      -13.675531
    3       -2.878112
    4       -0.636524
    5       -0.351602
    6       -0.265455
    7        0.816380
    8        0.871650
    9       10.342936
   10       13.221928
   11       13.451190
   12       14.087352
 
  0.2222222E+00 -0.4163336E-16  0.0000000E+00  0.1543210E-02
    1      -13.531599
    2      -13.174995
    3       -2.262914
    4       -1.742404
    5       -1.626414
    6       -0.075605
    7        0.217790
    8        0.280647
    9       10.953626
   10       12.637123
   11       13.003365
   12       13.324978
 
  0.2777778E+00  0.5551115E-16  0.0000000E+00  0.1543210E-02
    1      -12.878634
    2      -12.536326
    3       -3.219182
    4       -3.073199
    5       -1.485768
    6       -0.338516
    7       -0.270762
    8        0.621440
    9       11.029333
   10       11.722302
   11       11.904714
   12       12.748123
 
  0.3333333E+00  0.0000000E+00  0.0000000E+00  0.1543210E-02
    1      -12.089646
    2      -11.764588
    3       -4.704107
    4       -4.528962
    5       -0.805437
    6       -0.734274
    7       -0.563729
    8        1.420798
    9        9.397111
   10       10.465759
   11       12.409757
   12       12.653961
 
  0.3888889E+00  0.0000000E+00  0.0000000E+00  0.1543210E-02
    1      -11.174026
    2      -10.870233
    3       -6.141345
    4       -5.939793
    5       -1.154920
    6       -1.081373
    7        0.466272
    8        2.239124
    9        7.896319
   10        9.070643
   11       12.276131
   12       12.724035
 
  0.4444444E+00 -0.8326673E-16  0.0000000E+00  0.1543210E-02
    1      -10.159064
    2       -9.886928
    3       -7.468632
    4       -7.252593
    5       -1.370116
    6       -1.295275
    7        1.502507
    8        2.840546
    9        6.808390
   10        7.859857
   11       12.156307
   12       12.642958
 
  0.5000000E+00 -0.5551115E-16  0.0000000E+00  0.7716049E-03
    1       -9.350976
    2       -9.205725
    3       -8.267570
    4       -8.159228
    5       -1.442882
    6       -1.367243
    7        2.112291
    8        2.925967
    9        6.497922
   10        7.249528
   11       12.114608
   12       12.611819
 
  0.5555556E-01  0.5555556E-01  0.0000000E+00  0.7716049E-03
    1      -14.484359
    2      -14.106847
    3       -3.411620
    4       -1.127246
    5        1.138785
    6        1.173237
    7        1.490598
    8        1.519362
    9        9.817196
   10       13.425424
   11       13.530010
   12       14.117462
 
  0.1111111E+00  0.5555556E-01  0.0000000E+00  0.1543210E-02
    1      -14.189957
    2      -13.818904
    3       -3.055168
    4       -0.798826
    5        0.180304
    6        0.239228
    7        0.943458
    8        0.986682
    9       10.169020
   10       13.504704
   11       13.672872
   12       14.568426
 
  0.1666667E+00  0.5555556E-01  0.0000000E+00  0.1543210E-02
    1      -13.750244
    2      -13.388832
    3       -2.525086
    4       -1.071220
    5       -0.978304
    6       -0.313533
    7        0.315818
    8        0.374926
    9       10.696153
   10       13.279622
   11       13.402942
   12       13.670404
 
  0.2222222E+00  0.5555556E-01  0.0000000E+00  0.1543210E-02
    1      -13.167740
    2      -12.819108
    3       -2.480773
    4       -2.354496
    5       -1.828064
    6       -0.290605
    7       -0.221276
    8        0.317214
    9       11.392891
   10       11.773570
   11       12.499278
   12       13.184231
 
  0.2777778E+00  0.5555556E-01  0.0000000E+00  0.1543210E-02
    1      -12.446523
    2      -12.113660
    3       -3.947320
    4       -3.789775
    5       -0.976363
    6       -0.819041
    7       -0.743332
    8        1.070625
    9       10.167155
   10       11.100025
   11       12.235312
   12       12.945796
 
  0.3333333E+00  0.5555556E-01  0.0000000E+00  0.1543210E-02
    1      -11.593372
    2      -11.279849
    3       -5.401101
    4       -5.214354
    5       -1.236587
    6       -1.156757
    7        0.005713
    8        1.895822
    9        8.597412
   10        9.694525
   11       12.673540
   12       13.040162
 
  0.3888889E+00  0.5555556E-01  0.0000000E+00  0.1543210E-02
    1      -10.623355
    2      -10.333952
    3       -6.785822
    4       -6.575825
    5       -1.523822
    6       -1.441524
    7        1.059980
    8        2.653909
    9        7.263466
   10        8.382526
   11       12.530442
   12       13.009023
 
  0.4444444E+00  0.5555556E-01  0.0000000E+00  0.1543210E-02
    1       -9.607104
    2       -9.375231
    3       -7.978049
    4       -7.783673
    5       -1.670214
    6       -1.586630
    7        1.990164
    8        2.998101
    9        6.555374
   10        7.383240
   11       12.448680
   12       12.951565
 
  0.5000000E+00  0.5555556E-01  0.0000000E+00  0.1543210E-02
    1       -9.608584
    2       -9.376526
    3       -7.976568
    4       -7.781940
    5       -1.670623
    6       -1.587022
    7        1.989342
    8        2.998117
    9        6.555044
   10        7.384377
   11       12.449148
   12       12.952040
 
 -0.4444444E+00  0.5555556E-01  0.0000000E+00  0.1543210E-02
    1      -10.624940
    2      -10.335524
    3       -6.783632
    4       -6.573572
    5       -1.525017
    6       -1.442676
    7        1.058721
    8        2.653188
    9        7.263571
   10        8.384341
   11       12.531835
   12       13.010375
 
 -0.3888889E+00  0.5555556E-01  0.0000000E+00  0.1543210E-02
    1      -11.594773
    2      -11.281245
    3       -5.398729
    4       -5.211919
    5       -1.238466
    6       -1.158575
    7        0.004459
    8        1.894790
    9        8.597518
   10        9.696385
   11       12.675692
   12       13.041012
 
 -0.3333333E+00  0.5555556E-01  0.0000000E+00  0.1543210E-02
    1      -12.447693
    2      -12.114837
    3       -3.944953
    4       -3.787341
    5       -0.977499
    6       -0.821370
    7       -0.745487
    8        1.069589
    9       10.166725
   10       11.101752
   11       12.233874
   12       12.948659
 
 -0.2777778E+00  0.5555556E-01  0.0000000E+00  0.1543210E-02
    1      -13.168712
    2      -12.820074
    3       -2.478808
    4       -2.352466
    5       -1.829032
    6       -0.292844
    7       -0.223492
    8        0.316295
    9       11.391548
   10       11.772207
   11       12.500793
   12       13.187832
 
 -0.2222222E+00  0.5555556E-01  0.0000000E+00  0.1543210E-02
    1      -13.750998
    2      -13.389581
    3       -2.525860
    4       -1.070559
    5       -0.977658
    6       -0.314280
    7        0.314881
    8        0.373822
    9       10.695076
   10       13.277309
   11       13.406777
   12       13.674847
 
 -0.1666667E+00  0.5555556E-01  0.0000000E+00  0.1543210E-02
    1      -14.190485
    2      -13.819432
    3       -3.055730
    4       -0.799374
    5        0.177493
    6        0.236329
    7        0.946404
    8        0.989007
    9       10.168226
   10       13.507744
   11       13.677148
   12       14.557230
 
 -0.1111111E+00  0.5555556E-01  0.0000000E+00  0.1543210E-02
    1      -14.484685
    2      -14.107177
    3       -3.411960
    4       -1.127580
    5        1.128514
    6        1.163871
    7        1.500452
    8        1.528927
    9        9.816698
   10       13.426996
   11       13.533172
   12       14.126870
 
 -0.5555556E-01  0.5555556E-01  0.0000000E+00  0.7716049E-03
    1      -14.632126
    2      -14.251377
    3       -3.590927
    4       -1.292968
    5        1.655723
    6        1.691868
    7        1.815902
    8        1.848411
    9        9.641618
   10       13.324775
   11       13.409539
   12       13.675593
 
  0.1111111E+00  0.1111111E+00  0.0000000E+00  0.7716049E-03
    1      -13.823209
    2      -13.460267
    3       -2.612801
    4       -0.719221
    5       -0.666467
    6       -0.393198
    7        0.242407
    8        0.280428
    9       10.611323
   10       13.532207
   11       13.918213
   12       14.094735
 
  0.1666667E+00  0.1111111E+00  0.0000000E+00  0.1543210E-02
    1      -13.312822
    2      -12.961016
    3       -2.000241
    4       -1.873548
    5       -1.789343
    6       -0.508478
    7       -0.450486
    8        0.163559
    9       11.228371
   10       12.247555
   11       12.800586
   12       14.063430
 
  0.2222222E+00  0.1111111E+00  0.0000000E+00  0.1543210E-02
    1      -12.661935
    2      -12.324434
    3       -3.208558
    4       -3.082089
    5       -1.226504
    6       -1.161083
    7       -1.081367
    8        0.856185
    9       10.787100
   10       11.503599
   11       12.013091
   12       13.919446
 
  0.2777778E+00  0.1111111E+00  0.0000000E+00  0.1543210E-02
    1      -11.876154
    2      -11.556135
    3       -4.612420
    4       -4.449580
    5       -1.678007
    6       -1.585713
    7       -0.308108
    8        1.652860
    9        9.262526
   10       10.164891
   11       12.944854
   12       13.711759
 
  0.3333333E+00  0.1111111E+00  0.0000000E+00  0.1543210E-02
    1      -10.965474
    2      -10.666581
    3       -6.002022
    4       -5.809347
    5       -2.052039
    6       -1.952932
    7        0.719540
    8        2.475628
    9        7.826093
   10        8.851470
   11       13.478927
   12       13.887191
 
  0.3888889E+00  0.1111111E+00  0.0000000E+00  0.1543210E-02
    1       -9.958304
    2       -9.691066
    3       -7.300225
    4       -7.091204
    5       -2.278866
    6       -2.176264
    7        1.759025
    8        3.094608
    9        6.765863
   10        7.681154
   11       13.369399
   12       13.897931
 
  0.4444444E+00  0.1111111E+00  0.0000000E+00  0.1543210E-02
    1       -9.161883
    2       -9.018939
    3       -8.083227
    4       -7.979516
    5       -2.355405
    6       -2.251711
    7        2.378728
    8        3.184928
    9        6.488880
   10        7.051946
   11       13.328115
   12       13.871241
 
  0.5000000E+00  0.1111111E+00  0.0000000E+00  0.1543210E-02
    1       -9.961555
    2       -9.694237
    3       -7.296259
    4       -7.087030
    5       -2.280279
    6       -2.177621
    7        1.756729
    8        3.093860
    9        6.765141
   10        7.684721
   11       13.371016
   12       13.899522
 
 -0.4444444E+00  0.1111111E+00  0.0000000E+00  0.1543210E-02
    1      -10.968473
    2      -10.669569
    3       -5.997486
    4       -5.804665
    5       -2.054726
    6       -1.955505
    7        0.717000
    8        2.473723
    9        7.825897
   10        8.855430
   11       13.481990
   12       13.887582
 
 -0.3888889E+00  0.1111111E+00  0.0000000E+00  0.1543210E-02
    1      -11.878746
    2      -11.558717
    3       -4.607852
    4       -4.444836
    5       -1.681555
    6       -1.589125
    7       -0.310498
    8        1.650725
    9        9.261501
   10       10.168759
   11       12.941513
   12       13.716188
 
 -0.3333333E+00  0.1111111E+00  0.0000000E+00  0.1543210E-02
    1      -12.664101
    2      -12.326599
    3       -3.204818
    4       -3.078182
    5       -1.228611
    6       -1.164612
    7       -1.084669
    8        0.854195
    9       10.784290
   10       11.507206
   11       12.010129
   12       13.925696
 
 -0.2777778E+00  0.1111111E+00  0.0000000E+00  0.1543210E-02
    1      -13.314548
    2      -12.962730
    3       -2.001978
    4       -1.872738
    5       -1.788268
    6       -0.509254
    7       -0.451376
    8        0.161874
    9       11.225974
   10       12.242606
   11       12.803706
   12       14.071870
 
 -0.2222222E+00  0.1111111E+00  0.0000000E+00  0.1543210E-02
    1      -13.824500
    2      -13.461547
    3       -2.614132
    4       -0.725044
    5       -0.671030
    6       -0.394505
    7        0.247499
    8        0.285835
    9       10.609492
   10       13.526060
   11       13.933524
   12       14.105231
 
 -0.1666667E+00  0.1111111E+00  0.0000000E+00  0.1543210E-02
    1      -14.190816
    2      -13.819756
    3       -3.056069
    4       -0.799714
    5        0.168386
    6        0.228317
    7        0.955094
    8        0.998413
    9       10.167769
   10       13.518022
   11       13.686327
   12       14.563585
 
 -0.1111111E+00  0.1111111E+00  0.0000000E+00  0.7716049E-03
    1      -14.411194
    2      -14.035340
    3       -3.322957
    4       -1.045383
    5        0.825008
    6        0.883722
    7        1.394639
    8        1.439571
    9        9.903891
   10       13.342300
   11       13.482588
   12       14.510482
 
  0.1666667E+00  0.1666667E+00  0.0000000E+00  0.7716049E-03
    1      -12.734042
    2      -12.394915
    3       -2.789608
    4       -2.718041
    5       -1.424963
    6       -1.372634
    7       -1.310233
    8        0.783875
    9       11.047335
   10       11.626997
   11       11.933248
   12       14.858529
 
  0.2222222E+00  0.1666667E+00  0.0000000E+00  0.1543210E-02
    1      -12.018475
    2      -11.695112
    3       -3.921678
    4       -3.810934
    5       -2.202937
    6       -2.123127
    7       -0.466897
    8        1.527410
    9        9.715564
   10       10.390878
   11       12.800955
   12       15.027098
 
  0.2777778E+00  0.1666667E+00  0.0000000E+00  0.1543210E-02
    1      -11.173947
    2      -10.869733
    3       -5.199750
    4       -5.041302
    5       -2.750907
    6       -2.643915
    7        0.507326
    8        2.350597
    9        8.337044
   10        9.152938
   11       13.813844
   12       14.869218
 
  0.3333333E+00  0.1666667E+00  0.0000000E+00  0.1543210E-02
    1      -10.216704
    2       -9.937159
    3       -6.491215
    4       -6.299738
    5       -3.095693
    6       -2.975513
    7        1.560062
    8        3.132599
    9        7.097621
   10        7.967408
   11       14.662229
   12       14.974440
 
  0.3888889E+00  0.1666667E+00  0.0000000E+00  0.1543210E-02
    1       -9.219451
    2       -8.996270
    3       -7.631951
    4       -7.451181
    5       -3.263907
    6       -3.138630
    7        2.509612
    8        3.514466
    9        6.445219
   10        6.979000
   11       14.600019
   12       15.241140
 
  0.4444444E+00  0.1666667E+00  0.0000000E+00  0.1543210E-02
    1       -9.223874
    2       -9.000164
    3       -7.627596
    4       -7.445960
    5       -3.264800
    6       -3.139470
    7        2.507101
    8        3.514541
    9        6.441963
   10        6.984354
   11       14.600977
   12       15.241991
 
  0.5000000E+00  0.1666667E+00  0.0000000E+00  0.1543210E-02
    1      -10.221457
    2       -9.941886
    3       -6.484873
    4       -6.293080
    5       -3.098211
    6       -2.977890
    7        1.556357
    8        3.130241
    9        7.095905
   10        7.973948
   11       14.664505
   12       14.970453
 
 -0.4444444E+00  0.1666667E+00  0.0000000E+00  0.1543210E-02
    1      -11.178148
    2      -10.873928
    3       -5.193420
    4       -5.034611
    5       -2.754376
    6       -2.647198
    7        0.503650
    8        2.347362
    9        8.334594
   10        9.159537
   11       13.808067
   12       14.873862
 
 -0.3888889E+00  0.1666667E+00  0.0000000E+00  0.1543210E-02
    1      -12.022039
    2      -11.698665
    3       -3.917332
    4       -3.806026
    5       -2.205393
    6       -2.125392
    7       -0.470235
    8        1.524216
    9        9.710710
   10       10.397187
   11       12.796084
   12       15.035252
 
 -0.3333333E+00  0.1666667E+00  0.0000000E+00  0.1543210E-02
    1      -12.736940
    2      -12.397811
    3       -2.791232
    4       -2.717998
    5       -1.423031
    6       -1.369702
    7       -1.313088
    8        0.781063
    9       11.039972
   10       11.632098
   11       11.929292
   12       14.878201
 
 -0.2777778E+00  0.1666667E+00  0.0000000E+00  0.1543210E-02
    1      -13.315081
    2      -12.963263
    3       -2.002527
    4       -1.881470
    5       -1.795794
    6       -0.500311
    7       -0.441605
    8        0.161281
    9       11.225294
   10       12.239040
   11       12.803179
   12       14.090142
 
 -0.2222222E+00  0.1666667E+00  0.0000000E+00  0.1543210E-02
    1      -13.751853
    2      -13.390433
    3       -2.526751
    4       -1.083045
    5       -0.989437
    6       -0.315200
    7        0.328629
    8        0.387756
    9       10.693938
   10       13.271606
   11       13.426522
   12       13.694444
 
 -0.1666667E+00  0.1666667E+00  0.0000000E+00  0.7716049E-03
    1      -14.044393
    2      -13.676490
    3       -2.879122
    4       -0.637539
    5       -0.365060
    6       -0.278482
    7        0.830962
    8        0.886038
    9       10.341587
   10       13.240424
   11       13.468883
   12       14.081287
 
  0.2222222E+00  0.2222222E+00  0.0000000E+00  0.7716049E-03
    1      -11.243698
    2      -10.937995
    3       -4.714372
    4       -4.624394
    5       -3.163548
    6       -3.096297
    7        0.435334
    8        2.305974
    9        8.562972
   10        9.240382
   11       13.739527
   12       16.138603
 
  0.2777778E+00  0.2222222E+00  0.0000000E+00  0.1543210E-02
    1      -10.349807
    2      -10.065552
    3       -5.737232
    4       -5.601765
    5       -3.840739
    6       -3.739170
    7        1.450308
    8        3.135714
    9        7.373378
   10        8.117570
   11       14.803022
   12       16.177908
 
  0.3333333E+00  0.2222222E+00  0.0000000E+00  0.1543210E-02
    1       -9.367364
    2       -9.114602
    3       -6.868312
    4       -6.692203
    5       -4.198263
    6       -4.068027
    7        2.499104
    8        3.828130
    9        6.383807
   10        7.073246
   11       15.886065
   12       16.091995
 
  0.3888889E+00  0.2222222E+00  0.0000000E+00  0.1543210E-02
    1       -8.595692
    2       -8.459947
    3       -7.591374
    4       -7.515218
    5       -4.308278
    6       -4.169878
    7        3.166126
    8        3.944682
    9        6.264907
   10        6.308082
   11       15.964142
   12       16.837121
 
  0.4444444E+00  0.2222222E+00  0.0000000E+00  0.1543210E-02
    1       -9.373895
    2       -9.121180
    3       -6.860894
    4       -6.684038
    5       -4.200067
    6       -4.069531
    7        2.494628
    8        3.826201
    9        6.378755
   10        7.082956
   11       15.879735
   12       16.088330
 
  0.5000000E+00  0.2222222E+00  0.0000000E+00  0.1543210E-02
    1      -10.355821
    2      -10.071574
    3       -5.730267
    4       -5.593917
    5       -3.842741
    6       -3.740818
    7        1.445470
    8        3.131412
    9        7.368865
   10        8.127199
   11       14.794433
   12       16.181388
 
 -0.4444444E+00  0.2222222E+00  0.0000000E+00  0.1543210E-02
    1      -11.248887
    2      -10.943188
    3       -4.712322
    4       -4.620212
    5       -3.162676
    6       -3.094072
    7        0.430756
    8        2.301406
    9        8.556398
   10        9.249013
   11       13.732435
   12       16.159274
 
 -0.3888889E+00  0.2222222E+00  0.0000000E+00  0.1543210E-02
    1      -12.022798
    2      -11.699425
    3       -3.925677
    4       -3.813292
    5       -2.196499
    6       -2.115581
    7       -0.470954
    8        1.523241
    9        9.707303
   10       10.396688
   11       12.795203
   12       15.062230
 
 -0.3333333E+00  0.2222222E+00  0.0000000E+00  0.1543210E-02
    1      -12.665382
    2      -12.327869
    3       -3.216734
    4       -3.089366
    5       -1.229883
    6       -1.150157
    7       -1.070091
    8        0.852693
    9       10.778045
   10       11.505616
   11       12.008609
   12       13.952701
 
 -0.2777778E+00  0.2222222E+00  0.0000000E+00  0.1543210E-02
    1      -13.170314
    2      -12.821673
    3       -2.491950
    4       -2.365164
    5       -1.830664
    6       -0.276544
    7       -0.207251
    8        0.314530
    9       11.389596
   10       11.764300
   11       12.498304
   12       13.213691
 
 -0.2222222E+00  0.2222222E+00  0.0000000E+00  0.7716049E-03
    1      -13.533313
    2      -13.176701
    3       -2.264680
    4       -1.755531
    5       -1.639157
    6       -0.077430
    7        0.233532
    8        0.296234
    9       10.951403
   10       12.628598
   11       13.028434
   12       13.344864
 
  0.2777778E+00  0.2777778E+00  0.0000000E+00  0.7716049E-03
    1       -9.424034
    2       -9.165983
    3       -6.355906
    4       -6.248897
    5       -4.703172
    6       -4.628858
    7        2.483625
    8        3.949245
    9        6.366177
   10        7.125587
   11       15.860887
   12       16.843688
 
  0.3333333E+00  0.2777778E+00  0.0000000E+00  0.1543210E-02
    1       -8.466596
    2       -8.259200
    3       -7.176566
    4       -7.048715
    5       -5.149832
    6       -5.047067
    7        3.483859
    8        4.501475
    9        5.607395
   10        6.264409
   11       16.438550
   12       16.505245
 
  0.3888889E+00  0.2777778E+00  0.0000000E+00  0.1543210E-02
    1       -8.474310
    2       -8.266359
    3       -7.170219
    4       -7.039777
    5       -5.150091
    6       -5.046934
    7        3.479752
    8        4.501817
    9        5.599668
   10        6.274352
   11       16.460745
   12       16.489313
 
  0.4444444E+00  0.2777778E+00  0.0000000E+00  0.1543210E-02
    1       -9.432081
    2       -9.174111
    3       -6.350885
    4       -6.241368
    5       -4.702033
    6       -4.626176
    7        2.478126
    8        3.943584
    9        6.360888
   10        7.137001
   11       15.848945
   12       16.816299
 
  0.5000000E+00  0.2777778E+00  0.0000000E+00  0.1543210E-02
    1      -10.356867
    2      -10.072675
    3       -5.737475
    4       -5.600083
    5       -3.834733
    6       -3.731851
    7        1.444745
    8        3.129325
    9        7.367061
   10        8.126871
   11       14.793415
   12       16.215920
 
 -0.4444444E+00  0.2777778E+00  0.0000000E+00  0.1543210E-02
    1      -11.179915
    2      -10.875729
    3       -5.204055
    4       -5.044635
    5       -2.740799
    6       -2.633304
    7        0.502148
    8        2.344684
    9        8.329813
   10        9.158094
   11       13.806330
   12       14.906999
 
 -0.3888889E+00  0.2777778E+00  0.0000000E+00  0.1543210E-02
    1      -11.881019
    2      -11.561005
    3       -4.619888
    4       -4.456488
    5       -1.665029
    6       -1.572599
    7       -0.312617
    8        1.647800
    9        9.254416
   10       10.165742
   11       12.939659
   12       13.747156
 
 -0.3333333E+00  0.2777778E+00  0.0000000E+00  0.1543210E-02
    1      -12.450292
    2      -12.117424
    3       -3.957435
    4       -3.799497
    5       -0.980016
    6       -0.803778
    7       -0.728116
    8        1.066584
    9       10.158212
   10       11.097741
   11       12.231968
   12       12.978055
 
 -0.2777778E+00  0.2777778E+00  0.0000000E+00  0.7716049E-03
    1      -12.881317
    2      -12.539002
    3       -3.231410
    4       -3.085094
    5       -1.488448
    6       -0.321743
    7       -0.254125
    8        0.618508
    9       11.020151
   10       11.719512
   11       11.901217
   12       12.777297
 
  0.3333333E+00  0.3333333E+00  0.0000000E+00  0.7716049E-03
    1       -7.715750
    2       -7.590445
    3       -7.588078
    4       -7.466900
    5       -5.538651
    6       -5.537449
    7        4.204196
    8        4.925169
    9        4.935636
   10        5.826303
   11       16.234541
   12       16.261728
 
  0.3888889E+00  0.3333333E+00  0.0000000E+00  0.1543210E-02
    1       -8.476870
    2       -8.270298
    3       -7.172156
    4       -7.042558
    5       -5.144655
    6       -5.040332
    7        3.480288
    8        4.490623
    9        5.605688
   10        6.275533
   11       16.434543
   12       16.513892
 
  0.4444444E+00  0.3333333E+00  0.0000000E+00  0.1543210E-02
    1       -9.376656
    2       -9.124283
    3       -6.868261
    4       -6.691368
    5       -4.188715
    6       -4.057816
    7        2.493819
    8        3.818045
    9        6.379943
   10        7.082310
   11       15.885596
   12       16.117400
 
  0.5000000E+00  0.3333333E+00  0.0000000E+00  0.1543210E-02
    1      -10.224638
    2       -9.945271
    3       -6.494534
    4       -6.302590
    5       -3.083252
    6       -2.962884
    7        1.554361
    8        3.123794
    9        7.093097
   10        7.971398
   11       14.693664
   12       14.975477
 
 -0.4444444E+00  0.3333333E+00  0.0000000E+00  0.1543210E-02
    1      -10.972032
    2      -10.673223
    3       -6.008188
    4       -5.815175
    5       -2.037465
    6       -1.938331
    7        0.714143
    8        2.468218
    9        7.820301
   10        8.851047
   11       13.512803
   12       13.908395
 
 -0.3888889E+00  0.3333333E+00  0.0000000E+00  0.1543210E-02
    1      -11.598580
    2      -11.285095
    3       -5.409784
    4       -5.222754
    5       -1.220219
    6       -1.140459
    7        0.001052
    8        1.889855
    9        8.590114
   10        9.691053
   11       12.704812
   12       13.063480
 
 -0.3333333E+00  0.3333333E+00  0.0000000E+00  0.7716049E-03
    1      -12.093529
    2      -11.768486
    3       -4.714989
    4       -4.539570
    5       -0.787824
    6       -0.716791
    7       -0.567397
    8        1.416304
    9        9.388664
   10       10.460978
   11       12.430019
   12       12.671385
 
  0.3888889E+00  0.3888889E+00  0.0000000E+00  0.7716049E-03
    1       -8.604687
    2       -8.471970
    3       -7.590406
    4       -7.515974
    5       -4.296916
    6       -4.158236
    7        3.166678
    8        3.927310
    9        6.264934
   10        6.314698
   11       16.000405
   12       16.867825
 
  0.4444444E+00  0.3888889E+00  0.0000000E+00  0.1543210E-02
    1       -9.229873
    2       -9.007840
    3       -7.632751
    4       -7.452338
    5       -3.249938
    6       -3.124614
    7        2.506554
    8        3.499464
    9        6.446323
   10        6.980006
   11       14.637318
   12       15.278922
 
  0.5000000E+00  0.3888889E+00  0.0000000E+00  0.1543210E-02
    1       -9.967031
    2       -9.700251
    3       -7.304289
    4       -7.095290
    5       -2.263050
    6       -2.160489
    7        1.754115
    8        3.082643
    9        6.764855
   10        7.678669
   11       13.405641
   12       13.934239
 
 -0.4444444E+00  0.3888889E+00  0.0000000E+00  0.1543210E-02
    1      -10.630363
    2      -10.341160
    3       -6.792616
    4       -6.582502
    5       -1.506544
    6       -1.424337
    7        1.054880
    8        2.644548
    9        7.259807
   10        8.377658
   11       12.564948
   12       13.043293
 
 -0.3888889E+00  0.3888889E+00  0.0000000E+00  0.7716049E-03
    1      -11.179405
    2      -10.875703
    3       -6.150475
    4       -5.948747
    5       -1.136693
    6       -1.063273
    7        0.461804
    8        2.232072
    9        7.890334
   10        9.064716
   11       12.308686
   12       12.755915
 
  0.4444444E+00  0.4444444E+00  0.0000000E+00  0.7716049E-03
    1       -9.171791
    2       -9.032090
    3       -8.084015
    4       -7.982591
    5       -2.338693
    6       -2.235079
    7        2.378689
    8        3.166104
    9        6.495521
   10        7.043380
   11       13.363951
   12       13.907401
 
  0.5000000E+00  0.4444444E+00  0.0000000E+00  0.1543210E-02
    1       -9.616733
    2       -9.386217
    3       -7.981315
    4       -7.787746
    5       -1.652268
    6       -1.568784
    7        1.987545
    8        2.981930
    9        6.558949
   10        7.374685
   11       12.483494
   12       12.986454
 
 -0.4444444E+00  0.4444444E+00  0.0000000E+00  0.7716049E-03
    1      -10.166492
    2       -9.894859
    3       -7.475186
    4       -7.259330
    5       -1.351519
    6       -1.276797
    7        1.498474
    8        2.828338
    9        6.807978
   10        7.851953
   11       12.190147
   12       12.676762
 
  0.5000000E+00  0.5000000E+00  0.0000000E+00  0.3858025E-03
    1       -9.361206
    2       -9.219260
    3       -8.268780
    4       -8.162796
    5       -1.424160
    6       -1.348642
    7        2.112003
    8        2.906698
    9        6.504340
   10        7.237752
   11       12.148794
   12       12.646033
 