  12  12   0   0
  0.5969573E+01  0.3990095E-09  0.5292816E-09  0.3391990E-09  0.5000000E-15
  1.000000000000000E-004
  CAR 
 ethylene                                
     14.88982596    -16.27364272  301      0.25598046      1.00000000
    -16.274  0.0000E+00  0.0000E+00
    -16.170  0.0000E+00  0.0000E+00
    -16.066  0.0000E+00  0.0000E+00
    -15.962  0.0000E+00  0.0000E+00
    -15.858  0.0000E+00  0.0000E+00
    -15.754  0.0000E+00  0.0000E+00
    -15.650  0.0000E+00  0.0000E+00
    -15.546  0.0000E+00  0.0000E+00
    -15.443  0.0000E+00  0.0000E+00
    -15.339  0.0000E+00  0.0000E+00
    -15.235  0.0000E+00  0.0000E+00
    -15.131  0.0000E+00  0.0000E+00
    -15.027  0.0000E+00  0.0000E+00
    -14.923  0.0000E+00  0.0000E+00
    -14.819  0.0000E+00  0.0000E+00
    -14.715  0.0000E+00  0.0000E+00
    -14.612  0.0000E+00  0.0000E+00
    -14.508  0.0000E+00  0.0000E+00
    -14.404  0.0000E+00  0.0000E+00
    -14.300  0.0000E+00  0.0000E+00
    -14.196  0.1352E-02  0.4655E-04
    -14.092  0.2681E-02  0.2708E-03
    -13.988  0.3530E-02  0.5923E-03
    -13.884  0.4507E-02  0.1011E-02
    -13.781  0.5413E-02  0.1526E-02
    -13.677  0.6336E-02  0.2136E-02
    -13.573  0.7469E-02  0.2852E-02
    -13.469  0.8846E-02  0.3696E-02
    -13.365  0.1066E-01  0.4702E-02
    -13.261  0.1338E-01  0.5938E-02
    -13.157  0.1851E-01  0.7586E-02
    -13.053  0.2043E-01  0.9589E-02
    -12.950  0.2781E-01  0.1197E-01
    -12.846  0.2880E-01  0.1484E-01
    -12.742  0.3895E-01  0.1812E-01
    -12.638  0.0000E+00  0.2000E-01
    -12.534  0.0000E+00  0.2000E-01
    -12.430  0.0000E+00  0.2000E-01
    -12.326  0.0000E+00  0.2000E-01
    -12.222  0.0000E+00  0.2000E-01
    -12.119  0.0000E+00  0.2000E-01
    -12.015  0.0000E+00  0.2000E-01
    -11.911  0.0000E+00  0.2000E-01
    -11.807  0.0000E+00  0.2000E-01
    -11.703  0.0000E+00  0.2000E-01
    -11.599  0.0000E+00  0.2000E-01
    -11.495  0.0000E+00  0.2000E-01
    -11.391  0.0000E+00  0.2000E-01
    -11.287  0.0000E+00  0.2000E-01
    -11.184  0.0000E+00  0.2000E-01
    -11.080  0.0000E+00  0.2000E-01
    -10.976  0.0000E+00  0.2000E-01
    -10.872  0.0000E+00  0.2000E-01
    -10.768  0.0000E+00  0.2000E-01
    -10.664  0.0000E+00  0.2000E-01
    -10.560  0.0000E+00  0.2000E-01
    -10.456  0.0000E+00  0.2000E-01
    -10.353  0.0000E+00  0.2000E-01
    -10.249  0.0000E+00  0.2000E-01
    -10.145  0.0000E+00  0.2000E-01
    -10.041  0.0000E+00  0.2000E-01
     -9.937  0.0000E+00  0.2000E-01
     -9.833  0.0000E+00  0.2000E-01
     -9.729  0.0000E+00  0.2000E-01
     -9.625  0.0000E+00  0.2000E-01
     -9.522  0.0000E+00  0.2000E-01
     -9.418  0.1290E-02  0.2003E-01
     -9.314  0.3595E-02  0.2031E-01
     -9.210  0.5607E-02  0.2078E-01
     -9.106  0.9223E-02  0.2151E-01
     -9.002  0.1182E-01  0.2260E-01
     -8.898  0.1417E-01  0.2401E-01
     -8.794  0.1438E-01  0.2548E-01
     -8.691  0.1484E-01  0.2699E-01
     -8.587  0.1658E-01  0.2861E-01
     -8.483  0.1973E-01  0.3050E-01
     -8.379  0.2318E-01  0.3272E-01
     -8.275  0.2316E-01  0.3520E-01
     -8.171  0.1892E-01  0.3741E-01
     -8.067  0.9519E-02  0.3901E-01
     -7.963  0.4764E-02  0.3970E-01
     -7.860  0.8566E-03  0.3999E-01
     -7.756  0.0000E+00  0.4000E-01
     -7.652  0.0000E+00  0.4000E-01
     -7.548  0.0000E+00  0.4000E-01
     -7.444  0.0000E+00  0.4000E-01
     -7.340  0.0000E+00  0.4000E-01
     -7.236  0.0000E+00  0.4000E-01
     -7.132  0.0000E+00  0.4000E-01
     -7.028  0.0000E+00  0.4000E-01
     -6.925  0.0000E+00  0.4000E-01
     -6.821  0.0000E+00  0.4000E-01
     -6.717  0.2191E-02  0.4006E-01
     -6.613  0.5777E-02  0.4048E-01
     -6.509  0.8246E-02  0.4123E-01
     -6.405  0.1065E-01  0.4220E-01
     -6.301  0.1287E-01  0.4343E-01
     -6.197  0.1721E-01  0.4492E-01
     -6.094  0.1500E-01  0.4664E-01
     -5.990  0.1404E-01  0.4813E-01
     -5.886  0.1393E-01  0.4958E-01
     -5.782  0.1384E-01  0.5103E-01
     -5.678  0.1755E-01  0.5260E-01
     -5.574  0.1345E-01  0.5430E-01
     -5.470  0.9911E-02  0.5546E-01
     -5.366  0.8789E-02  0.5643E-01
     -5.263  0.8098E-02  0.5731E-01
     -5.159  0.7053E-02  0.5809E-01
     -5.055  0.6670E-02  0.5879E-01
     -4.951  0.7073E-02  0.5953E-01
     -4.847  0.4812E-02  0.6014E-01
     -4.743  0.4190E-02  0.6060E-01
     -4.639  0.6702E-02  0.6115E-01
     -4.535  0.1140E-01  0.6208E-01
     -4.432  0.2191E-01  0.6377E-01
     -4.328  0.3164E-01  0.6656E-01
     -4.224  0.2868E-01  0.6991E-01
     -4.120  0.2290E-01  0.7249E-01
     -4.016  0.2111E-01  0.7477E-01
     -3.912  0.1740E-01  0.7682E-01
     -3.808  0.1201E-01  0.7836E-01
     -3.704  0.1121E-01  0.7954E-01
     -3.600  0.1481E-01  0.8083E-01
     -3.497  0.1381E-01  0.8248E-01
     -3.393  0.8016E-02  0.8355E-01
     -3.289  0.7911E-02  0.8436E-01
     -3.185  0.8514E-02  0.8521E-01
     -3.081  0.1078E-01  0.8620E-01
     -2.977  0.1206E-01  0.8740E-01
     -2.873  0.1414E-01  0.8875E-01
     -2.769  0.1467E-01  0.9025E-01
     -2.666  0.1494E-01  0.9180E-01
     -2.562  0.1377E-01  0.9329E-01
     -2.458  0.9459E-02  0.9448E-01
     -2.354  0.9300E-02  0.9548E-01
     -2.250  0.9364E-02  0.9642E-01
     -2.146  0.7090E-02  0.9726E-01
     -2.042  0.5569E-02  0.9791E-01
     -1.938  0.4478E-02  0.9843E-01
     -1.835  0.3789E-02  0.9885E-01
     -1.731  0.3814E-02  0.9925E-01
     -1.627  0.3596E-02  0.9962E-01
     -1.523  0.3534E-02  0.9999E-01
     -1.419  0.3794E-02  0.1004E+00
     -1.315  0.4194E-02  0.1008E+00
     -1.211  0.3988E-02  0.1012E+00
     -1.107  0.5199E-02  0.1017E+00
     -1.004  0.7740E-02  0.1023E+00
     -0.900  0.1129E-01  0.1033E+00
     -0.796  0.1499E-01  0.1047E+00
     -0.692  0.2153E-01  0.1065E+00
     -0.588  0.2278E-01  0.1089E+00
     -0.484  0.2110E-01  0.1112E+00
     -0.380  0.2533E-01  0.1137E+00
     -0.276  0.1868E-01  0.1161E+00
     -0.173  0.1364E-01  0.1178E+00
     -0.069  0.9902E-02  0.1190E+00
      0.035  0.3684E-02  0.1197E+00
      0.139  0.1221E-02  0.1200E+00
      0.243  0.0000E+00  0.1200E+00
      0.347  0.0000E+00  0.1200E+00
      0.451  0.0000E+00  0.1200E+00
      0.555  0.0000E+00  0.1200E+00
      0.659  0.0000E+00  0.1200E+00
      0.762  0.0000E+00  0.1200E+00
      0.866  0.0000E+00  0.1200E+00
      0.970  0.0000E+00  0.1200E+00
      1.074  0.0000E+00  0.1200E+00
      1.178  0.0000E+00  0.1200E+00
      1.282  0.0000E+00  0.1200E+00
      1.386  0.0000E+00  0.1200E+00
      1.490  0.0000E+00  0.1200E+00
      1.593  0.0000E+00  0.1200E+00
      1.697  0.0000E+00  0.1200E+00
      1.801  0.0000E+00  0.1200E+00
      1.905  0.0000E+00  0.1200E+00
      2.009  0.0000E+00  0.1200E+00
      2.113  0.0000E+00  0.1200E+00
      2.217  0.0000E+00  0.1200E+00
      2.321  0.0000E+00  0.1200E+00
      2.424  0.0000E+00  0.1200E+00
      2.528  0.0000E+00  0.1200E+00
      2.632  0.0000E+00  0.1200E+00
      2.736  0.0000E+00  0.1200E+00
      2.840  0.0000E+00  0.1200E+00
      2.944  0.0000E+00  0.1200E+00
      3.048  0.0000E+00  0.1200E+00
      3.152  0.0000E+00  0.1200E+00
      3.255  0.0000E+00  0.1200E+00
      3.359  0.1959E-02  0.1200E+00
      3.463  0.3191E-02  0.1203E+00
      3.567  0.3749E-02  0.1207E+00
      3.671  0.4262E-02  0.1211E+00
      3.775  0.4583E-02  0.1216E+00
      3.879  0.4975E-02  0.1221E+00
      3.983  0.5498E-02  0.1226E+00
      4.086  0.5940E-02  0.1232E+00
      4.190  0.6874E-02  0.1239E+00
      4.294  0.7111E-02  0.1246E+00
      4.398  0.7222E-02  0.1253E+00
      4.502  0.7358E-02  0.1261E+00
      4.606  0.7589E-02  0.1269E+00
      4.710  0.7775E-02  0.1277E+00
      4.814  0.8013E-02  0.1285E+00
      4.918  0.8260E-02  0.1293E+00
      5.021  0.8585E-02  0.1302E+00
      5.125  0.9068E-02  0.1311E+00
      5.229  0.1017E-01  0.1321E+00
      5.333  0.1149E-01  0.1332E+00
      5.437  0.1227E-01  0.1345E+00
      5.541  0.1246E-01  0.1358E+00
      5.645  0.1227E-01  0.1371E+00
      5.749  0.7813E-02  0.1381E+00
      5.852  0.6227E-02  0.1388E+00
      5.956  0.4867E-02  0.1394E+00
      6.060  0.2590E-02  0.1397E+00
      6.164  0.1394E-02  0.1399E+00
      6.268  0.0000E+00  0.1400E+00
      6.372  0.0000E+00  0.1400E+00
      6.476  0.0000E+00  0.1400E+00
      6.580  0.0000E+00  0.1400E+00
      6.683  0.0000E+00  0.1400E+00
      6.787  0.0000E+00  0.1400E+00
      6.891  0.0000E+00  0.1400E+00
      6.995  0.0000E+00  0.1400E+00
      7.099  0.0000E+00  0.1400E+00
      7.203  0.0000E+00  0.1400E+00
      7.307  0.0000E+00  0.1400E+00
      7.411  0.0000E+00  0.1400E+00
      7.514  0.0000E+00  0.1400E+00
      7.618  0.9978E-04  0.1400E+00
      7.722  0.9886E-03  0.1401E+00
      7.826  0.9649E-02  0.1405E+00
      7.930  0.2005E-01  0.1423E+00
      8.034  0.1726E-01  0.1442E+00
      8.138  0.1904E-01  0.1460E+00
      8.242  0.2172E-01  0.1482E+00
      8.345  0.2202E-01  0.1505E+00
      8.449  0.1956E-01  0.1526E+00
      8.553  0.1561E-01  0.1545E+00
      8.657  0.1213E-01  0.1559E+00
      8.761  0.9000E-02  0.1570E+00
      8.865  0.7776E-02  0.1578E+00
      8.969  0.7016E-02  0.1586E+00
      9.073  0.8065E-02  0.1594E+00
      9.177  0.7905E-02  0.1602E+00
      9.280  0.7908E-02  0.1610E+00
      9.384  0.8489E-02  0.1618E+00
      9.488  0.9091E-02  0.1627E+00
      9.592  0.1034E-01  0.1638E+00
      9.696  0.1116E-01  0.1649E+00
      9.800  0.1194E-01  0.1661E+00
      9.904  0.1270E-01  0.1673E+00
     10.008  0.1398E-01  0.1687E+00
     10.111  0.1435E-01  0.1702E+00
     10.215  0.1495E-01  0.1717E+00
     10.319  0.1417E-01  0.1732E+00
     10.423  0.1475E-01  0.1747E+00
     10.527  0.1287E-01  0.1761E+00
     10.631  0.1226E-01  0.1775E+00
     10.735  0.1130E-01  0.1787E+00
     10.839  0.1190E-01  0.1799E+00
     10.942  0.1324E-01  0.1812E+00
     11.046  0.1621E-01  0.1828E+00
     11.150  0.1190E-01  0.1842E+00
     11.254  0.1091E-01  0.1854E+00
     11.358  0.9712E-02  0.1865E+00
     11.462  0.7949E-02  0.1874E+00
     11.566  0.5820E-02  0.1881E+00
     11.670  0.4324E-02  0.1886E+00
     11.773  0.3198E-02  0.1890E+00
     11.877  0.2368E-02  0.1893E+00
     11.981  0.1714E-02  0.1895E+00
     12.085  0.1336E-02  0.1897E+00
     12.189  0.1014E-02  0.1898E+00
     12.293  0.6780E-03  0.1899E+00
     12.397  0.4602E-03  0.1899E+00
     12.501  0.2766E-03  0.1900E+00
     12.605  0.1434E-03  0.1900E+00
     12.708  0.6719E-04  0.1900E+00
     12.812  0.1323E-04  0.1900E+00
     12.916  0.0000E+00  0.1900E+00
     13.020  0.0000E+00  0.1900E+00
     13.124  0.0000E+00  0.1900E+00
     13.228  0.0000E+00  0.1900E+00
     13.332  0.0000E+00  0.1900E+00
     13.436  0.0000E+00  0.1900E+00
     13.539  0.0000E+00  0.1900E+00
     13.643  0.0000E+00  0.1900E+00
     13.747  0.0000E+00  0.1900E+00
     13.851  0.0000E+00  0.1900E+00
     13.955  0.0000E+00  0.1900E+00
     14.059  0.0000E+00  0.1900E+00
     14.163  0.0000E+00  0.1900E+00
     14.267  0.0000E+00  0.1900E+00
     14.370  0.0000E+00  0.1900E+00
     14.474  0.0000E+00  0.1900E+00
     14.578  0.0000E+00  0.1900E+00
     14.682  0.0000E+00  0.1900E+00
     14.786  0.0000E+00  0.1900E+00
     14.890  0.0000E+00  0.1900E+00
