   12   12  200    1
  0.5969573E+01  0.3990094E-09  0.5292815E-09  0.3391990E-09  0.5000000E-15
  1.000000000000000E-004
  CAR 
 ethylene                                
     24    350     19
 
  0.0000000E+00  0.0000000E+00  0.0000000E+00  0.8680556E-03
    1      -14.273643
    2      -12.732328
    3       -8.550462
    4       -8.194461
    5       -5.041124
    6       -5.030298
    7       -4.908900
    8       -4.579439
    9       -2.892881
   10       -1.154885
   11       -0.604400
   12       -0.179049
   13        3.336332
   14        5.650639
   15        7.588659
   16        8.510637
   17       10.709100
   18       11.264988
   19       11.644312
 
  0.8333333E-01  0.0000000E+00  0.0000000E+00  0.1736111E-02
    1      -14.239024
    2      -12.735427
    3       -8.560412
    4       -8.291037
    5       -5.373154
    6       -4.906628
    7       -4.691091
    8       -4.489849
    9       -2.931462
   10       -1.244996
   11       -0.546023
   12       -0.191001
   13        3.458576
   14        5.713003
   15        7.619483
   16        8.461160
   17       10.564833
   18       11.226358
   19       11.346372
 
  0.1666667E+00  0.0000000E+00  0.0000000E+00  0.1736111E-02
    1      -14.137200
    2      -12.751149
    3       -8.598142
    4       -8.527220
    5       -5.653216
    6       -4.904805
    7       -4.377845
    8       -4.289495
    9       -3.011031
   10       -1.452174
   11       -0.433541
   12       -0.214550
   13        3.798310
   14        5.880643
   15        7.707653
   16        8.349320
   17       10.170701
   18       10.623911
   19       11.156894
 
  0.2500000E+00  0.0000000E+00  0.0000000E+00  0.1736111E-02
    1      -13.974612
    2      -12.797192
    3       -8.794932
    4       -8.679612
    5       -5.823568
    6       -4.940499
    7       -4.122559
    8       -4.103091
    9       -3.033923
   10       -1.710680
   11       -0.328670
   12       -0.229275
   13        4.291678
   14        6.090641
   15        7.838173
   16        8.252035
   17        9.645920
   18       10.041527
   19       10.812323
 
  0.3333333E+00  0.0000000E+00  0.0000000E+00  0.1736111E-02
    1      -13.763089
    2      -12.895420
    3       -9.000869
    4       -8.807484
    5       -5.851575
    6       -5.066812
    7       -3.986491
    8       -3.943625
    9       -2.928411
   10       -1.987416
   11       -0.253576
   12       -0.227258
   13        4.861753
   14        6.231942
   15        7.985598
   16        8.238958
   17        9.135413
   18        9.527604
   19       10.666544
 
  0.4166667E+00  0.0000000E+00  0.0000000E+00  0.1736111E-02
    1      -13.521306
    2      -13.058011
    3       -9.093043
    4       -8.953525
    5       -5.742523
    6       -5.285526
    7       -3.902577
    8       -3.852243
    9       -2.735936
   10       -2.258429
   11       -0.214564
   12       -0.213879
   13        5.425858
   14        6.182021
   15        8.130811
   16        8.313263
   17        8.777968
   18        9.101165
   19       10.764784
 
  0.5000000E+00  0.0000000E+00  0.0000000E+00  0.8680556E-03
    1      -13.275712
    2      -13.275711
    3       -9.066277
    4       -9.066277
    5       -5.534596
    6       -5.534595
    7       -3.846502
    8       -3.846501
    9       -2.508924
   10       -2.508923
   11       -0.204915
   12       -0.204915
   13        5.895667
   14        5.895668
   15        8.274056
   16        8.274057
   17        8.793309
   18        8.793309
   19       11.030882
 
  0.0000000E+00  0.8333333E-01  0.0000000E+00  0.1736111E-02
    1      -14.253764
    2      -12.769511
    3       -8.523349
    4       -8.186713
    5       -5.109166
    6       -5.108912
    7       -4.836173
    8       -4.520821
    9       -2.880082
   10       -1.199362
   11       -0.580010
   12       -0.155478
   13        3.362241
   14        5.583409
   15        7.618424
   16        8.480786
   17       10.712191
   18       11.314994
   19       11.629203
 
  0.8333333E-01  0.8333333E-01  0.0000000E+00  0.3472222E-02
    1      -14.219390
    2      -12.770959
    3       -8.545035
    4       -8.277002
    5       -5.411838
    6       -4.902758
    7       -4.729797
    8       -4.428700
    9       -2.914406
   10       -1.273731
   11       -0.548540
   12       -0.160459
   13        3.482598
   14        5.647332
   15        7.643722
   16        8.439457
   17       10.572748
   18       11.160435
   19       11.388846
 
  0.1666667E+00  0.8333333E-01  0.0000000E+00  0.3472222E-02
    1      -14.118361
    2      -12.781782
    3       -8.638332
    4       -8.473837
    5       -5.665885
    6       -4.881588
    7       -4.444774
    8       -4.235136
    9       -2.984640
   10       -1.460038
   11       -0.485835
   12       -0.166479
   13        3.817705
   14        5.820144
   15        7.714687
   16        8.347754
   17       10.201748
   18       10.582015
   19       11.164006
 
  0.2500000E+00  0.8333333E-01  0.0000000E+00  0.3472222E-02
    1      -13.957262
    2      -12.819945
    3       -8.847205
    4       -8.638513
    5       -5.811921
    6       -4.910719
    7       -4.186680
    8       -4.061176
    9       -3.002296
   10       -1.706086
   11       -0.423851
   12       -0.166349
   13        4.305737
   14        6.040247
   15        7.816733
   16        8.274513
   17        9.690528
   18       10.040264
   19       10.809295
 
  0.3333333E+00  0.8333333E-01  0.0000000E+00  0.3472222E-02
    1      -13.748199
    2      -12.908355
    3       -9.042447
    4       -8.802612
    5       -5.819385
    6       -5.028140
    7       -4.013084
    8       -3.939277
    9       -2.901196
   10       -1.976086
   11       -0.364027
   12       -0.171611
   13        4.870965
   14        6.197714
   15        7.936747
   16        8.273179
   17        9.179093
   18        9.559742
   19       10.680015
 
  0.4166667E+00  0.8333333E-01  0.0000000E+00  0.3472222E-02
    1      -13.510304
    2      -13.061063
    3       -9.130622
    4       -8.971159
    5       -5.697310
    6       -5.238772
    7       -3.914093
    8       -3.861238
    9       -2.715056
   10       -2.243409
   11       -0.302205
   12       -0.196423
   13        5.430284
   14        6.166165
   15        8.079322
   16        8.318718
   17        8.831584
   18        9.151071
   19       10.797680
 
  0.5000000E+00  0.8333333E-01  0.0000000E+00  0.1736111E-02
    1      -13.270580
    2      -13.270580
    3       -9.097187
    4       -9.097187
    5       -5.484907
    6       -5.484905
    7       -3.856507
    8       -3.856506
    9       -2.491536
   10       -2.491535
   11       -0.242772
   12       -0.242772
   13        5.892937
   14        5.892938
   15        8.238816
   16        8.238817
   17        8.855500
   18        8.855500
   19       11.070461
 
  0.0000000E+00  0.1666667E+00  0.0000000E+00  0.1736111E-02
    1      -14.194664
    2      -12.874658
    3       -8.449553
    4       -8.165327
    5       -5.248078
    6       -5.232229
    7       -4.728688
    8       -4.410457
    9       -2.836847
   10       -1.320552
   11       -0.510667
   12       -0.100554
   13        3.439196
   14        5.396893
   15        7.703432
   16        8.406666
   17       10.685939
   18       11.440580
   19       11.476776
 
  0.8333333E-01  0.1666667E+00  0.0000000E+00  0.3472222E-02
    1      -14.161059
    2      -12.871769
    3       -8.501799
    4       -8.241132
    5       -5.494182
    6       -4.981464
    7       -4.699356
    8       -4.332905
    9       -2.860309
   10       -1.365296
   11       -0.527715
   12       -0.097717
   13        3.554295
   14        5.464725
   15        7.710610
   16        8.389539
   17       10.562531
   18       11.014073
   19       11.500390
 
  0.1666667E+00  0.1666667E+00  0.0000000E+00  0.3472222E-02
    1      -14.062468
    2      -12.869523
    3       -8.672773
    4       -8.406606
    5       -5.684368
    6       -4.846989
    7       -4.525005
    8       -4.174061
    9       -2.906863
   10       -1.497518
   11       -0.555090
   12       -0.098274
   13        3.876633
   14        5.650588
   15        7.732244
   16        8.354068
   17       10.280407
   18       10.465079
   19       11.167206
 
  0.2500000E+00  0.1666667E+00  0.0000000E+00  0.3472222E-02
    1      -13.905910
    2      -12.886250
    3       -8.917539
    4       -8.601687
    5       -5.765618
    6       -4.840899
    7       -4.273564
    8       -4.033978
    9       -2.911557
   10       -1.701784
   11       -0.556699
   12       -0.118861
   13        4.349933
   14        5.896934
   15        7.774586
   16        8.330129
   17        9.807989
   18       10.017828
   19       10.800222
 
  0.3333333E+00  0.1666667E+00  0.0000000E+00  0.3472222E-02
    1      -13.704370
    2      -12.947141
    3       -9.123863
    4       -8.820915
    5       -5.720982
    6       -4.929397
    7       -4.075708
    8       -3.941009
    9       -2.821531
   10       -1.946789
   11       -0.519040
   12       -0.170370
   13        4.901500
   14        6.097827
   15        7.858931
   16        8.328937
   17        9.282101
   18        9.628505
   19       10.721909
 
  0.4166667E+00  0.1666667E+00  0.0000000E+00  0.3472222E-02
    1      -13.478331
    2      -13.071241
    3       -9.217660
    4       -9.030749
    5       -5.568735
    6       -5.114589
    7       -3.952456
    8       -3.884801
    9       -2.652291
   10       -2.200182
   11       -0.445981
   12       -0.251942
   13        5.446322
   14        6.118820
   15        8.002624
   16        8.314105
   17        8.948978
   18        9.251971
   19       10.895456
 
  0.5000000E+00  0.1666667E+00  0.0000000E+00  0.1736111E-02
    1      -13.256407
    2      -13.256407
    3       -9.178867
    4       -9.178866
    5       -5.348859
    6       -5.348858
    7       -3.887129
    8       -3.887128
    9       -2.439530
   10       -2.439529
   11       -0.350527
   12       -0.350527
   13        5.886063
   14        5.886063
   15        8.183653
   16        8.183653
   17        8.973800
   18        8.973800
   19       11.186629
 
  0.0000000E+00  0.2500000E+00  0.0000000E+00  0.1736111E-02
    1      -14.098067
    2      -13.031583
    3       -8.348608
    4       -8.136038
    5       -5.392391
    6       -5.357957
    7       -4.620227
    8       -4.317442
    9       -2.750818
   10       -1.496479
   11       -0.407631
   12       -0.045160
   13        3.565200
   14        5.128082
   15        7.829662
   16        8.321694
   17       10.550405
   18       11.302465
   19       11.376682
 
  0.8333333E-01  0.2500000E+00  0.0000000E+00  0.3472222E-02
    1      -14.065778
    2      -13.022975
    3       -8.437739
    4       -8.200194
    5       -5.570751
    6       -5.122992
    7       -4.604092
    8       -4.260784
    9       -2.761663
   10       -1.519299
   11       -0.458073
   12       -0.044730
   13        3.672855
   14        5.200622
   15        7.805123
   16        8.339289
   17       10.438814
   18       10.992582
   19       11.459970
 
  0.1666667E+00  0.2500000E+00  0.0000000E+00  0.3472222E-02
    1      -13.971386
    2      -13.003236
    3       -8.672479
    4       -8.370026
    5       -5.673480
    6       -4.891867
    7       -4.522382
    8       -4.140850
    9       -2.781224
   10       -1.593052
   11       -0.564202
   12       -0.064943
   13        3.977121
   14        5.402662
   15        7.763668
   16        8.367112
   17       10.231941
   18       10.500489
   19       11.120557
 
  0.2500000E+00  0.2500000E+00  0.0000000E+00  0.3472222E-02
    1      -13.822701
    2      -12.990328
    3       -8.958414
    4       -8.612435
    5       -5.667907
    6       -4.786130
    7       -4.344297
    8       -4.030832
    9       -2.771769
   10       -1.727351
   11       -0.650677
   12       -0.128285
   13        4.429387
   14        5.682729
   15        7.757894
   16        8.378287
   17        9.854909
   18       10.079391
   19       10.793690
 
  0.3333333E+00  0.2500000E+00  0.0000000E+00  0.3472222E-02
    1      -13.634176
    2      -13.011231
    3       -9.195142
    4       -8.883591
    5       -5.560710
    6       -4.813434
    7       -4.155110
    8       -3.957871
    9       -2.695184
   10       -1.917303
   11       -0.671520
   12       -0.235800
   13        4.960208
   14        5.942373
   15        7.823752
   16        8.369805
   17        9.352360
   18        9.704970
   19       10.817350
 
  0.4166667E+00  0.2500000E+00  0.0000000E+00  0.3472222E-02
    1      -13.428515
    2      -13.091172
    3       -9.312963
    4       -9.126674
    5       -5.378349
    6       -4.951648
    7       -4.017972
    8       -3.921723
    9       -2.548925
   10       -2.136629
   11       -0.619448
   12       -0.372134
   13        5.479995
   14        6.041942
   15        7.969948
   16        8.318024
   17        9.031253
   18        9.324990
   19       11.066382
 
  0.5000000E+00  0.2500000E+00  0.0000000E+00  0.1736111E-02
    1      -13.236643
    2      -13.236642
    3       -9.284768
    4       -9.284767
    5       -5.158988
    6       -5.158987
    7       -3.939128
    8       -3.939127
    9       -2.355167
   10       -2.355166
   11       -0.510517
   12       -0.510517
   13        5.877965
   14        5.877966
   15        8.163160
   16        8.163161
   17        9.049853
   18        9.049853
   19       11.378114
 
  0.0000000E+00  0.3333333E+00  0.0000000E+00  0.1736111E-02
    1      -13.966947
    2      -13.220325
    3       -8.244938
    4       -8.108467
    5       -5.510195
    6       -5.471566
    7       -4.514367
    8       -4.271845
    9       -2.610625
   10       -1.709698
   11       -0.288017
   12       -0.014920
   13        3.737968
   14        4.819370
   15        7.970961
   16        8.253799
   17       10.370069
   18       10.970025
   19       11.473965
 
  0.8333333E-01  0.3333333E+00  0.0000000E+00  0.3472222E-02
    1      -13.936606
    2      -13.205851
    3       -8.361836
    4       -8.174995
    5       -5.609699
    6       -5.273842
    7       -4.497922
    8       -4.232171
    9       -2.612416
   10       -1.720521
   11       -0.350849
   12       -0.026505
   13        3.837515
   14        4.896404
   15        7.911721
   16        8.295563
   17       10.294063
   18       11.060630
   19       11.191427
 
  0.1666667E+00  0.3333333E+00  0.0000000E+00  0.3472222E-02
    1      -13.848414
    2      -13.167876
    3       -8.637096
    4       -8.377762
    5       -5.612179
    6       -5.023956
    7       -4.441039
    8       -4.142794
    9       -2.613076
   10       -1.754669
   11       -0.498336
   12       -0.081974
   13        4.121887
   14        5.114396
   15        7.827380
   16        8.341759
   17       10.150934
   18       10.693621
   19       10.987204
 
  0.2500000E+00  0.3333333E+00  0.0000000E+00  0.3472222E-02
    1      -13.711353
    2      -13.123015
    3       -8.958012
    4       -8.669511
    5       -5.518943
    6       -4.824223
    7       -4.340291
    8       -4.054009
    9       -2.594921
   10       -1.818761
   11       -0.659985
   12       -0.196051
   13        4.549922
   14        5.428753
   15        7.800352
   16        8.358213
   17        9.819701
   18       10.215837
   19       10.855481
 
  0.3333333E+00  0.3333333E+00  0.0000000E+00  0.3472222E-02
    1      -13.541973
    2      -13.098239
    3       -9.230882
    4       -8.978159
    5       -5.357758
    6       -4.743385
    7       -4.214001
    8       -3.994743
    9       -2.531805
   10       -1.924320
   11       -0.769334
   12       -0.357130
   13        5.053869
   14        5.750526
   15        7.859588
   16        8.362850
   17        9.360665
   18        9.736151
   19       11.033528
 
  0.4166667E+00  0.3333333E+00  0.0000000E+00  0.3472222E-02
    1      -13.365934
    2      -13.123766
    3       -9.385488
    4       -9.236080
    5       -5.158294
    6       -4.799267
    7       -4.095325
    8       -3.976033
    9       -2.411629
   10       -2.074517
   11       -0.780806
   12       -0.535988
   13        5.536387
   14        5.941771
   15        8.002923
   16        8.331845
   17        9.033918
   18        9.315914
   19       11.334936
 
  0.5000000E+00  0.3333333E+00  0.0000000E+00  0.1736111E-02
    1      -13.216388
    2      -13.216388
    3       -9.385243
    4       -9.385242
    5       -4.956240
    6       -4.956239
    7       -4.009992
    8       -4.009991
    9       -2.248662
   10       -2.248661
   11       -0.691991
   12       -0.691991
   13        5.871215
   14        5.871216
   15        8.191650
   16        8.191651
   17        9.034758
   18        9.034758
   19       11.642202
 
  0.0000000E+00  0.4166667E+00  0.0000000E+00  0.1736111E-02
    1      -13.805841
    2      -13.422064
    3       -8.160766
    4       -8.095439
    5       -5.581951
    6       -5.556764
    7       -4.415815
    8       -4.280341
    9       -2.417814
   10       -1.945894
   11       -0.172133
   12       -0.025024
   13        3.955232
   14        4.506404
   15        8.091480
   16        8.209109
   17       10.289916
   18       10.628418
   19       11.663184
 
  0.8333333E-01  0.4166667E+00  0.0000000E+00  0.3472222E-02
    1      -13.778178
    2      -13.402310
    3       -8.284948
    4       -8.180689
    5       -5.595175
    6       -5.413887
    7       -4.396432
    8       -4.251241
    9       -2.416409
   10       -1.950021
   11       -0.231736
   12       -0.053920
   13        4.047347
   14        4.587717
   15        8.024286
   16        8.233895
   17       10.282423
   18       10.745016
   19       11.329612
 
  0.1666667E+00  0.4166667E+00  0.0000000E+00  0.3472222E-02
    1      -13.698495
    2      -13.347720
    3       -8.574477
    4       -8.425871
    5       -5.500485
    6       -5.187046
    7       -4.341334
    8       -4.180817
    9       -2.410989
   10       -1.961826
   11       -0.384085
   12       -0.149923
   13        4.312746
   14        4.820838
   15        7.937413
   16        8.239398
   17       10.221169
   18       10.685862
   19       11.005459
 
  0.2500000E+00  0.4166667E+00  0.0000000E+00  0.3472222E-02
    1      -13.577328
    2      -13.272902
    3       -8.916824
    4       -8.754400
    5       -5.335695
    6       -4.959871
    7       -4.267067
    8       -4.104480
    9       -2.393347
   10       -1.979856
   11       -0.580845
   12       -0.310909
   13        4.715112
   14        5.167099
   15        7.909827
   16        8.241063
   17        9.879115
   18       10.179095
   19       11.107456
 
  0.3333333E+00  0.4166667E+00  0.0000000E+00  0.3472222E-02
    1      -13.433949
    2      -13.203047
    3       -9.221165
    4       -9.080573
    5       -5.140210
    6       -4.788116
    7       -4.200081
    8       -4.053849
    9       -2.345947
   10       -2.006402
   11       -0.765125
   12       -0.511464
   13        5.185604
   14        5.546574
   15        7.965829
   16        8.272044
   17        9.405837
   18        9.660545
   19       11.393633
 
  0.4166667E+00  0.4166667E+00  0.0000000E+00  0.3472222E-02
    1      -13.297233
    2      -13.170458
    3       -9.416176
    4       -9.333304
    5       -4.944836
    6       -4.722541
    7       -4.143901
    8       -4.047097
    9       -2.258202
   10       -2.057215
   11       -0.870091
   12       -0.708847
   13        5.616633
   14        5.829176
   15        8.096172
   16        8.310906
   17        9.028282
   18        9.220933
   19       11.692621
 
  0.5000000E+00  0.4166667E+00  0.0000000E+00  0.1736111E-02
    1      -13.201239
    2      -13.201239
    3       -9.455928
    4       -9.455928
    5       -4.787715
    6       -4.787714
    7       -4.085320
    8       -4.085319
    9       -2.148253
   10       -2.148252
   11       -0.846939
   12       -0.846939
   13        5.866991
   14        5.866991
   15        8.251508
   16        8.251508
   17        8.956692
   18        8.956692
   19       11.931500
 
  0.0000000E+00  0.5000000E+00  0.0000000E+00  0.8680556E-03
    1      -13.621242
    2      -13.621242
    3       -8.110157
    4       -8.110157
    5       -5.597237
    6       -5.597236
    7       -4.333410
    8       -4.333409
    9       -2.188784
   10       -2.188784
   11       -0.079563
   12       -0.079563
   13        4.213652
   14        4.213653
   15        8.166612
   16        8.166613
   17       10.379275
   18       10.379275
   19       11.876892
 
  0.8333333E-01  0.5000000E+00  0.0000000E+00  0.1736111E-02
    1      -13.597077
    2      -13.597077
    3       -8.220117
    4       -8.220116
    5       -5.526326
    6       -5.526326
    7       -4.310190
    8       -4.310190
    9       -2.188776
   10       -2.188776
   11       -0.126117
   12       -0.126117
   13        4.299770
   14        4.299770
   15        8.137974
   16        8.137974
   17       10.445894
   18       10.445894
   19       11.518060
 
  0.1666667E+00  0.5000000E+00  0.0000000E+00  0.1736111E-02
    1      -13.528522
    2      -13.528521
    3       -8.498096
    4       -8.498095
    5       -5.352494
    6       -5.352493
    7       -4.250037
    8       -4.250037
    9       -2.188004
   10       -2.188004
   11       -0.257748
   12       -0.257748
   13        4.548246
   14        4.548246
   15        8.086415
   16        8.086415
   17       10.428855
   18       10.428855
   19       11.254631
 
  0.2500000E+00  0.5000000E+00  0.0000000E+00  0.1736111E-02
    1      -13.428044
    2      -13.428044
    3       -8.843784
    4       -8.843783
    5       -5.141289
    6       -5.141288
    7       -4.179124
    8       -4.179123
    9       -2.181446
   10       -2.181445
   11       -0.450304
   12       -0.450303
   13        4.923595
   14        4.923596
   15        8.070360
   16        8.070361
   17       10.025824
   18       10.025824
   19       11.469743
 
  0.3333333E+00  0.5000000E+00  0.0000000E+00  0.1736111E-02
    1      -13.317972
    2      -13.317972
    3       -9.167534
    4       -9.167533
    5       -4.938086
    6       -4.938085
    7       -4.129907
    8       -4.129906
    9       -2.159575
   10       -2.159575
   11       -0.663408
   12       -0.663408
   13        5.352879
   14        5.352879
   15        8.119067
   16        8.119067
   17        9.523688
   18        9.523688
   19       11.807844
 
  0.4166667E+00  0.5000000E+00  0.0000000E+00  0.1736111E-02
    1      -13.229814
    2      -13.229813
    3       -9.397639
    4       -9.397638
    5       -4.780123
    6       -4.780123
    7       -4.118398
    8       -4.118397
    9       -2.123993
   10       -2.123993
   11       -0.839845
   12       -0.839845
   13        5.716953
   14        5.716953
   15        8.218429
   16        8.218429
   17        9.098770
   18        9.098770
   19       12.028773
 
  0.5000000E+00  0.5000000E+00  0.0000000E+00  0.8680556E-03
    1      -13.195621
    2      -13.195621
    3       -9.481266
    4       -9.481265
    5       -4.716655
    6       -4.716654
    7       -4.122917
    8       -4.122916
    9       -2.104072
   10       -2.104072
   11       -0.910998
   12       -0.910998
   13        5.865596
   14        5.865596
   15        8.286873
   16        8.286873
   17        8.909015
   18        8.909015
   19       12.082066
 
  0.0000000E+00  0.0000000E+00  0.1250000E+00  0.1736111E-02
    1      -14.166216
    2      -12.704343
    3       -8.463204
    4       -8.140680
    5       -5.508869
    6       -5.317697
    7       -4.669862
    8       -4.495404
    9       -2.871091
   10       -1.368100
   11       -0.676638
   12       -0.170520
   13        3.317546
   14        5.549653
   15        7.888450
   16        8.418128
   17       10.688494
   18       10.784622
   19       11.240397
 
  0.8333333E-01  0.0000000E+00  0.1250000E+00  0.1736111E-02
    1      -14.130673
    2      -12.705461
    3       -8.498648
    4       -8.225103
    5       -5.760583
    6       -5.338137
    7       -4.446207
    8       -4.312564
    9       -2.664149
   10       -1.420363
   11       -0.735206
   12       -0.452106
   13        3.454247
   14        5.620986
   15        7.809282
   16        8.154912
   17       10.608070
   18       10.684314
   19       11.647148
 
  0.1666667E+00  0.0000000E+00  0.1250000E+00  0.1736111E-02
    1      -14.029623
    2      -12.717866
    3       -8.567615
    4       -8.439950
    5       -5.947222
    6       -5.334748
    7       -4.306879
    8       -4.001279
    9       -2.544112
   10       -1.652573
   11       -0.688741
   12       -0.685121
   13        3.747667
   14        5.792158
   15        7.835759
   16        7.980073
   17       10.324278
   18       10.434801
   19       11.676047
 
  0.2500000E+00  0.0000000E+00  0.1250000E+00  0.1736111E-02
    1      -13.869767
    2      -12.759006
    3       -8.685087
    4       -8.680211
    5       -6.028000
    6       -5.317219
    7       -4.201531
    8       -3.760976
    9       -2.494068
   10       -1.994538
   11       -0.804847
   12       -0.578627
   13        4.149571
   14        6.013752
   15        7.925202
   16        7.957579
   17       10.088704
   18       10.108401
   19       11.111468
 
  0.3333333E+00  0.0000000E+00  0.1250000E+00  0.1736111E-02
    1      -13.663407
    2      -12.850029
    3       -8.872782
    4       -8.828760
    5       -5.983061
    6       -5.313052
    7       -4.199253
    8       -3.605765
    9       -2.454794
   10       -2.383458
   11       -0.800235
   12       -0.454003
   13        4.621040
   14        6.194284
   15        7.995515
   16        8.134333
   17        9.752128
   18       10.008163
   19       10.600067
 
  0.4166667E+00  0.0000000E+00  0.1250000E+00  0.1736111E-02
    1      -13.429836
    2      -13.002890
    3       -8.978874
    4       -8.952958
    5       -5.823409
    6       -5.361096
    7       -4.262593
    8       -3.550836
    9       -2.767064
   10       -2.394230
   11       -0.718392
   12       -0.325057
   13        5.118118
   14        6.205245
   15        8.191956
   16        8.308025
   17        9.417313
   18       10.026200
   19       10.256566
 
  0.5000000E+00  0.0000000E+00  0.1250000E+00  0.1736111E-02
    1      -13.209373
    2      -13.195940
    3       -9.080966
    4       -8.920140
    5       -5.584051
    6       -5.469652
    7       -4.331953
    8       -3.619764
    9       -3.085665
   10       -2.311205
   11       -0.603072
   12       -0.195546
   13        5.576486
   14        5.954920
   15        8.471789
   16        8.488495
   17        9.163608
   18        9.744765
   19       10.410348
 
 -0.4166667E+00  0.0000000E+00  0.1250000E+00  0.1736111E-02
    1      -13.443915
    2      -12.992809
    3       -9.088288
    4       -8.806468
    5       -5.586120
    6       -5.321164
    7       -4.413287
    8       -3.789382
    9       -3.314426
   10       -2.194681
   11       -0.492063
   12       -0.067962
   13        5.467159
   14        5.901308
   15        8.709002
   16        8.781926
   17        9.038765
   18        9.444504
   19       10.663138
 
 -0.3333333E+00  0.0000000E+00  0.1250000E+00  0.1736111E-02
    1      -13.676043
    2      -12.845224
    3       -8.974905
    4       -8.664494
    5       -5.634509
    6       -5.126398
    7       -4.540565
    8       -3.924733
    9       -3.503779
   10       -2.033804
   11       -0.417216
   12        0.048919
   13        4.850031
   14        6.007247
   15        8.783851
   16        9.113249
   17        9.191702
   18        9.213598
   19       10.784033
 
 -0.2500000E+00  0.0000000E+00  0.1250000E+00  0.1736111E-02
    1      -13.879772
    2      -12.759083
    3       -8.752408
    4       -8.545376
    5       -5.559768
    6       -5.091605
    7       -4.726536
    8       -3.993240
    9       -3.592703
   10       -1.838762
   11       -0.400206
   12        0.134040
   13        4.227477
   14        5.914024
   15        8.575539
   16        9.056209
   17        9.488511
   18        9.670988
   19       10.876686
 
 -0.1666667E+00  0.0000000E+00  0.1250000E+00  0.1736111E-02
    1      -14.036449
    2      -12.720350
    3       -8.476449
    4       -8.476162
    5       -5.350289
    6       -5.172013
    7       -4.961595
    8       -4.181124
    9       -3.419257
   10       -1.637918
   11       -0.448733
   12        0.149807
   13        3.711740
   14        5.738329
   15        8.308186
   16        8.909867
   17        9.888073
   18       10.239973
   19       10.968872
 
 -0.8333333E-01  0.0000000E+00  0.1250000E+00  0.1736111E-02
    1      -14.134113
    2      -12.707542
    3       -8.453677
    4       -8.239126
    5       -5.263080
    6       -5.235794
    7       -5.029826
    8       -4.390315
    9       -3.139531
   10       -1.466084
   11       -0.553293
   12        0.051355
   13        3.394446
   14        5.594993
   15        8.063334
   16        8.696267
   17       10.370062
   18       10.641013
   19       10.998192
 
  0.0000000E+00  0.8333333E-01  0.1250000E+00  0.3472222E-02
    1      -14.146941
    2      -12.738411
    3       -8.443205
    4       -8.133583
    5       -5.535949
    6       -5.316211
    7       -4.711125
    8       -4.440180
    9       -2.860781
   10       -1.395360
   11       -0.661706
   12       -0.150875
   13        3.341313
   14        5.489929
   15        7.918067
   16        8.407681
   17       10.579458
   18       10.794541