    4    4  200    1
  0.8992511E+01  0.2466437E-09  0.2466437E-09  0.6830703E-09  0.5000000E-15
  1.000000000000000E-004
  CAR 
 graphite                                
     16    215     12
 
  0.0000000E+00  0.0000000E+00  0.0000000E+00  0.8680556E-03
    1      -15.093508
    2      -14.832485
    3       -3.907520
    4       -2.114544
    5        1.508183
    6        1.523663
    7        1.524754
    8        1.539758
    9        8.681476
   10       12.850526
   11       12.860315
   12       12.894847
 
  0.8333333E-01 -0.1387779E-16  0.0000000E+00  0.3472222E-02
    1      -14.928032
    2      -14.669668
    3       -3.706703
    4       -1.925982
    5        0.862448
    6        0.890610
    7        1.169589
    8        1.193142
    9        8.882970
   10       12.903317
   11       12.977072
   12       13.547242
 
  0.1666667E+00 -0.1387779E-16  0.0000000E+00  0.3472222E-02
    1      -14.433393
    2      -14.182962
    3       -3.108734
    4       -1.366706
    5       -0.790415
    6       -0.735941
    7        0.371310
    8        0.405145
    9        9.488869
   10       12.802287
   11       12.963504
   12       13.710127
 
  0.2500000E+00  0.0000000E+00  0.0000000E+00  0.3472222E-02
    1      -13.615490
    2      -13.378104
    3       -2.906050
    4       -2.821405
    5       -2.129437
    6       -0.511954
    7       -0.471697
    8       -0.460549
    9       10.492881
   10       11.497305
   11       12.063697
   12       12.472916
 
  0.3333333E+00 -0.5551115E-16  0.0000000E+00  0.3472222E-02
    1      -12.486634
    2      -12.267193
    3       -5.126419
    4       -5.011829
    5       -1.247215
    6       -1.203307
    7       -0.809024
    8        0.726849
    9        9.070656
   10        9.881274
   11       11.810376
   12       12.137132
 
  0.4166667E+00 -0.2775558E-16  0.0000000E+00  0.3472222E-02
    1      -11.077545
    2      -10.882412
    3       -7.240905
    4       -7.100980
    5       -1.720972
    6       -1.675245
    7        0.728899
    8        1.963803
    9        6.920669
   10        7.822173
   11       11.831083
   12       12.157211
 
  0.5000000E+00  0.0000000E+00  0.0000000E+00  0.1736111E-02
    1       -9.771070
    2       -9.673745
    3       -8.708156
    4       -8.634448
    5       -1.883624
    6       -1.837221
    7        1.804703
    8        2.432041
    9        6.030236
   10        6.662719
   11       11.741429
   12       12.087488
 
  0.8333333E-01  0.8333333E-01  0.0000000E+00  0.1736111E-02
    1      -14.597733
    2      -14.344670
    3       -3.306965
    4       -1.551649
    5       -0.171627
    6       -0.144675
    7        0.493152
    8        0.513031
    9        9.288246
   10       13.182159
   11       13.286441
   12       14.241587
 
  0.1666667E+00  0.8333333E-01  0.0000000E+00  0.3472222E-02
    1      -13.941227
    2      -13.698675
    3       -2.517223
    4       -1.900779
    5       -1.842732
    6       -0.817006
    7       -0.512330
    8       -0.475138
    9       10.098670
   10       12.420890
   11       12.816367
   12       13.271266
 
  0.2500000E+00  0.8333333E-01  0.0000000E+00  0.3472222E-02
    1      -12.967447
    2      -12.740341
    3       -3.994374
    4       -3.900182
    5       -1.405136
    6       -1.362468
    7       -1.355241
    8        0.239502
    9       10.166208
   10       10.786478
   11       11.300390
   12       12.979449
 
  0.3333333E+00  0.8333333E-01  0.0000000E+00  0.3472222E-02
    1      -11.695344
    2      -11.488800
    3       -6.134437
    4       -6.009411
    5       -2.043552
    6       -1.987863
    7        0.091154
    8        1.504275
    9        7.873483
   10        8.696160
   11       12.607600
   12       12.817431
 
  0.4166667E+00  0.8333333E-01  0.0000000E+00  0.3472222E-02
    1      -10.197588
    2      -10.026979
    3       -8.082735
    4       -7.944378
    5       -2.373936
    6       -2.315938
    7        1.587851
    8        2.500010
    9        6.222434
   10        6.937180
   11       12.471786
   12       12.834309
 
  0.5000000E+00  0.8333333E-01  0.0000000E+00  0.3472222E-02
    1      -10.199966
    2      -10.029273
    3       -8.079986
    4       -7.941492
    5       -2.374782
    6       -2.316763
    7        1.586366
    8        2.499542
    9        6.222435
   10        6.939047
   11       12.472777
   12       12.835303
 
 -0.4166667E+00  0.8333333E-01  0.0000000E+00  0.3472222E-02
    1      -11.697523
    2      -11.490950
    3       -6.130957
    4       -6.005876
    5       -2.045916
    6       -1.990177
    7        0.089270
    8        1.502718
    9        7.873956
   10        8.698529
   11       12.609701
   12       12.817128
 
 -0.3333333E+00  0.8333333E-01  0.0000000E+00  0.3472222E-02
    1      -12.969146
    2      -12.742032
    3       -3.991094
    4       -3.896835
    5       -1.408243
    6       -1.364107
    7       -1.358289
    8        0.237977
    9       10.165426
   10       10.788412
   11       11.298109
   12       12.984008
 
 -0.2500000E+00  0.8333333E-01  0.0000000E+00  0.3472222E-02
    1      -13.942441
    2      -13.699879
    3       -2.518452
    4       -1.899948
    5       -1.841887
    6       -0.818190
    7       -0.513369
    8       -0.476295
    9       10.097002
   10       12.417899
   11       12.817621
   12       13.277168
 
 -0.1666667E+00  0.8333333E-01  0.0000000E+00  0.3472222E-02
    1      -14.598459
    2      -14.345390
    3       -3.307725
    4       -1.552387
    5       -0.179747
    6       -0.152146
    7        0.500828
    8        0.520732
    9        9.287213
   10       13.189367
   11       13.294872
   12       14.235263
 
 -0.8333333E-01  0.8333333E-01  0.0000000E+00  0.1736111E-02
    1      -14.928276
    2      -14.669908
    3       -3.706959
    4       -1.926233
    5        0.849517
    6        0.878009
    7        1.182597
    8        1.205943
    9        8.882612
   10       12.907723
   11       12.981729
   12       13.568557
 
  0.1666667E+00  0.1666667E+00  0.0000000E+00  0.1736111E-02
    1      -13.128806
    2      -12.899166
    3       -3.229249
    4       -3.183403
    5       -1.871089
    6       -1.837627
    7       -1.549178
    8        0.073675
    9       10.689130
   10       11.111980
   11       11.112183
   12       14.442883
 
  0.2500000E+00  0.1666667E+00  0.0000000E+00  0.3472222E-02
    1      -12.010391
    2      -11.798598
    3       -4.980128
    4       -4.891313
    5       -2.942283
    6       -2.881123
    7       -0.242819
    8        1.246874
    9        8.679415
   10        9.236608
   11       12.504254
   12       14.568567
 
  0.3333333E+00  0.1666667E+00  0.0000000E+00  0.3472222E-02
    1      -10.620709
    2      -10.433403
    3       -6.910340
    4       -6.784096
    5       -3.528147
    6       -3.450872
    7        1.290922
    8        2.504677
    9        6.739304
   10        7.410303
   11       14.169136
   12       14.372906
 
  0.4166667E+00  0.1666667E+00  0.0000000E+00  0.3472222E-02
    1       -9.346884
    2       -9.253624
    3       -8.306134
    4       -8.241227
    5       -3.716477
    6       -3.635302
    7        2.403136
    8        3.017644
    9        5.939700
   10        6.234133
   11       14.218098
   12       14.706862
 
  0.5000000E+00  0.1666667E+00  0.0000000E+00  0.3472222E-02
    1      -10.625467
    2      -10.438121
    3       -6.904012
    4       -6.777567
    5       -3.530579
    6       -3.453223
    7        1.287264
    8        2.502067
    9        6.738813
   10        7.415581
   11       14.165390
   12       14.372468
 
 -0.4166667E+00  0.1666667E+00  0.0000000E+00  0.3472222E-02
    1      -12.014271
    2      -11.802487
    3       -4.974491
    4       -4.885423
    5       -2.945444
    6       -2.884155
    7       -0.246348
    8        1.243600
    9        8.677013
   10        9.241528
   11       12.498998
   12       14.574756
 
 -0.3333333E+00  0.1666667E+00  0.0000000E+00  0.3472222E-02
    1      -13.131714
    2      -12.902062
    3       -3.230815
    4       -3.183873
    5       -1.868743
    6       -1.834665
    7       -1.552037
    8        0.070898
    9       10.683032
   10       11.108090
   11       11.115421
   12       14.462716
 
 -0.2500000E+00  0.1666667E+00  0.0000000E+00  0.3472222E-02
    1      -13.943159
    2      -13.700597
    3       -2.519207
    4       -1.910981
    5       -1.852288
    6       -0.818957
    7       -0.501233
    8       -0.463792
    9       10.096070
   10       12.413408
   11       12.815985
   12       13.296762
 
 -0.1666667E+00  0.1666667E+00  0.0000000E+00  0.1736111E-02
    1      -14.434357
    2      -14.183920
    3       -3.109747
    4       -1.367706
    5       -0.803971
    6       -0.749217
    7        0.386025
    8        0.419740
    9        9.487548
   10       12.820816
   11       12.981483
   12       13.704524
 
  0.2500000E+00  0.2500000E+00  0.0000000E+00  0.1736111E-02
    1      -10.769907
    2      -10.578982
    3       -6.008312
    4       -5.944102
    5       -4.417131
    6       -4.369436
    7        1.173329
    8        2.481822
    9        7.072110
   10        7.604809
   11       14.042478
   12       16.387088
 
  0.3333333E+00  0.2500000E+00  0.0000000E+00  0.3472222E-02
    1       -9.329183
    2       -9.173546
    3       -7.448868
    4       -7.344716
    5       -5.143989
    6       -5.062567
    7        2.703030
    8        3.618535
    9        5.619575
   10        6.100034
   11       15.760915
   12       15.980022
 
  0.4166667E+00  0.2500000E+00  0.0000000E+00  0.3472222E-02
    1       -9.336412
    2       -9.180607
    3       -7.441386
    4       -7.336357
    5       -5.144881
    6       -5.063343
    7        2.698519
    8        3.616522
    9        5.615177
   10        6.108924
   11       15.749155
   12       15.994300
 
  0.5000000E+00  0.2500000E+00  0.0000000E+00  0.3472222E-02
    1      -10.776468
    2      -10.585543
    3       -6.004582
    4       -5.938851
    5       -4.415682
    6       -4.367001
    7        1.168037
    8        2.476606
    9        7.067814
   10        7.612685
   11       14.033428
   12       16.403520
 
 -0.4166667E+00  0.2500000E+00  0.0000000E+00  0.3472222E-02
    1      -12.015493
    2      -11.803717
    3       -4.984509
    4       -4.894834
    5       -2.933426
    6       -2.871755
    7       -0.247496
    8        1.242060
    9        8.672695
   10        9.239966
   11       12.497585
   12       14.605861
 
 -0.3333333E+00  0.2500000E+00  0.0000000E+00  0.3472222E-02
    1      -12.971074
    2      -12.743959
    3       -4.003849
    4       -3.909305
    5       -1.391503
    6       -1.366039
    7       -1.341556
    8        0.235828
    9       10.157994
   10       10.784473
   11       11.295856
   12       13.012706
 
 -0.2500000E+00  0.2500000E+00  0.0000000E+00  0.1736111E-02
    1      -13.617658
    2      -13.380262
    3       -2.918873
    4       -2.833999
    5       -2.131653
    6       -0.495554
    7       -0.462825
    8       -0.455388
    9       10.490162
   10       11.488945
   11       12.059552
   12       12.500406
 
  0.3333333E+00  0.3333333E+00  0.0000000E+00  0.1736111E-02
    1       -8.122550
    2       -8.040668
    3       -8.038680
    4       -7.958550
    5       -5.993382
    6       -5.992510
    7        3.951676
    8        4.500963
    9        4.509090
   10        5.164400
   11       15.590902
   12       15.613084
 
  0.4166667E+00  0.3333333E+00  0.0000000E+00  0.3472222E-02
    1       -9.339049
    2       -9.183758
    3       -7.446930
    4       -7.341991
    5       -5.135898
    6       -5.053874
    7        2.697927
    8        3.609187
    9        5.617087
   10        6.108637
   11       15.748022
   12       15.996694
 
  0.5000000E+00  0.3333333E+00  0.0000000E+00  0.3472222E-02
    1      -10.628643
    2      -10.441432
    3       -6.913811
    4       -6.787252
    5       -3.515493
    6       -3.438106
    7        1.285009
    8        2.496680
    9        6.735225
   10        7.412278
   11       14.169671
   12       14.402584
 
 -0.4166667E+00  0.3333333E+00  0.0000000E+00  0.3472222E-02
    1      -11.701218
    2      -11.494701
    3       -6.142024
    4       -6.016787
    5       -2.027890
    6       -1.972221
    7        0.085972
    8        1.498043
    9        7.867108
   10        8.692623
   11       12.633100
   12       12.835894
 
 -0.3333333E+00  0.3333333E+00  0.0000000E+00  0.1736111E-02
    1      -12.490510
    2      -12.271075
    3       -5.137399
    4       -5.022628
    5       -1.229495
    6       -1.185666
    7       -0.812751
    8        0.722601
    9        9.062430
   10        9.875340
   11       11.811679
   12       12.167127
 
  0.4166667E+00  0.4166667E+00  0.0000000E+00  0.1736111E-02
    1       -9.356597
    2       -9.265464
    3       -8.307106
    4       -8.243613
    5       -3.701835
    6       -3.620658
    7        2.402172
    8        3.002339
    9        5.944157
   10        6.229091
   11       14.255234
   12       14.744790
 
  0.5000000E+00  0.4166667E+00  0.0000000E+00  0.3472222E-02
    1      -10.206747
    2      -10.036623
    3       -8.086967
    4       -7.948799
    5       -2.356786
    6       -2.298844
    7        1.583221
    8        2.488092
    9        6.222090
   10        6.930880
   11       12.507445
   12       12.870052
 
 -0.4166667E+00  0.4166667E+00  0.0000000E+00  0.1736111E-02
    1      -11.083828
    2      -10.888827
    3       -7.249093
    4       -7.109111
    5       -1.702426
    6       -1.656781
    7        0.724060
    8        1.955761
    9        6.916062
   10        7.814802
   11       11.864562
   12       12.190522
 
  0.5000000E+00  0.5000000E+00  0.0000000E+00  0.8680556E-03
    1       -9.781528
    2       -9.686419
    3       -8.710207
    4       -8.638054
    5       -1.864801
    6       -1.818476
    7        1.803141
    8        2.415818
    9        6.033612
   10        6.651457
   11       11.775789
   12       12.121882
 
  0.0000000E+00  0.0000000E+00  0.1250000E+00  0.1736111E-02
    1      -15.084117
    2      -14.843006
    3       -3.849721
    4       -2.197961
    5        1.508775
    6        1.523076
    7        1.525328
    8        1.539189
    9        8.862651
   10       12.851833
   11       12.861617
   12       12.894068
 
  0.8333333E-01 -0.1387779E-16  0.1250000E+00  0.6944444E-02
    1      -14.918729
    2      -14.680078
    3       -3.649268
    4       -2.008734
    5        0.863536
    6        0.889497
    7        1.170466
    8        1.192219
    9        9.062746
   10       12.903635
   11       12.974625
   12       13.581075
 
  0.1666667E+00 -0.1387779E-16  0.1250000E+00  0.6944444E-02
    1      -14.424351
    2      -14.193041
    3       -3.052417
    4       -1.447326
    5       -0.788374
    6       -0.738007
    7        0.372624
    8        0.403843
    9        9.663978
   10       12.803049
   11       12.956888
   12       13.724625
 
  0.2500000E+00  0.0000000E+00  0.1250000E+00  0.6944444E-02
    1      -13.606897
    2      -13.387619
    3       -2.902920
    4       -2.824697
    5       -2.075090
    6       -0.537039
    7       -0.510423
    8       -0.473247
    9       10.650861
   10       11.525470
   11       12.034065
   12       12.481132
 
  0.3333333E+00 -0.5551115E-16  0.1250000E+00  0.6944444E-02
    1      -12.478661
    2      -12.275936
    3       -5.122152
    4       -5.016310
    5       -1.245529
    6       -1.204975
    7       -0.758202
    8        0.658016
    9        9.092011
   10        9.842983
   11       11.927396
   12       12.160059
 
  0.4166667E+00 -0.2775558E-16  0.1250000E+00  0.6944444E-02
    1      -11.070410
    2      -10.890164
    3       -7.235754
    4       -7.106507
    5       -1.719282
    6       -1.676975
    7        0.772491
    8        1.913226
    9        6.940703
   10        7.775364
   11       11.843696
   12       12.145070
 
  0.5000000E+00  0.0000000E+00  0.1250000E+00  0.3472222E-02
    1       -9.766870
    2       -9.676824
    3       -8.706493
    4       -8.638238
    5       -1.881825
    6       -1.839020
    7        1.834507
    8        2.417403
    9        6.028197
   10        6.615626
   11       11.754078
   12       12.073955
 
  0.8333333E-01  0.8333333E-01  0.1250000E+00  0.3472222E-02
    1      -14.588607
    2      -14.354859
    3       -3.250267
    4       -1.633008
    5       -0.170547
    6       -0.145662
    7        0.493837
    8        0.512186
    9        9.465153
   10       13.179371
   11       13.282834
   12       14.333561
 
  0.1666667E+00  0.8333333E-01  0.1250000E+00  0.6944444E-02
    1      -13.932458
    2      -13.708394
    3       -2.462118
    4       -1.898561
    5       -1.844900
    6       -0.895256
    7       -0.510948
    8       -0.476575
    9       10.268551
   10       12.434015
   11       12.795372
   12       13.276838
 
  0.2500000E+00  0.8333333E-01  0.1250000E+00  0.6944444E-02
    1      -12.959206
    2      -12.749427
    3       -3.990870
    4       -3.903851
    5       -1.403297
    6       -1.357176
    7       -1.309956
    8        0.166751
    9       10.181453
   10       10.758907
   11       11.466212
   12       12.988455
 
  0.3333333E+00  0.8333333E-01  0.1250000E+00  0.6944444E-02
    1      -11.687804
    2      -11.497004
    3       -6.129825
    4       -6.014314
    5       -2.041478
    6       -1.989981
    7        0.138812
    8        1.442568
    9        7.896297
   10        8.657816
   11       12.636822
   12       12.857886
 
  0.4166667E+00  0.8333333E-01  0.1250000E+00  0.6944444E-02
    1      -10.191272
    2      -10.033635
    3       -8.077769
    4       -7.949938
    5       -2.371803
    6       -2.318164
    7        1.624184
    8        2.469362
    9        6.229967
   10        6.893930
   11       12.484915
   12       12.819823
 
  0.5000000E+00  0.8333333E-01  0.1250000E+00  0.6944444E-02
    1      -10.193647
    2      -10.035934
    3       -8.075024
    4       -7.947066
    5       -2.372650
    6       -2.318993
    7        1.622718
    8        2.468841
    9        6.230061
   10        6.895743
   11       12.485886
   12       12.820811
 
 -0.4166667E+00  0.8333333E-01  0.1250000E+00  0.6944444E-02
    1      -11.689978
    2      -11.499169
    3       -6.126351
    4       -6.010785
    5       -2.043848
    6       -1.992295
    7        0.136925
    8        1.440988
    9        7.896859
   10        8.660112
   11       12.639344
   12       12.858390
 
 -0.3333333E+00  0.8333333E-01  0.1250000E+00  0.6944444E-02
    1      -12.960905
    2      -12.751119
    3       -3.987595
    4       -3.900511
    5       -1.406405
    6       -1.360224
    7       -1.311595
    8        0.165215
    9       10.180825
   10       10.760746
   11       11.463847
   12       12.992985
 
 -0.2500000E+00  0.8333333E-01  0.1250000E+00  0.6944444E-02
    1      -13.933669
    2      -13.709603
    3       -2.463351
    4       -1.897750
    5       -1.844055
    6       -0.896443
    7       -0.512004
    8       -0.477730
    9       10.266900
   10       12.431198
   11       12.796554
   12       13.282627
 
 -0.1666667E+00  0.8333333E-01  0.1250000E+00  0.6944444E-02
    1      -14.589332
    2      -14.355579
    3       -3.251026
    4       -1.633747
    5       -0.178645
    6       -0.153159
    7        0.501514
    8        0.519889
    9        9.464121
   10       13.186537
   11       13.291230
   12       14.297011
 
 -0.8333333E-01  0.8333333E-01  0.1250000E+00  0.3472222E-02
    1      -14.918971
    2      -14.680318
    3       -3.649525
    4       -2.008984
    5        0.850625
    6        0.876873
    7        1.183450
    8        1.205023
    9        9.062389
   10       12.908021
   11       12.979295
   12       13.571996
 
  0.1666667E+00  0.1666667E+00  0.1250000E+00  0.3472222E-02
    1      -13.120477
    2      -12.908350
    3       -3.227462
    4       -3.185092
    5       -1.870017
    6       -1.839069
    7       -1.496119
    8       -0.000265
    9       10.704750
   10       11.089951
   11       11.278175
   12       14.442516
 
  0.2500000E+00  0.1666667E+00  0.1250000E+00  0.6944444E-02
    1      -12.002678
    2      -11.807036
    3       -4.976763
    4       -4.894730
    5       -2.940102
    6       -2.883570
    7       -0.193376
    8        1.180383
    9        8.699072
   10        9.214171
   11       12.646222
   12       14.577034
 
  0.3333333E+00  0.1666667E+00  0.1250000E+00  0.6944444E-02
    1      -10.613862
    2      -10.440811
    3       -6.905689
    4       -6.789074
    5       -3.525303
    6       -3.453903
    7        1.333574
    8        2.454704
    9        6.757849
   10        7.379627
   11       14.241319
   12       14.398405
 
  0.4166667E+00  0.1666667E+00  0.1250000E+00  0.6944444E-02
    1       -9.342862
    2       -9.256586
    3       -8.304673
    4       -8.244594
    5       -3.713460
    6       -3.638481
    7        2.432957
    8        3.004376
    9        5.930148
   10        6.207569
   11       14.231884
   12       14.681766
 
  0.5000000E+00  0.1666667E+00  0.1250000E+00  0.6944444E-02
    1      -10.618599
    2      -10.445526
    3       -6.899353
    4       -6.782554
    5       -3.527729
    6       -3.456250
    7        1.329935
    8        2.452016
    9        6.757611
   10        7.384681
   11       14.239068
   12       14.396485
 
 -0.4166667E+00  0.1666667E+00  0.1250000E+00  0.6944444E-02
    1      -12.006555
    2      -11.810908
    3       -4.971113
    4       -4.888844
    5       -2.943243
    6       -2.886602
    7       -0.196898
    8        1.177093
    9        8.696945
   10        9.218778
   11       12.640889
   12       14.583115
 
 -0.3333333E+00  0.1666667E+00  0.1250000E+00  0.6944444E-02
    1      -13.123382
    2      -12.911249
    3       -3.228983
    4       -3.185599
    5       -1.867644
    6       -1.836129
    7       -1.498974
    8       -0.003045
    9       10.698973
   10       11.092675
   11       11.274416
   12       14.462050
 
 -0.2500000E+00  0.1666667E+00  0.1250000E+00  0.6944444E-02
    1      -13.934390
    2      -13.710321
    3       -2.464102
    4       -1.908762
    5       -1.854488
    6       -0.897212
    7       -0.499844
    8       -0.465284
    9       10.265938
   10       12.426956
   11       12.794845
   12       13.302027
 
 -0.1666667E+00  0.1666667E+00  0.1250000E+00  0.3472222E-02
    1      -14.425314
    2      -14.193999
    3       -3.053428
    4       -1.448323
    5       -0.801921
    6       -0.751295
    7        0.387348
    8        0.418448
    9        9.662656
   10       12.821468
   11       12.974844
   12       13.718516
 
  0.2500000E+00  0.2500000E+00  0.1250000E+00  0.3472222E-02
    1      -10.762939
    2      -10.586546
    3       -6.005744
    4       -5.946415
    5       -4.415645
    6       -4.371568
    7        1.217907
    8        2.425451
    9        7.092558
   10        7.583991
   11       14.129373
   12       16.032793
 
  0.3333333E+00  0.2500000E+00  0.1250000E+00  0.6944444E-02
    1       -9.323402
    2       -9.179595
    3       -7.445036
    4       -7.348810
    5       -5.141119
    6       -5.065921
    7        2.738861
    8        3.587254
    9        5.631121
   10        6.075252
   11       15.521702
   12       15.754860
 
  0.4166667E+00  0.2500000E+00  0.1250000E+00  0.6944444E-02
    1       -9.330613
    2       -9.186664
    3       -7.437519
    4       -7.340495
    5       -5.142013
    6       -5.066696
    7        2.734369
    8        3.585014
    9        5.627289
   10        6.083701
   11       15.509213
   12       15.764264
 
  0.5000000E+00  0.2500000E+00  0.1250000E+00  0.6944444E-02
    1      -10.769475
    2      -10.593102
    3       -6.001956
    4       -5.941220
    5       -4.414161
    6       -4.369173
    7        1.212615
    8        2.420214
    9        7.088627
   10        7.591354
   11       14.120274
   12       16.042495
 
 -0.4166667E+00  0.2500000E+00  0.1250000E+00  0.6944444E-02
    1      -12.007776
    2      -11.812137
    3       -4.981111
    4       -4.898281
    5       -2.931210
    6       -2.874211
    7       -0.198056
    8        1.175582
    9        8.692635
   10        9.217048
   11       12.639671
   12       14.614026
 
 -0.3333333E+00  0.2500000E+00  0.1250000E+00  0.6944444E-02
    1      -12.962834
    2      -12.753045
    3       -4.000340
    4       -3.912991
    5       -1.389666
    6       -1.343501
    7       -1.313518
    8        0.163083
    9       10.173302
   10       10.756586
   11       11.461969
   12       13.021613
 
 -0.2500000E+00  0.2500000E+00  0.1250000E+00  0.3472222E-02
    1      -13.609064
    2      -13.389777
    3       -2.915742
    4       -2.837301
    5       -2.077314
    6       -0.539311
    7       -0.494026
    8       -0.456932
    9       10.647916
   10       11.517684
   11       12.029852
   12       12.508461
 
  0.3333333E+00  0.3333333E+00  0.1250000E+00  0.3472222E-02
    1       -8.116581
    2       -8.040425
    3       -8.038461
    4       -7.964949
    5       -5.993825
    6       -5.993069
    7        3.992701
    8        4.505209
    9        4.512714
   10        5.111639
   11       15.387458
   12       15.406152
 
  0.4166667E+00  0.3333333E+00  0.1250000E+00  0.6944444E-02
    1       -9.333280
    2       -9.189792
    3       -7.443073
    4       -7.346121
    5       -5.133002
    6       -5.057248
    7        2.733657
    8        3.578148
    9        5.628863
   10        6.083308
   11       15.508636
   12       15.771832
 
  0.5000000E+00  0.3333333E+00  0.1250000E+00  0.6944444E-02
    1      -10.621780
    2      -10.448830
    3       -6.909149
    4       -6.792246
    5       -3.512641
    6       -3.441133
    7        1.327619
    8        2.446843
    9        6.753833
   10        7.381206
   11       14.249262
   12       14.422604
 
 -0.4166667E+00  0.3333333E+00  0.1250000E+00  0.6944444E-02
    1      -11.693677
    2      -11.502903
    3       -6.137404
    4       -6.021701
    5       -2.025816
    6       -1.974336
    7        0.133598
    8        1.436405
    9        7.889878
   10        8.654041
   11       12.666991
   12       12.880439
 
 -0.3333333E+00  0.3333333E+00  0.1250000E+00  0.3472222E-02
    1      -12.482536
    2      -12.279824
    3       -5.133131
    4       -5.027116
    5       -1.227814
    6       -1.187332
    7       -0.761939
    8        0.653804
    9        9.083713
   10        9.836877
   11       11.933778
   12       12.188370
 
  0.4166667E+00  0.4166667E+00  0.1250000E+00  0.3472222E-02
    1       -9.352649
    2       -9.268343
    3       -8.305704
    4       -8.246937
    5       -3.698817
    6       -3.623837
    7        2.431651
    8        2.989784
    9        5.933961
   10        6.202560
   11       14.269034
   12       14.719348
 
  0.5000000E+00  0.4166667E+00  0.1250000E+00  0.6944444E-02
    1      -10.200440
    2      -10.043256
    3       -8.082009
    4       -7.954365
    5       -2.354653
    6       -2.301065
    7        1.619398
    8        2.457876
    9        6.229125
   10        6.887628
   11       12.520571
   12       12.855564
 
 -0.4166667E+00  0.4166667E+00  0.1250000E+00  0.3472222E-02
    1      -11.076697
    2      -10.896573
    3       -7.243941
    4       -7.114642
    5       -1.700740
    6       -1.658507
    7        0.767587
    8        1.905397
    9        6.935784
   10        7.767952
   11       11.877211
   12       12.178423
 
  0.5000000E+00  0.5000000E+00  0.1250000E+00  0.1736111E-02
    1       -9.777405
    2       -9.689407
    3       -8.708612
    4       -8.641793
    5       -1.863005
    6       -1.820273
    7        1.832586
    8        2.401916
    9        6.030738
   10        6.604625
   11       11.788437
   12       12.108331
 
  0.0000000E+00  0.0000000E+00  0.2500000E+00  0.1736111E-02
    1      -15.057155
    2      -14.872700
    3       -3.681857
    4       -2.426224
    5        1.510485
    6        1.521407
    7        1.526987
    8        1.537572
    9        9.382319
   10       12.856111
   11       12.876740
   12       12.888091
 
  0.8333333E-01 -0.1387779E-16  0.2500000E+00  0.6944444E-02
    1      -14.892021
    2      -14.709446
    3       -3.482489
    4       -2.235217
    5        0.866508
    6        0.886418
    7        1.173023
    8        1.189664
    9        9.578368
   10       12.896653
   11       12.967669
   12       13.560571
 
  0.1666667E+00 -0.1387779E-16  0.2500000E+00  0.6944444E-02
    1      -14.398419
    2      -14.221456
    3       -2.888831
    4       -1.668194
    5       -0.782406
    6       -0.743937
    7        0.376305
    8        0.400173
    9       10.165732
   10       12.799816
   11       12.939244
   12       13.752662
 
  0.2500000E+00  0.0000000E+00  0.2500000E+00  0.6944444E-02
    1      -13.582247
    2      -13.414482
    3       -2.893923
    4       -2.834058
    5       -1.917402
    6       -0.747119
    7       -0.506061
    8       -0.477636
    9       11.079616
   10       11.627103
   11       11.953299
   12       12.502237
 
  0.3333333E+00 -0.5551115E-16  0.2500000E+00  0.6944444E-02
    1      -12.455788
    2      -12.300675
    3       -5.110006
    4       -5.029002
    5       -1.240839
    6       -1.209776
    7       -0.611043
    8        0.467906
    9        9.159195
   10        9.737237
   11       12.098329
   12       12.239717
 