32   
4    

1    
  0.0033961941722186  -0.0000013213933994   0.0094056293462218
  -0.2168772200    0.0090343600   -0.1321477400
   0.0306915100    0.0081058100   -0.0030476000
  -0.0052882800   -0.0126947700   -0.0029764000
  -0.0053956600    0.0290105100   -0.0032057400
  -0.0165763300    0.0076275700    0.0040622700
  -0.0165485000    0.0076286100    0.0040845800
  -0.0165595000    0.0076214400    0.0040845600
  -0.0165587000    0.0076334700    0.0040846900
   0.0142621300   -0.0096305300   -0.0041331800
   0.0140925500   -0.0097163000   -0.0041909700
   0.0142504600   -0.0095244000   -0.0041595400
   0.0140994100   -0.0096365700   -0.0037291200
   0.0140705000   -0.0063112900   -0.0042280500
   0.0142119100   -0.0063834400   -0.0041754100
   0.0142001500   -0.0064769200   -0.0042026800
   0.0140528700   -0.0063985800   -0.0036031200
   0.0045744400   -0.0069253400    0.0118361000
   0.0314782700   -0.0076239100    0.0471510500
   0.0763416600    0.0188703400    0.0475438200
   0.0764621600   -0.0329254900    0.0466834100
   0.0146416200   -0.0066256900   -0.0005772700
   0.0146416300   -0.0066255300   -0.0005644200
   0.0146438400   -0.0066244700   -0.0005658500
   0.0146432000   -0.0066268800   -0.0005600400
  -0.0129270800    0.0086767800    0.0009610000
  -0.0124231000    0.0087641200    0.0009827800
  -0.0127512800    0.0082970000    0.0009815500
  -0.0125965500    0.0085754100    0.0003497600
  -0.0115209800    0.0050696200    0.0009901100
  -0.0118948300    0.0051635500    0.0009514500
  -0.0117926500    0.0054441300    0.0009558100
  -0.0116476500    0.0052274200    0.0003641900

1    
 -0.0033961941722186   0.0000013213933994  -0.0094056293462218
   0.1898369000    0.0084955500    0.1322904100
  -0.0577511800    0.0075819100    0.0031931600
  -0.0216632400    0.0284268400    0.0032623600
  -0.0217693700   -0.0132806000    0.0032116400
  -0.0111745800    0.0081950300   -0.0039198800
  -0.0112017100    0.0081950900   -0.0039436900
  -0.0111914000    0.0082003100   -0.0039437100
  -0.0111910800    0.0081883200   -0.0039438600
   0.0140145900   -0.0101081100    0.0040400600
   0.0141622900   -0.0100269000    0.0040924200
   0.0140210600   -0.0101972100    0.0040640700
   0.0141639500   -0.0100973300    0.0034659100
   0.0138831000   -0.0064175200    0.0040339700
   0.0137257600   -0.0063457900    0.0039753600
   0.0137434400   -0.0062337600    0.0040064900
   0.0138742100   -0.0063125800    0.0035658800
   0.0186083700   -0.0066006300   -0.0118647100
  -0.0082984200   -0.0070845000   -0.0471798000
  -0.0534611500   -0.0326347000   -0.0467746800
  -0.0529798700    0.0191580300   -0.0475069400
   0.0091604000   -0.0069436300    0.0005755600
   0.0091601300   -0.0069442300    0.0005628700
   0.0091591700   -0.0069444800    0.0005614300
   0.0091580800   -0.0069425700    0.0005608400
  -0.0124381500    0.0089636200   -0.0009335300
  -0.0128215100    0.0088786100   -0.0009635200
  -0.0125533800    0.0092398900   -0.0009592600
  -0.0127046900    0.0090316100   -0.0003444900
  -0.0116127000    0.0053284900   -0.0009915300
  -0.0111272300    0.0052378600   -0.0009284700
  -0.0112908500    0.0048531600   -0.0009298800
  -0.0114409300    0.0051402100   -0.0003344700

17   
  0.0033961941722186  -0.0000013213933994   0.0094056293462218
  -0.0215930700    0.0078773100    0.0085986200
   0.0053154700    0.0083722600    0.0439165800
   0.0504691400    0.0338925300    0.0435119000
   0.0500068100   -0.0178890000    0.0442383900
  -0.0114360600    0.0083098700   -0.0038334900
  -0.0114359300    0.0083107200   -0.0038206600
  -0.0114346000    0.0083110700   -0.0038250300
  -0.0114338600    0.0083085900   -0.0038130200
   0.0147978200   -0.0105405700    0.0041644700
   0.0149141700   -0.0104895900    0.0042991800
   0.0148167200   -0.0105591600    0.0042307100
   0.0149258900   -0.0105252400    0.0036151600
   0.0133421000   -0.0060229600    0.0042865800
   0.0132412800   -0.0058837200    0.0041086600
   0.0131758600   -0.0059217700    0.0041860500
   0.0133650800   -0.0059527900    0.0035850500
  -0.1905279700   -0.0076083400   -0.1354029800
   0.0568736400   -0.0067111000   -0.0069740600
   0.0212862700   -0.0272643200   -0.0070408700
   0.0213946700    0.0138846700   -0.0070043900
   0.0092317500   -0.0070240000    0.0006525400
   0.0092292100   -0.0070235000    0.0004944600
   0.0092312500   -0.0070229700    0.0004944800
   0.0092311700   -0.0070256700    0.0004957600
  -0.0136265800    0.0094744200   -0.0003454500
  -0.0133060500    0.0094673400   -0.0002903300
  -0.0134564400    0.0092073600   -0.0003509400
  -0.0134525100    0.0093684800   -0.0005769500
  -0.0106198800    0.0045789200   -0.0002367600
  -0.0109412400    0.0045693300   -0.0004094000
  -0.0107684600    0.0048490000   -0.0003606200
  -0.0108156400    0.0046828200   -0.0005936300

17   
 -0.0033961941722186   0.0000013213933994  -0.0094056293462218
  -0.0054709600    0.0081308000   -0.0084732600
  -0.0323781400    0.0088220400   -0.0437861100
  -0.0772473600   -0.0176615200   -0.0441785700
  -0.0773471300    0.0341204200   -0.0433244600
  -0.0177190800    0.0077716600    0.0039448700
  -0.0177192800    0.0077721000    0.0039321800
  -0.0177210500    0.0077705200    0.0039275300
  -0.0177212900    0.0077732000    0.0039336300
   0.0154121600   -0.0103969000   -0.0042630200
   0.0153046200   -0.0104380100   -0.0044023900
   0.0153897300   -0.0103677200   -0.0043226200
   0.0152828100   -0.0104053900   -0.0037231100
   0.0139245900   -0.0061064800   -0.0044155900
   0.0140264300   -0.0062674500   -0.0042720300
   0.0141101600   -0.0062203500   -0.0043405200
   0.0139192400   -0.0061912700   -0.0037224200
   0.2136846000   -0.0078520600    0.1353701700
  -0.0337083500   -0.0069208700    0.0069622600
   0.0017673800    0.0135924000    0.0068933700
   0.0018741300   -0.0275477700    0.0071324800
   0.0159606100   -0.0067964000   -0.0006553600
   0.0159623700   -0.0067959200   -0.0004955700
   0.0159606000   -0.0067977600   -0.0004956700
   0.0159604300   -0.0067952300   -0.0004965800
  -0.0137196700    0.0093017000    0.0003623300
  -0.0140336800    0.0093182800    0.0003124800
  -0.0138945400    0.0095795200    0.0003614100
  -0.0138945600    0.0094139400    0.0005844000
  -0.0116704100    0.0051532100    0.0002405200
  -0.0113420000    0.0051320400    0.0004285200
  -0.0114915500    0.0048725700    0.0003692600
  -0.0114608200    0.0050367300    0.0006118700
