# Thermal properties / unit cell (natom)

unit:
  temperature:   K
  free_energy:   kJ/mol
  entropy:       J/K/mol
  heat_capacity: J/K/mol

natom:     4
num_modes: 3888
num_integrated_modes: 3874

zero_point_energy:      65.4123312
high_T_entropy:        230.0765032

thermal_properties:
- temperature:         0.0000000
  free_energy:        65.4123312
  entropy:             0.0000000
  heat_capacity:       0.0000000
  energy:             65.4123312

- temperature:        10.0000000
  free_energy:        65.4122764
  entropy:             0.0219440
  heat_capacity:       0.0519117
  energy:             65.4124959

- temperature:        20.0000000
  free_energy:        65.4117747
  entropy:             0.0803487
  heat_capacity:       0.1295343
  energy:             65.4133817

- temperature:        30.0000000
  free_energy:        65.4106147
  entropy:             0.1555361
  heat_capacity:       0.2643563
  energy:             65.4152808

- temperature:        40.0000000
  free_energy:        65.4085609
  entropy:             0.2615658
  heat_capacity:       0.5044256
  energy:             65.4190236

- temperature:        50.0000000
  free_energy:        65.4052379
  entropy:             0.4110439
  heat_capacity:       0.8701297
  energy:             65.4257901

- temperature:        60.0000000
  free_energy:        65.4001703
  entropy:             0.6113531
  heat_capacity:       1.3635290
  energy:             65.4368515

- temperature:        70.0000000
  free_energy:        65.3928274
  entropy:             0.8666636
  heat_capacity:       1.9869045
  energy:             65.4534938

- temperature:        80.0000000
  free_energy:        65.3826440
  entropy:             1.1798638
  heat_capacity:       2.7432008
  energy:             65.4770331

- temperature:        90.0000000
  free_energy:        65.3690302
  entropy:             1.5529940
  heat_capacity:       3.6318735
  energy:             65.5087997

- temperature:       100.0000000
  free_energy:        65.3513806
  entropy:             1.9871313
  heat_capacity:       4.6473526
  energy:             65.5500937

- temperature:       110.0000000
  free_energy:        65.3290841
  entropy:             2.4822929
  heat_capacity:       5.7795892
  energy:             65.6021363

- temperature:       120.0000000
  free_energy:        65.3015346
  entropy:             3.0374677
  heat_capacity:       7.0153282
  energy:             65.6660307

- temperature:       130.0000000
  free_energy:        65.2681410
  entropy:             3.6507435
  heat_capacity:       8.3394815
  energy:             65.7427376

- temperature:       140.0000000
  free_energy:        65.2283348
  entropy:             4.3194857
  heat_capacity:       9.7363805
  energy:             65.8330628

- temperature:       150.0000000
  free_energy:        65.1815769
  entropy:             5.0405333
  heat_capacity:      11.1908081
  energy:             65.9376569

- temperature:       160.0000000
  free_energy:        65.1273614
  entropy:             5.8103901
  heat_capacity:      12.6887536
  energy:             66.0570238

- temperature:       170.0000000
  free_energy:        65.0652186
  entropy:             6.6253946
  heat_capacity:      14.2178762
  energy:             66.1915356

- temperature:       180.0000000
  free_energy:        64.9947153
  entropy:             7.4818602
  heat_capacity:      15.7677060
  energy:             66.3414502

- temperature:       190.0000000
  free_energy:        64.9154552
  entropy:             8.3761827
  heat_capacity:      17.3296366
  energy:             66.5069299

- temperature:       200.0000000
  free_energy:        64.8270770
  entropy:             9.3049155
  heat_capacity:      18.8967751
  energy:             66.6880601

- temperature:       210.0000000
  free_energy:        64.7292530
  entropy:            10.2648171
  heat_capacity:      20.4637110
  energy:             66.8848646

- temperature:       220.0000000
  free_energy:        64.6216868
  entropy:            11.2528761
  heat_capacity:      22.0262528
  energy:             67.0973196

- temperature:       230.0000000
  free_energy:        64.5041109
  entropy:            12.2663185
  heat_capacity:      23.5811692
  energy:             67.3253642

- temperature:       240.0000000
  free_energy:        64.3762843
  entropy:            13.3026033
  heat_capacity:      25.1259554
  energy:             67.5689091

- temperature:       250.0000000
  free_energy:        64.2379905
  entropy:            14.3594097
  heat_capacity:      26.6586361
  energy:             67.8278429

- temperature:       260.0000000
  free_energy:        64.0890348
  entropy:            15.4346204
  heat_capacity:      28.1776093
  energy:             68.1020361

- temperature:       270.0000000
  free_energy:        63.9292432
  entropy:            16.5263026
  heat_capacity:      29.6815270
  energy:             68.3913449

- temperature:       280.0000000
  free_energy:        63.7584598
  entropy:            17.6326885
  heat_capacity:      31.1692104
  energy:             68.6956125

- temperature:       290.0000000
  free_energy:        63.5765458
  entropy:            18.7521572
  heat_capacity:      32.6395921
  energy:             69.0146714

- temperature:       300.0000000
  free_energy:        63.3833780
  entropy:            19.8832180
  heat_capacity:      34.0916807
  energy:             69.3483434

- temperature:       310.0000000
  free_energy:        63.1788474
  entropy:            21.0244952
  heat_capacity:      35.5245406
  energy:             69.6964409

- temperature:       320.0000000
  free_energy:        62.9628583
  entropy:            22.1747152
  heat_capacity:      36.9372834
  energy:             70.0587671

- temperature:       330.0000000
  free_energy:        62.7353272
  entropy:            23.3326954
  heat_capacity:      38.3290675
  energy:             70.4351167

- temperature:       340.0000000
  free_energy:        62.4961822
  entropy:            24.4973347
  heat_capacity:      39.6991007
  energy:             70.8252760

- temperature:       350.0000000
  free_energy:        62.2453618
  entropy:            25.6676056
  heat_capacity:      41.0466467
  energy:             71.2290237

- temperature:       360.0000000
  free_energy:        61.9828145
  entropy:            26.8425477
  heat_capacity:      42.3710310
  energy:             71.6461317

- temperature:       370.0000000
  free_energy:        61.7084982
  entropy:            28.0212618
  heat_capacity:      43.6716467
  energy:             72.0763651

- temperature:       380.0000000
  free_energy:        61.4223795
  entropy:            29.2029055
  heat_capacity:      44.9479600
  energy:             72.5194836

- temperature:       390.0000000
  free_energy:        61.1244330
  entropy:            30.3866892
  heat_capacity:      46.1995133
  energy:             72.9752418

- temperature:       400.0000000
  free_energy:        60.8146411
  entropy:            31.5718725
  heat_capacity:      47.4259275
  energy:             73.4433901

- temperature:       410.0000000
  free_energy:        60.4929932
  entropy:            32.7577618
  heat_capacity:      48.6269025
  energy:             73.9236755

- temperature:       420.0000000
  free_energy:        60.1594857
  entropy:            33.9437070
  heat_capacity:      49.8022166
  energy:             74.4158426

- temperature:       430.0000000
  free_energy:        59.8141209
  entropy:            35.1290998
  heat_capacity:      50.9517246
  energy:             74.9196338

- temperature:       440.0000000
  free_energy:        59.4569074
  entropy:            36.3133714
  heat_capacity:      52.0753549
  energy:             75.4347908

- temperature:       450.0000000
  free_energy:        59.0878590
  entropy:            37.4959903
  heat_capacity:      53.1731056
  energy:             75.9610547

- temperature:       460.0000000
  free_energy:        58.7069948
  entropy:            38.6764611
  heat_capacity:      54.2450408
  energy:             76.4981669

- temperature:       470.0000000
  free_energy:        58.3143385
  entropy:            39.8543220
  heat_capacity:      55.2912853
  energy:             77.0458698

- temperature:       480.0000000
  free_energy:        57.9099185
  entropy:            41.0291439
  heat_capacity:      56.3120201
  energy:             77.6039075

- temperature:       490.0000000
  free_energy:        57.4937671
  entropy:            42.2005284
  heat_capacity:      57.3074772
  energy:             78.1720260

- temperature:       500.0000000
  free_energy:        57.0659206
  entropy:            43.3681063
  heat_capacity:      58.2779343
  energy:             78.7499737

- temperature:       510.0000000
  free_energy:        56.6264188
  entropy:            44.5315365
  heat_capacity:      59.2237105
  energy:             79.3375024

- temperature:       520.0000000
  free_energy:        56.1753047
  entropy:            45.6905041
  heat_capacity:      60.1451605
  energy:             79.9343669

- temperature:       530.0000000
  free_energy:        55.7126245
  entropy:            46.8447194
  heat_capacity:      61.0426707
  energy:             80.5403258

- temperature:       540.0000000
  free_energy:        55.2384271
  entropy:            47.9939163
  heat_capacity:      61.9166544
  energy:             81.1551418

- temperature:       550.0000000
  free_energy:        54.7527637
  entropy:            49.1378512
  heat_capacity:      62.7675479
  energy:             81.7785819

- temperature:       560.0000000
  free_energy:        54.2556883
  entropy:            50.2763018
  heat_capacity:      63.5958064
  energy:             82.4104174

- temperature:       570.0000000
  free_energy:        53.7472567
  entropy:            51.4090658
  heat_capacity:      64.4019004
  energy:             83.0504242

- temperature:       580.0000000
  free_energy:        53.2275266
  entropy:            52.5359595
  heat_capacity:      65.1863129
  energy:             83.6983831

- temperature:       590.0000000
  free_energy:        52.6965576
  entropy:            53.6568173
  heat_capacity:      65.9495359
  energy:             84.3540798

- temperature:       600.0000000
  free_energy:        52.1544109
  entropy:            54.7714900
  heat_capacity:      66.6920677
  energy:             85.0173048

- temperature:       610.0000000
  free_energy:        51.6011489
  entropy:            55.8798442
  heat_capacity:      67.4144109
  energy:             85.6878538

- temperature:       620.0000000
  free_energy:        51.0368354
  entropy:            56.9817613
  heat_capacity:      68.1170697
  energy:             86.3655274

- temperature:       630.0000000
  free_energy:        50.4615354
  entropy:            58.0771363
  heat_capacity:      68.8005483
  energy:             87.0501313

- temperature:       640.0000000
  free_energy:        49.8753148
  entropy:            59.1658771
  heat_capacity:      69.4653491
  energy:             87.7414761

- temperature:       650.0000000
  free_energy:        49.2782403
  entropy:            60.2479037
  heat_capacity:      70.1119710
  energy:             88.4393777

- temperature:       660.0000000
  free_energy:        48.6703794
  entropy:            61.3231474
  heat_capacity:      70.7409083
  energy:             89.1436566

- temperature:       670.0000000
  free_energy:        48.0518001
  entropy:            62.3915498
  heat_capacity:      71.3526496
  energy:             89.8541385

- temperature:       680.0000000
  free_energy:        47.4225713
  entropy:            63.4530626
  heat_capacity:      71.9476765
  energy:             90.5706539

- temperature:       690.0000000
  free_energy:        46.7827620
  entropy:            64.5076463
  heat_capacity:      72.5264631
  energy:             91.2930379

- temperature:       700.0000000
  free_energy:        46.1324416
  entropy:            65.5552700
  heat_capacity:      73.0894750
  energy:             92.0211306

- temperature:       710.0000000
  free_energy:        45.4716799
  entropy:            66.5959106
  heat_capacity:      73.6371690
  energy:             92.7547764

- temperature:       720.0000000
  free_energy:        44.8005467
  entropy:            67.6295523
  heat_capacity:      74.1699926
  energy:             93.4938244

- temperature:       730.0000000
  free_energy:        44.1191122
  entropy:            68.6561862
  heat_capacity:      74.6883832
  energy:             94.2381281

- temperature:       740.0000000
  free_energy:        43.4274464
  entropy:            69.6758095
  heat_capacity:      75.1927684
  energy:             94.9875454

- temperature:       750.0000000
  free_energy:        42.7256194
  entropy:            70.6884251
  heat_capacity:      75.6835655
  energy:             95.7419382

- temperature:       760.0000000
  free_energy:        42.0137012
  entropy:            71.6940415
  heat_capacity:      76.1611811
  energy:             96.5011727

- temperature:       770.0000000
  free_energy:        41.2917618
  entropy:            72.6926719
  heat_capacity:      76.6260115
  energy:             97.2651192

- temperature:       780.0000000
  free_energy:        40.5598710
  entropy:            73.6843342
  heat_capacity:      77.0784424
  energy:             98.0336516

- temperature:       790.0000000
  free_energy:        39.8180983
  entropy:            74.6690502
  heat_capacity:      77.5188489
  energy:             98.8066480

- temperature:       800.0000000
  free_energy:        39.0665130
  entropy:            75.6468459
  heat_capacity:      77.9475956
  energy:             99.5839898

- temperature:       810.0000000
  free_energy:        38.3051843
  entropy:            76.6177504
  heat_capacity:      78.3650367
  energy:            100.3655622

- temperature:       820.0000000
  free_energy:        37.5341809
  entropy:            77.5817964
  heat_capacity:      78.7715160
  energy:            101.1512539

- temperature:       830.0000000
  free_energy:        36.7535712
  entropy:            78.5390192
  heat_capacity:      79.1673672
  energy:            101.9409571

- temperature:       840.0000000
  free_energy:        35.9634231
  entropy:            79.4894569
  heat_capacity:      79.5529140
  energy:            102.7345669

- temperature:       850.0000000
  free_energy:        35.1638045
  entropy:            80.4331501
  heat_capacity:      79.9284701
  energy:            103.5319821

- temperature:       860.0000000
  free_energy:        34.3547825
  entropy:            81.3701414
  heat_capacity:      80.2943397
  energy:            104.3331041

- temperature:       870.0000000
  free_energy:        33.5364239
  entropy:            82.3004755
  heat_capacity:      80.6508175
  energy:            105.1378376

- temperature:       880.0000000
  free_energy:        32.7087950
  entropy:            83.2241989
  heat_capacity:      80.9981890
  energy:            105.9460901

- temperature:       890.0000000
  free_energy:        31.8719618
  entropy:            84.1413597
  heat_capacity:      81.3367305
  energy:            106.7577719

- temperature:       900.0000000
  free_energy:        31.0259895
  entropy:            85.0520073
  heat_capacity:      81.6667098
  energy:            107.5727961

- temperature:       910.0000000
  free_energy:        30.1709432
  entropy:            85.9561926
  heat_capacity:      81.9883858
  energy:            108.3910784

- temperature:       920.0000000
  free_energy:        29.3068870
  entropy:            86.8539674
  heat_capacity:      82.3020093
  energy:            109.2125370

- temperature:       930.0000000
  free_energy:        28.4338850
  entropy:            87.7453845
  heat_capacity:      82.6078230
  energy:            110.0370926

- temperature:       940.0000000
  free_energy:        27.5520004
  entropy:            88.6304977
  heat_capacity:      82.9060615
  energy:            110.8646682

- temperature:       950.0000000
  free_energy:        26.6612959
  entropy:            89.5093615
  heat_capacity:      83.1969520
  energy:            111.6951893

- temperature:       960.0000000
  free_energy:        25.7618338
  entropy:            90.3820310
  heat_capacity:      83.4807140
  energy:            112.5285835

- temperature:       970.0000000
  free_energy:        24.8536757
  entropy:            91.2485617
  heat_capacity:      83.7575602
  energy:            113.3647805

- temperature:       980.0000000
  free_energy:        23.9368828
  entropy:            92.1090097
  heat_capacity:      84.0276960
  energy:            114.2037123

- temperature:       990.0000000
  free_energy:        23.0115156
  entropy:            92.9634315
  heat_capacity:      84.2913202
  energy:            115.0453128

- temperature:      1000.0000000
  free_energy:        22.0776341
  entropy:            93.8118836
  heat_capacity:      84.5486249
  energy:            115.8895177
