<?xml version="1.0" encoding="ISO-8859-1"?>
<modeling>
 <generator>
  <i name="program" type="string">vasp </i>
  <i name="version" type="string">5.3.5  </i>
  <i name="subversion" type="string">31Mar14 (build Nov 02 2014 15:17:37) complex                          parallel </i>
  <i name="platform" type="string">ion-Intel-MKL </i>
  <i name="date" type="string">2016 10 18 </i>
  <i name="time" type="string">00:24:41 </i>
 </generator>
 <incar>
  <i type="string" name="SYSTEM">graphite</i>
  <i type="string" name="PREC">accurate</i>
  <i type="int" name="NELM">   200</i>
  <i type="int" name="IBRION">     2</i>
  <i name="EDIFF">      0.00000001</i>
  <i name="EDIFFG">      0.00100000</i>
  <i type="int" name="NSW">   200</i>
  <i type="int" name="ISIF">     2</i>
  <i name="ENCUT">    800.00000000</i>
  <i type="int" name="ISMEAR">    -5</i>
  <i type="logical" name="LWAVE"> F  </i>
  <i type="logical" name="LCHARG"> F  </i>
  <i type="int" name="NELM">   200</i>
  <i type="string" name="GGA">PE</i>
 </incar>
 <kpoints>
  <generation param="Gamma">
   <v type="int" name="divisions">      12       12        8 </v>
   <v name="usershift">      0.00000000       0.00000000       0.00000000 </v>
   <v name="genvec1">      0.08333333      -0.00000000       0.00000000 </v>
   <v name="genvec2">      0.00000000       0.08333333       0.00000000 </v>
   <v name="genvec3">      0.00000000       0.00000000       0.12500000 </v>
   <v name="shift">      0.00000000       0.00000000       0.00000000 </v>
  </generation>
  <varray name="kpointlist" >
   <v>       0.00000000       0.00000000       0.00000000 </v>
   <v>       0.08333333      -0.00000000       0.00000000 </v>
   <v>       0.16666667      -0.00000000       0.00000000 </v>
   <v>       0.25000000       0.00000000       0.00000000 </v>
   <v>       0.33333333      -0.00000000       0.00000000 </v>
   <v>       0.41666667      -0.00000000       0.00000000 </v>
   <v>       0.50000000       0.00000000       0.00000000 </v>
   <v>       0.08333333       0.08333333       0.00000000 </v>
   <v>       0.16666667       0.08333333       0.00000000 </v>
   <v>       0.25000000       0.08333333       0.00000000 </v>
   <v>       0.33333333       0.08333333       0.00000000 </v>
   <v>       0.41666667       0.08333333       0.00000000 </v>
   <v>       0.50000000       0.08333333       0.00000000 </v>
   <v>      -0.41666667       0.08333333       0.00000000 </v>
   <v>      -0.33333333       0.08333333       0.00000000 </v>
   <v>      -0.25000000       0.08333333       0.00000000 </v>
   <v>      -0.16666667       0.08333333       0.00000000 </v>
   <v>      -0.08333333       0.08333333       0.00000000 </v>
   <v>       0.16666667       0.16666667       0.00000000 </v>
   <v>       0.25000000       0.16666667       0.00000000 </v>
   <v>       0.33333333       0.16666667       0.00000000 </v>
   <v>       0.41666667       0.16666667       0.00000000 </v>
   <v>       0.50000000       0.16666667       0.00000000 </v>
   <v>      -0.41666667       0.16666667       0.00000000 </v>
   <v>      -0.33333333       0.16666667       0.00000000 </v>
   <v>      -0.25000000       0.16666667       0.00000000 </v>
   <v>      -0.16666667       0.16666667       0.00000000 </v>
   <v>       0.25000000       0.25000000       0.00000000 </v>
   <v>       0.33333333       0.25000000       0.00000000 </v>
   <v>       0.41666667       0.25000000       0.00000000 </v>
   <v>       0.50000000       0.25000000       0.00000000 </v>
   <v>      -0.41666667       0.25000000       0.00000000 </v>
   <v>      -0.33333333       0.25000000       0.00000000 </v>
   <v>      -0.25000000       0.25000000       0.00000000 </v>
   <v>       0.33333333       0.33333333       0.00000000 </v>
   <v>       0.41666667       0.33333333       0.00000000 </v>
   <v>       0.50000000       0.33333333       0.00000000 </v>
   <v>      -0.41666667       0.33333333       0.00000000 </v>
   <v>      -0.33333333       0.33333333       0.00000000 </v>
   <v>       0.41666667       0.41666667       0.00000000 </v>
   <v>       0.50000000       0.41666667       0.00000000 </v>
   <v>      -0.41666667       0.41666667       0.00000000 </v>
   <v>       0.50000000       0.50000000       0.00000000 </v>
   <v>       0.00000000       0.00000000       0.12500000 </v>
   <v>       0.08333333      -0.00000000       0.12500000 </v>
   <v>       0.16666667      -0.00000000       0.12500000 </v>
   <v>       0.25000000       0.00000000       0.12500000 </v>
   <v>       0.33333333      -0.00000000       0.12500000 </v>
   <v>       0.41666667      -0.00000000       0.12500000 </v>
   <v>       0.50000000       0.00000000       0.12500000 </v>
   <v>       0.08333333       0.08333333       0.12500000 </v>
   <v>       0.16666667       0.08333333       0.12500000 </v>
   <v>       0.25000000       0.08333333       0.12500000 </v>
   <v>       0.33333333       0.08333333       0.12500000 </v>
   <v>       0.41666667       0.08333333       0.12500000 </v>
   <v>       0.50000000       0.08333333       0.12500000 </v>
   <v>      -0.41666667       0.08333333       0.12500000 </v>
   <v>      -0.33333333       0.08333333       0.12500000 </v>
   <v>      -0.25000000       0.08333333       0.12500000 </v>
   <v>      -0.16666667       0.08333333       0.12500000 </v>
   <v>      -0.08333333       0.08333333       0.12500000 </v>
   <v>       0.16666667       0.16666667       0.12500000 </v>
   <v>       0.25000000       0.16666667       0.12500000 </v>
   <v>       0.33333333       0.16666667       0.12500000 </v>
   <v>       0.41666667       0.16666667       0.12500000 </v>
   <v>       0.50000000       0.16666667       0.12500000 </v>
   <v>      -0.41666667       0.16666667       0.12500000 </v>
   <v>      -0.33333333       0.16666667       0.12500000 </v>
   <v>      -0.25000000       0.16666667       0.12500000 </v>
   <v>      -0.16666667       0.16666667       0.12500000 </v>
   <v>       0.25000000       0.25000000       0.12500000 </v>
   <v>       0.33333333       0.25000000       0.12500000 </v>
   <v>       0.41666667       0.25000000       0.12500000 </v>
   <v>       0.50000000       0.25000000       0.12500000 </v>
   <v>      -0.41666667       0.25000000       0.12500000 </v>
   <v>      -0.33333333       0.25000000       0.12500000 </v>
   <v>      -0.25000000       0.25000000       0.12500000 </v>
   <v>       0.33333333       0.33333333       0.12500000 </v>
   <v>       0.41666667       0.33333333       0.12500000 </v>
   <v>       0.50000000       0.33333333       0.12500000 </v>
   <v>      -0.41666667       0.33333333       0.12500000 </v>
   <v>      -0.33333333       0.33333333       0.12500000 </v>
   <v>       0.41666667       0.41666667       0.12500000 </v>
   <v>       0.50000000       0.41666667       0.12500000 </v>
   <v>      -0.41666667       0.41666667       0.12500000 </v>
   <v>       0.50000000       0.50000000       0.12500000 </v>
   <v>       0.00000000       0.00000000       0.25000000 </v>
   <v>       0.08333333      -0.00000000       0.25000000 </v>
   <v>       0.16666667      -0.00000000       0.25000000 </v>
   <v>       0.25000000       0.00000000       0.25000000 </v>
   <v>       0.33333333      -0.00000000       0.25000000 </v>
   <v>       0.41666667      -0.00000000       0.25000000 </v>
   <v>       0.50000000       0.00000000       0.25000000 </v>
   <v>       0.08333333       0.08333333       0.25000000 </v>
   <v>       0.16666667       0.08333333       0.25000000 </v>
   <v>       0.25000000       0.08333333       0.25000000 </v>
   <v>       0.33333333       0.08333333       0.25000000 </v>
   <v>       0.41666667       0.08333333       0.25000000 </v>
   <v>       0.50000000       0.08333333       0.25000000 </v>
   <v>      -0.41666667       0.08333333       0.25000000 </v>
   <v>      -0.33333333       0.08333333       0.25000000 </v>
   <v>      -0.25000000       0.08333333       0.25000000 </v>
   <v>      -0.16666667       0.08333333       0.25000000 </v>
   <v>      -0.08333333       0.08333333       0.25000000 </v>
   <v>       0.16666667       0.16666667       0.25000000 </v>
   <v>       0.25000000       0.16666667       0.25000000 </v>
   <v>       0.33333333       0.16666667       0.25000000 </v>
   <v>       0.41666667       0.16666667       0.25000000 </v>
   <v>       0.50000000       0.16666667       0.25000000 </v>
   <v>      -0.41666667       0.16666667       0.25000000 </v>
   <v>      -0.33333333       0.16666667       0.25000000 </v>
   <v>      -0.25000000       0.16666667       0.25000000 </v>
   <v>      -0.16666667       0.16666667       0.25000000 </v>
   <v>       0.25000000       0.25000000       0.25000000 </v>
   <v>       0.33333333       0.25000000       0.25000000 </v>
   <v>       0.41666667       0.25000000       0.25000000 </v>
   <v>       0.50000000       0.25000000       0.25000000 </v>
   <v>      -0.41666667       0.25000000       0.25000000 </v>
   <v>      -0.33333333       0.25000000       0.25000000 </v>
   <v>      -0.25000000       0.25000000       0.25000000 </v>
   <v>       0.33333333       0.33333333       0.25000000 </v>
   <v>       0.41666667       0.33333333       0.25000000 </v>
   <v>       0.50000000       0.33333333       0.25000000 </v>
   <v>      -0.41666667       0.33333333       0.25000000 </v>
   <v>      -0.33333333       0.33333333       0.25000000 </v>
   <v>       0.41666667       0.41666667       0.25000000 </v>
   <v>       0.50000000       0.41666667       0.25000000 </v>
   <v>      -0.41666667       0.41666667       0.25000000 </v>
   <v>       0.50000000       0.50000000       0.25000000 </v>
   <v>       0.00000000       0.00000000       0.37500000 </v>
   <v>       0.08333333      -0.00000000       0.37500000 </v>
   <v>       0.16666667      -0.00000000       0.37500000 </v>
   <v>       0.25000000       0.00000000       0.37500000 </v>
   <v>       0.33333333      -0.00000000       0.37500000 </v>
   <v>       0.41666667      -0.00000000       0.37500000 </v>
   <v>       0.50000000       0.00000000       0.37500000 </v>
   <v>       0.08333333       0.08333333       0.37500000 </v>
   <v>       0.16666667       0.08333333       0.37500000 </v>
   <v>       0.25000000       0.08333333       0.37500000 </v>
   <v>       0.33333333       0.08333333       0.37500000 </v>
   <v>       0.41666667       0.08333333       0.37500000 </v>
   <v>       0.50000000       0.08333333       0.37500000 </v>
   <v>      -0.41666667       0.08333333       0.37500000 </v>
   <v>      -0.33333333       0.08333333       0.37500000 </v>
   <v>      -0.25000000       0.08333333       0.37500000 </v>
   <v>      -0.16666667       0.08333333       0.37500000 </v>
   <v>      -0.08333333       0.08333333       0.37500000 </v>
   <v>       0.16666667       0.16666667       0.37500000 </v>
   <v>       0.25000000       0.16666667       0.37500000 </v>
   <v>       0.33333333       0.16666667       0.37500000 </v>
   <v>       0.41666667       0.16666667       0.37500000 </v>
   <v>       0.50000000       0.16666667       0.37500000 </v>
   <v>      -0.41666667       0.16666667       0.37500000 </v>
   <v>      -0.33333333       0.16666667       0.37500000 </v>
   <v>      -0.25000000       0.16666667       0.37500000 </v>
   <v>      -0.16666667       0.16666667       0.37500000 </v>
   <v>       0.25000000       0.25000000       0.37500000 </v>
   <v>       0.33333333       0.25000000       0.37500000 </v>
   <v>       0.41666667       0.25000000       0.37500000 </v>
   <v>       0.50000000       0.25000000       0.37500000 </v>
   <v>      -0.41666667       0.25000000       0.37500000 </v>
   <v>      -0.33333333       0.25000000       0.37500000 </v>
   <v>      -0.25000000       0.25000000       0.37500000 </v>
   <v>       0.33333333       0.33333333       0.37500000 </v>
   <v>       0.41666667       0.33333333       0.37500000 </v>
   <v>       0.50000000       0.33333333       0.37500000 </v>
   <v>      -0.41666667       0.33333333       0.37500000 </v>
   <v>      -0.33333333       0.33333333       0.37500000 </v>
   <v>       0.41666667       0.41666667       0.37500000 </v>
   <v>       0.50000000       0.41666667       0.37500000 </v>
   <v>      -0.41666667       0.41666667       0.37500000 </v>
   <v>       0.50000000       0.50000000       0.37500000 </v>
   <v>       0.00000000       0.00000000       0.50000000 </v>
   <v>       0.08333333      -0.00000000       0.50000000 </v>
   <v>       0.16666667      -0.00000000       0.50000000 </v>
   <v>       0.25000000       0.00000000       0.50000000 </v>
   <v>       0.33333333      -0.00000000       0.50000000 </v>
   <v>       0.41666667      -0.00000000       0.50000000 </v>
   <v>       0.50000000       0.00000000       0.50000000 </v>
   <v>       0.08333333       0.08333333       0.50000000 </v>
   <v>       0.16666667       0.08333333       0.50000000 </v>
   <v>       0.25000000       0.08333333       0.50000000 </v>
   <v>       0.33333333       0.08333333       0.50000000 </v>
   <v>       0.41666667       0.08333333       0.50000000 </v>
   <v>       0.50000000       0.08333333       0.50000000 </v>
   <v>      -0.41666667       0.08333333       0.50000000 </v>
   <v>      -0.33333333       0.08333333       0.50000000 </v>
   <v>      -0.25000000       0.08333333       0.50000000 </v>
   <v>      -0.16666667       0.08333333       0.50000000 </v>
   <v>      -0.08333333       0.08333333       0.50000000 </v>
   <v>       0.16666667       0.16666667       0.50000000 </v>
   <v>       0.25000000       0.16666667       0.50000000 </v>
   <v>       0.33333333       0.16666667       0.50000000 </v>
   <v>       0.41666667       0.16666667       0.50000000 </v>
   <v>       0.50000000       0.16666667       0.50000000 </v>
   <v>      -0.41666667       0.16666667       0.50000000 </v>
   <v>      -0.33333333       0.16666667       0.50000000 </v>
   <v>      -0.25000000       0.16666667       0.50000000 </v>
   <v>      -0.16666667       0.16666667       0.50000000 </v>
   <v>       0.25000000       0.25000000       0.50000000 </v>
   <v>       0.33333333       0.25000000       0.50000000 </v>
   <v>       0.41666667       0.25000000       0.50000000 </v>
   <v>       0.50000000       0.25000000       0.50000000 </v>
   <v>      -0.41666667       0.25000000       0.50000000 </v>
   <v>      -0.33333333       0.25000000       0.50000000 </v>
   <v>      -0.25000000       0.25000000       0.50000000 </v>
   <v>       0.33333333       0.33333333       0.50000000 </v>
   <v>       0.41666667       0.33333333       0.50000000 </v>
   <v>       0.50000000       0.33333333       0.50000000 </v>
   <v>      -0.41666667       0.33333333       0.50000000 </v>
   <v>      -0.33333333       0.33333333       0.50000000 </v>
   <v>       0.41666667       0.41666667       0.50000000 </v>
   <v>       0.50000000       0.41666667       0.50000000 </v>
   <v>      -0.41666667       0.41666667       0.50000000 </v>
   <v>       0.50000000       0.50000000       0.50000000 </v>
  </varray>
  <varray name="weights" >
   <v>       0.00086806 </v>
   <v>       0.00347222 </v>
   <v>       0.00347222 </v>
   <v>       0.00347222 </v>
   <v>       0.00347222 </v>
   <v>       0.00347222 </v>
   <v>       0.00173611 </v>
   <v>       0.00173611 </v>
   <v>       0.00347222 </v>
   <v>       0.00347222 </v>
   <v>       0.00347222 </v>
   <v>       0.00347222 </v>
   <v>       0.00347222 </v>
   <v>       0.00347222 </v>
   <v>       0.00347222 </v>
   <v>       0.00347222 </v>
   <v>       0.00347222 </v>
   <v>       0.00173611 </v>
   <v>       0.00173611 </v>
   <v>       0.00347222 </v>
   <v>       0.00347222 </v>
   <v>       0.00347222 </v>
   <v>       0.00347222 </v>
   <v>       0.00347222 </v>
   <v>       0.00347222 </v>
   <v>       0.00347222 </v>
   <v>       0.00173611 </v>
   <v>       0.00173611 </v>
   <v>       0.00347222 </v>
   <v>       0.00347222 </v>
   <v>       0.00347222 </v>
   <v>       0.00347222 </v>
   <v>       0.00347222 </v>
   <v>       0.00173611 </v>
   <v>       0.00173611 </v>
   <v>       0.00347222 </v>
   <v>       0.00347222 </v>
   <v>       0.00347222 </v>
   <v>       0.00173611 </v>
   <v>       0.00173611 </v>
   <v>       0.00347222 </v>
   <v>       0.00173611 </v>
   <v>       0.00086806 </v>
   <v>       0.00173611 </v>
   <v>       0.00694444 </v>
   <v>       0.00694444 </v>
   <v>       0.00694444 </v>
   <v>       0.00694444 </v>
   <v>       0.00694444 </v>
   <v>       0.00347222 </v>
   <v>       0.00347222 </v>
   <v>       0.00694444 </v>
   <v>       0.00694444 </v>
   <v>       0.00694444 </v>
   <v>       0.00694444 </v>
   <v>       0.00694444 </v>
   <v>       0.00694444 </v>
   <v>       0.00694444 </v>
   <v>       0.00694444 </v>
   <v>       0.00694444 </v>
   <v>       0.00347222 </v>
   <v>       0.00347222 </v>
   <v>       0.00694444 </v>
   <v>       0.00694444 </v>
   <v>       0.00694444 </v>
   <v>       0.00694444 </v>
   <v>       0.00694444 </v>
   <v>       0.00694444 </v>
   <v>       0.00694444 </v>
   <v>       0.00347222 </v>
   <v>       0.00347222 </v>
   <v>       0.00694444 </v>
   <v>       0.00694444 </v>
   <v>       0.00694444 </v>
   <v>       0.00694444 </v>
   <v>       0.00694444 </v>
   <v>       0.00347222 </v>
   <v>       0.00347222 </v>
   <v>       0.00694444 </v>
   <v>       0.00694444 </v>
   <v>       0.00694444 </v>
   <v>       0.00347222 </v>
   <v>       0.00347222 </v>
   <v>       0.00694444 </v>
   <v>       0.00347222 </v>
   <v>       0.00173611 </v>
   <v>       0.00173611 </v>
   <v>       0.00694444 </v>
   <v>       0.00694444 </v>
   <v>       0.00694444 </v>
   <v>       0.00694444 </v>
   <v>       0.00694444 </v>
   <v>       0.00347222 </v>
   <v>       0.00347222 </v>
   <v>       0.00694444 </v>
   <v>       0.00694444 </v>
   <v>       0.00694444 </v>
   <v>       0.00694444 </v>
   <v>       0.00694444 </v>
   <v>       0.00694444 </v>
   <v>       0.00694444 </v>
   <v>       0.00694444 </v>
   <v>       0.00694444 </v>
   <v>       0.00347222 </v>
   <v>       0.00347222 </v>
   <v>       0.00694444 </v>
   <v>       0.00694444 </v>
   <v>       0.00694444 </v>
   <v>       0.00694444 </v>
   <v>       0.00694444 </v>
   <v>       0.00694444 </v>
   <v>       0.00694444 </v>
   <v>       0.00347222 </v>
   <v>       0.00347222 </v>
   <v>       0.00694444 </v>
   <v>       0.00694444 </v>
   <v>       0.00694444 </v>
   <v>       0.00694444 </v>
   <v>       0.00694444 </v>
   <v>       0.00347222 </v>
   <v>       0.00347222 </v>
   <v>       0.00694444 </v>
   <v>       0.00694444 </v>
   <v>       0.00694444 </v>
   <v>       0.00347222 </v>
   <v>       0.00347222 </v>
   <v>       0.00694444 </v>
   <v>       0.00347222 </v>
   <v>       0.00173611 </v>
   <v>       0.00173611 </v>
   <v>       0.00694444 </v>
   <v>       0.00694444 </v>
   <v>       0.00694444 </v>
   <v>       0.00694444 </v>
   <v>       0.00694444 </v>
   <v>       0.00347222 </v>
   <v>       0.00347222 </v>
   <v>       0.00694444 </v>
   <v>       0.00694444 </v>
   <v>       0.00694444 </v>
   <v>       0.00694444 </v>
   <v>       0.00694444 </v>
   <v>       0.00694444 </v>
   <v>       0.00694444 </v>
   <v>       0.00694444 </v>
   <v>       0.00694444 </v>
   <v>       0.00347222 </v>
   <v>       0.00347222 </v>
   <v>       0.00694444 </v>
   <v>       0.00694444 </v>
   <v>       0.00694444 </v>
   <v>       0.00694444 </v>
   <v>       0.00694444 </v>
   <v>       0.00694444 </v>
   <v>       0.00694444 </v>
   <v>       0.00347222 </v>
   <v>       0.00347222 </v>
   <v>       0.00694444 </v>
   <v>       0.00694444 </v>
   <v>       0.00694444 </v>
   <v>       0.00694444 </v>
   <v>       0.00694444 </v>
   <v>       0.00347222 </v>
   <v>       0.00347222 </v>
   <v>       0.00694444 </v>
   <v>       0.00694444 </v>
   <v>       0.00694444 </v>
   <v>       0.00347222 </v>
   <v>       0.00347222 </v>
   <v>       0.00694444 </v>
   <v>       0.00347222 </v>
   <v>       0.00173611 </v>
   <v>       0.00086806 </v>
   <v>       0.00347222 </v>
   <v>       0.00347222 </v>
   <v>       0.00347222 </v>
   <v>       0.00347222 </v>
   <v>       0.00347222 </v>
   <v>       0.00173611 </v>
   <v>       0.00173611 </v>
   <v>       0.00347222 </v>
   <v>       0.00347222 </v>
   <v>       0.00347222 </v>
   <v>       0.00347222 </v>
   <v>       0.00347222 </v>
   <v>       0.00347222 </v>
   <v>       0.00347222 </v>
   <v>       0.00347222 </v>
   <v>       0.00347222 </v>
   <v>       0.00173611 </v>
   <v>       0.00173611 </v>
   <v>       0.00347222 </v>
   <v>       0.00347222 </v>
   <v>       0.00347222 </v>
   <v>       0.00347222 </v>
   <v>       0.00347222 </v>
   <v>       0.00347222 </v>
   <v>       0.00347222 </v>
   <v>       0.00173611 </v>
   <v>       0.00173611 </v>
   <v>       0.00347222 </v>
   <v>       0.00347222 </v>
   <v>       0.00347222 </v>
   <v>       0.00347222 </v>
   <v>       0.00347222 </v>
   <v>       0.00173611 </v>
   <v>       0.00173611 </v>
   <v>       0.00347222 </v>
   <v>       0.00347222 </v>
   <v>       0.00347222 </v>
   <v>       0.00173611 </v>
   <v>       0.00173611 </v>
   <v>       0.00347222 </v>
   <v>       0.00173611 </v>
   <v>       0.00086806 </v>
  </varray>
  <varray name="tetrahedronlist"  type="int" >
   <v type="int" >        4        2        2        8       45 </v>
   <v type="int" >        4        1        2        2       45 </v>
   <v type="int" >        4        1        2       44       45 </v>
   <v type="int" >        4        2        8       45       51 </v>
   <v type="int" >        4        2       45       45       51 </v>
   <v type="int" >        4        2       44       45       45 </v>
   <v type="int" >        4        3        8        9       51 </v>
   <v type="int" >        4        2        3        8       51 </v>
   <v type="int" >        4        2        3       45       51 </v>
   <v type="int" >        4        3        9       51       52 </v>
   <v type="int" >        4        3       46       51       52 </v>
   <v type="int" >        4        3       45       46       51 </v>
   <v type="int" >        4        4        9       10       52 </v>
   <v type="int" >        4        3        4        9       52 </v>
   <v type="int" >        4        3        4       46       52 </v>
   <v type="int" >        4        4       10       52       53 </v>
   <v type="int" >        4        4       47       52       53 </v>
   <v type="int" >        4        4       46       47       52 </v>
   <v type="int" >        4        5       10       11       53 </v>
   <v type="int" >        4        4        5       10       53 </v>
   <v type="int" >        4        4        5       47       53 </v>
   <v type="int" >        4        5       11       53       54 </v>
   <v type="int" >        4        5       48       53       54 </v>
   <v type="int" >        4        5       47       48       53 </v>
   <v type="int" >        4        6       11       12       54 </v>
   <v type="int" >        4        5        6       11       54 </v>
   <v type="int" >        4        5        6       48       54 </v>
   <v type="int" >        4        6       12       54       55 </v>
   <v type="int" >        4        6       49       54       55 </v>
   <v type="int" >        4        6       48       49       54 </v>
   <v type="int" >        4        7       12       13       55 </v>
   <v type="int" >        4        6        7       12       55 </v>
   <v type="int" >        4        6        7       49       55 </v>
   <v type="int" >        4        7       13       55       56 </v>
   <v type="int" >        4        7       50       55       56 </v>
   <v type="int" >        4        7       49       50       55 </v>
   <v type="int" >        4        6       13       14       56 </v>
   <v type="int" >        4        6        7       13       56 </v>
   <v type="int" >        4        6        7       50       56 </v>
   <v type="int" >        4        6       14       56       57 </v>
   <v type="int" >        4        6       49       56       57 </v>
   <v type="int" >        4        6       49       50       56 </v>
   <v type="int" >        4        5       14       15       57 </v>
   <v type="int" >        4        5        6       14       57 </v>
   <v type="int" >        4        5        6       49       57 </v>
   <v type="int" >        4        5       15       57       58 </v>
   <v type="int" >        4        5       48       57       58 </v>
   <v type="int" >        4        5       48       49       57 </v>
   <v type="int" >        4        4       15       16       58 </v>
   <v type="int" >        4        4        5       15       58 </v>
   <v type="int" >        4        4        5       48       58 </v>
   <v type="int" >        4        4       16       58       59 </v>
   <v type="int" >        4        4       47       58       59 </v>
   <v type="int" >        4        4       47       48       58 </v>
   <v type="int" >        4        3       16       17       59 </v>
   <v type="int" >        4        3        4       16       59 </v>
   <v type="int" >        4        3        4       47       59 </v>
   <v type="int" >        4        3       17       59       60 </v>
   <v type="int" >        4        3       46       59       60 </v>
   <v type="int" >        4        3       46       47       59 </v>
   <v type="int" >        4        2       17       18       60 </v>
   <v type="int" >        4        2        3       17       60 </v>
   <v type="int" >        4        2        3       46       60 </v>
   <v type="int" >        4        2       18       60       61 </v>
   <v type="int" >        4        2       45       60       61 </v>
   <v type="int" >        4        2       45       46       60 </v>
   <v type="int" >        4        1        2       18       61 </v>
   <v type="int" >        4        1        2       45       61 </v>
   <v type="int" >        4        1       44       45       61 </v>
   <v type="int" >        4        3        8        9       46 </v>
   <v type="int" >        4        2        3        8       46 </v>
   <v type="int" >        4        2        8       45       46 </v>
   <v type="int" >        4        8        9       46       52 </v>
   <v type="int" >        4        8       46       51       52 </v>
   <v type="int" >        4        8       45       46       51 </v>
   <v type="int" >        4        9        9       19       52 </v>
   <v type="int" >        4        8        9        9       52 </v>
   <v type="int" >        4        8        9       51       52 </v>
   <v type="int" >        4        9       19       52       62 </v>
   <v type="int" >        4        9       52       52       62 </v>
   <v type="int" >        4        9       51       52       52 </v>
   <v type="int" >        4       10       19       20       62 </v>
   <v type="int" >        4        9       10       19       62 </v>
   <v type="int" >        4        9       10       52       62 </v>
   <v type="int" >        4       10       20       62       63 </v>
   <v type="int" >        4       10       53       62       63 </v>
   <v type="int" >        4       10       52       53       62 </v>
   <v type="int" >        4       11       20       21       63 </v>
   <v type="int" >        4       10       11       20       63 </v>
   <v type="int" >        4       10       11       53       63 </v>
   <v type="int" >        4       11       21       63       64 </v>
   <v type="int" >        4       11       54       63       64 </v>
   <v type="int" >        4       11       53       54       63 </v>
   <v type="int" >        4       12       21       22       64 </v>
   <v type="int" >        4       11       12       21       64 </v>
   <v type="int" >        4       11       12       54       64 </v>
   <v type="int" >        4       12       22       64       65 </v>
   <v type="int" >        4       12       55       64       65 </v>
   <v type="int" >        4       12       54       55       64 </v>
   <v type="int" >        4       13       22       23       65 </v>
   <v type="int" >        4       12       13       22       65 </v>
   <v type="int" >        4       12       13       55       65 </v>
   <v type="int" >        4       13       23       65       66 </v>
   <v type="int" >        4       13       56       65       66 </v>
   <v type="int" >        4       13       55       56       65 </v>
   <v type="int" >        4       14       23       24       66 </v>
   <v type="int" >        4       13       14       23       66 </v>
   <v type="int" >        4       13       14       56       66 </v>
   <v type="int" >        4       14       24       66       67 </v>
   <v type="int" >        4       14       57       66       67 </v>
   <v type="int" >        4       14       56       57       66 </v>
   <v type="int" >        4       15       24       25       67 </v>
   <v type="int" >        4       14       15       24       67 </v>
   <v type="int" >        4       14       15       57       67 </v>
   <v type="int" >        4       15       25       67       68 </v>
   <v type="int" >        4       15       58       67       68 </v>
   <v type="int" >        4       15       57       58       67 </v>
   <v type="int" >        4       16       25       26       68 </v>
   <v type="int" >        4       15       16       25       68 </v>
   <v type="int" >        4       15       16       58       68 </v>
   <v type="int" >        4       16       26       68       69 </v>
   <v type="int" >        4       16       59       68       69 </v>
   <v type="int" >        4       16       58       59       68 </v>
   <v type="int" >        4       17       26       27       69 </v>
   <v type="int" >        4       16       17       26       69 </v>
   <v type="int" >        4       16       17       59       69 </v>
   <v type="int" >        4       17       27       69       70 </v>
   <v type="int" >        4       17       60       69       70 </v>
   <v type="int" >        4       17       59       60       69 </v>
   <v type="int" >        4       17       18       27       70 </v>
   <v type="int" >        4       17       18       60       70 </v>
   <v type="int" >        4       18       60       61       70 </v>
   <v type="int" >        4        4        9       10       47 </v>
   <v type="int" >        4        3        4        9       47 </v>
   <v type="int" >        4        3        9       46       47 </v>
   <v type="int" >        4        9       10       47       53 </v>
   <v type="int" >        4        9       47       52       53 </v>
   <v type="int" >        4        9       46       47       52 </v>
   <v type="int" >        4       10       19       20       53 </v>
   <v type="int" >        4        9       10       19       53 </v>
   <v type="int" >        4        9       19       52       53 </v>
   <v type="int" >        4       19       20       53       63 </v>
   <v type="int" >        4       19       53       62       63 </v>
   <v type="int" >        4       19       52       53       62 </v>
   <v type="int" >        4       20       20       28       63 </v>
   <v type="int" >        4       19       20       20       63 </v>
   <v type="int" >        4       19       20       62       63 </v>
   <v type="int" >        4       20       28       63       71 </v>
   <v type="int" >        4       20       63       63       71 </v>
   <v type="int" >        4       20       62       63       63 </v>
   <v type="int" >        4       21       28       29       71 </v>
   <v type="int" >        4       20       21       28       71 </v>
   <v type="int" >        4       20       21       63       71 </v>
   <v type="int" >        4       21       29       71       72 </v>
   <v type="int" >        4       21       64       71       72 </v>
   <v type="int" >        4       21       63       64       71 </v>
   <v type="int" >        4       22       29       30       72 </v>
   <v type="int" >        4       21       22       29       72 </v>
   <v type="int" >        4       21       22       64       72 </v>
   <v type="int" >        4       22       30       72       73 </v>
   <v type="int" >        4       22       65       72       73 </v>
   <v type="int" >        4       22       64       65       72 </v>
   <v type="int" >        4       23       30       31       73 </v>
   <v type="int" >        4       22       23       30       73 </v>
   <v type="int" >        4       22       23       65       73 </v>
   <v type="int" >        4       23       31       73       74 </v>
   <v type="int" >        4       23       66       73       74 </v>
   <v type="int" >        4       23       65       66       73 </v>
   <v type="int" >        4       24       31       32       74 </v>
   <v type="int" >        4       23       24       31       74 </v>
   <v type="int" >        4       23       24       66       74 </v>
   <v type="int" >        4       24       32       74       75 </v>
   <v type="int" >        4       24       67       74       75 </v>
   <v type="int" >        4       24       66       67       74 </v>
   <v type="int" >        4       25       32       33       75 </v>
   <v type="int" >        4       24       25       32       75 </v>
   <v type="int" >        4       24       25       67       75 </v>
   <v type="int" >        4       25       33       75       76 </v>
   <v type="int" >        4       25       68       75       76 </v>
   <v type="int" >        4       25       67       68       75 </v>
   <v type="int" >        4       26       33       34       76 </v>
   <v type="int" >        4       25       26       33       76 </v>
   <v type="int" >        4       25       26       68       76 </v>
   <v type="int" >        4       26       34       76       77 </v>
   <v type="int" >        4       26       69       76       77 </v>
   <v type="int" >        4       26       68       69       76 </v>
   <v type="int" >        4       26       27       34       77 </v>
   <v type="int" >        4       26       27       69       77 </v>
   <v type="int" >        4       27       69       70       77 </v>
   <v type="int" >        4        5       10       11       48 </v>
   <v type="int" >        4        4        5       10       48 </v>
   <v type="int" >        4        4       10       47       48 </v>
   <v type="int" >        4       10       11       48       54 </v>
   <v type="int" >        4       10       48       53       54 </v>
   <v type="int" >        4       10       47       48       53 </v>
   <v type="int" >        4       11       20       21       54 </v>
   <v type="int" >        4       10       11       20       54 </v>
   <v type="int" >        4       10       20       53       54 </v>
   <v type="int" >        4       20       21       54       64 </v>
   <v type="int" >        4       20       54       63       64 </v>
   <v type="int" >        4       20       53       54       63 </v>
   <v type="int" >        4       21       28       29       64 </v>
   <v type="int" >        4       20       21       28       64 </v>
   <v type="int" >        4       20       28       63       64 </v>
   <v type="int" >        4       28       29       64       72 </v>
   <v type="int" >        4       28       64       71       72 </v>
   <v type="int" >        4       28       63       64       71 </v>
   <v type="int" >        4       29       29       35       72 </v>
   <v type="int" >        4       28       29       29       72 </v>
   <v type="int" >        4       28       29       71       72 </v>
   <v type="int" >        4       29       35       72       78 </v>
   <v type="int" >        4       29       72       72       78 </v>
   <v type="int" >        4       29       71       72       72 </v>
   <v type="int" >        4       30       35       36       78 </v>
   <v type="int" >        4       29       30       35       78 </v>
   <v type="int" >        4       29       30       72       78 </v>
   <v type="int" >        4       30       36       78       79 </v>
   <v type="int" >        4       30       73       78       79 </v>
   <v type="int" >        4       30       72       73       78 </v>
   <v type="int" >        4       31       36       37       79 </v>
   <v type="int" >        4       30       31       36       79 </v>
   <v type="int" >        4       30       31       73       79 </v>
   <v type="int" >        4       31       37       79       80 </v>
   <v type="int" >        4       31       74       79       80 </v>
   <v type="int" >        4       31       73       74       79 </v>
   <v type="int" >        4       32       37       38       80 </v>
   <v type="int" >        4       31       32       37       80 </v>
   <v type="int" >        4       31       32       74       80 </v>
   <v type="int" >        4       32       38       80       81 </v>
   <v type="int" >        4       32       75       80       81 </v>
   <v type="int" >        4       32       74       75       80 </v>
   <v type="int" >        4       33       38       39       81 </v>
   <v type="int" >        4       32       33       38       81 </v>
   <v type="int" >        4       32       33       75       81 </v>
   <v type="int" >        4       33       39       81       82 </v>
   <v type="int" >        4       33       76       81       82 </v>
   <v type="int" >        4       33       75       76       81 </v>
   <v type="int" >        4       33       34       39       82 </v>
   <v type="int" >        4       33       34       76       82 </v>
   <v type="int" >        4       34       76       77       82 </v>
   <v type="int" >        4        6       11       12       49 </v>
   <v type="int" >        4        5        6       11       49 </v>
   <v type="int" >        4        5       11       48       49 </v>
   <v type="int" >        4       11       12       49       55 </v>
   <v type="int" >        4       11       49       54       55 </v>
   <v type="int" >        4       11       48       49       54 </v>
   <v type="int" >        4       12       21       22       55 </v>
   <v type="int" >        4       11       12       21       55 </v>
   <v type="int" >        4       11       21       54       55 </v>
   <v type="int" >        4       21       22       55       65 </v>
   <v type="int" >        4       21       55       64       65 </v>
   <v type="int" >        4       21       54       55       64 </v>
   <v type="int" >        4       22       29       30       65 </v>
   <v type="int" >        4       21       22       29       65 </v>
   <v type="int" >        4       21       29       64       65 </v>
   <v type="int" >        4       29       30       65       73 </v>
   <v type="int" >        4       29       65       72       73 </v>
   <v type="int" >        4       29       64       65       72 </v>
   <v type="int" >        4       30       35       36       73 </v>
   <v type="int" >        4       29       30       35       73 </v>
   <v type="int" >        4       29       35       72       73 </v>
   <v type="int" >        4       35       36       73       79 </v>
   <v type="int" >        4       35       73       78       79 </v>
   <v type="int" >        4       35       72       73       78 </v>
   <v type="int" >        4       36       36       40       79 </v>
   <v type="int" >        4       35       36       36       79 </v>
   <v type="int" >        4       35       36       78       79 </v>
   <v type="int" >        4       36       40       79       83 </v>
   <v type="int" >        4       36       79       79       83 </v>
   <v type="int" >        4       36       78       79       79 </v>
   <v type="int" >        4       37       40       41       83 </v>
   <v type="int" >        4       36       37       40       83 </v>
   <v type="int" >        4       36       37       79       83 </v>
   <v type="int" >        4       37       41       83       84 </v>
   <v type="int" >        4       37       80       83       84 </v>
   <v type="int" >        4       37       79       80       83 </v>
   <v type="int" >        4       38       41       42       84 </v>
   <v type="int" >        4       37       38       41       84 </v>
   <v type="int" >        4       37       38       80       84 </v>
   <v type="int" >        4       38       42       84       85 </v>
   <v type="int" >        4       38       81       84       85 </v>
   <v type="int" >        4       38       80       81       84 </v>
   <v type="int" >        4       38       39       42       85 </v>
   <v type="int" >        4       38       39       81       85 </v>
   <v type="int" >        4       39       81       82       85 </v>
   <v type="int" >        4        7       12       13       50 </v>
   <v type="int" >        4        6        7       12       50 </v>
   <v type="int" >        4        6       12       49       50 </v>
   <v type="int" >        4       12       13       50       56 </v>
   <v type="int" >        4       12       50       55       56 </v>
   <v type="int" >        4       12       49       50       55 </v>
   <v type="int" >        4       13       22       23       56 </v>
   <v type="int" >        4       12       13       22       56 </v>
   <v type="int" >        4       12       22       55       56 </v>
   <v type="int" >        4       22       23       56       66 </v>
   <v type="int" >        4       22       56       65       66 </v>
   <v type="int" >        4       22       55       56       65 </v>
   <v type="int" >        4       23       30       31       66 </v>
   <v type="int" >        4       22       23       30       66 </v>
   <v type="int" >        4       22       30       65       66 </v>
   <v type="int" >        4       30       31       66       74 </v>
   <v type="int" >        4       30       66       73       74 </v>
   <v type="int" >        4       30       65       66       73 </v>
   <v type="int" >        4       31       36       37       74 </v>
   <v type="int" >        4       30       31       36       74 </v>
   <v type="int" >        4       30       36       73       74 </v>
   <v type="int" >        4       36       37       74       80 </v>
   <v type="int" >        4       36       74       79       80 </v>
   <v type="int" >        4       36       73       74       79 </v>
   <v type="int" >        4       37       40       41       80 </v>
   <v type="int" >        4       36       37       40       80 </v>
   <v type="int" >        4       36       40       79       80 </v>
   <v type="int" >        4       40       41       80       84 </v>
   <v type="int" >        4       40       80       83       84 </v>
   <v type="int" >        4       40       79       80       83 </v>
   <v type="int" >        4       41       41       43       84 </v>
   <v type="int" >        4       40       41       41       84 </v>
   <v type="int" >        4       40       41       83       84 </v>
   <v type="int" >        4       41       43       84       86 </v>
   <v type="int" >        4       41       84       84       86 </v>
   <v type="int" >        4       41       83       84       84 </v>
   <v type="int" >        4       41       42       43       86 </v>
   <v type="int" >        4       41       42       84       86 </v>
   <v type="int" >        4       42       84       85       86 </v>
   <v type="int" >        4        6       13       14       49 </v>
   <v type="int" >        4        6        7       13       49 </v>
   <v type="int" >        4        7       13       49       50 </v>
   <v type="int" >        4       13       14       49       57 </v>
   <v type="int" >        4       13       49       56       57 </v>
   <v type="int" >        4       13       49       50       56 </v>
   <v type="int" >        4       14       23       24       57 </v>
   <v type="int" >        4       13       14       23       57 </v>
   <v type="int" >        4       13       23       56       57 </v>
   <v type="int" >        4       23       24       57       67 </v>
   <v type="int" >        4       23       57       66       67 </v>
   <v type="int" >        4       23       56       57       66 </v>
   <v type="int" >        4       24       31       32       67 </v>
   <v type="int" >        4       23       24       31       67 </v>
   <v type="int" >        4       23       31       66       67 </v>
   <v type="int" >        4       31       32       67       75 </v>
   <v type="int" >        4       31       67       74       75 </v>
   <v type="int" >        4       31       66       67       74 </v>
   <v type="int" >        4       32       37       38       75 </v>
   <v type="int" >        4       31       32       37       75 </v>
   <v type="int" >        4       31       37       74       75 </v>
   <v type="int" >        4       37       38       75       81 </v>
   <v type="int" >        4       37       75       80       81 </v>
   <v type="int" >        4       37       74       75       80 </v>
   <v type="int" >        4       38       41       42       81 </v>
   <v type="int" >        4       37       38       41       81 </v>
   <v type="int" >        4       37       41       80       81 </v>
   <v type="int" >        4       41       42       81       85 </v>
   <v type="int" >        4       41       81       84       85 </v>
   <v type="int" >        4       41       80       81       84 </v>
   <v type="int" >        4       41       42       43       85 </v>
   <v type="int" >        4       41       43       84       85 </v>
   <v type="int" >        4       43       84       85       86 </v>
   <v type="int" >        4        5       14       15       48 </v>
   <v type="int" >        4        5        6       14       48 </v>
   <v type="int" >        4        6       14       48       49 </v>
   <v type="int" >        4       14       15       48       58 </v>
   <v type="int" >        4       14       48       57       58 </v>
   <v type="int" >        4       14       48       49       57 </v>
   <v type="int" >        4       15       24       25       58 </v>
   <v type="int" >        4       14       15       24       58 </v>
   <v type="int" >        4       14       24       57       58 </v>
   <v type="int" >        4       24       25       58       68 </v>
   <v type="int" >        4       24       58       67       68 </v>
   <v type="int" >        4       24       57       58       67 </v>
   <v type="int" >        4       25       32       33       68 </v>
   <v type="int" >        4       24       25       32       68 </v>
   <v type="int" >        4       24       32       67       68 </v>
   <v type="int" >        4       32       33       68       76 </v>
   <v type="int" >        4       32       68       75       76 </v>
   <v type="int" >        4       32       67       68       75 </v>
   <v type="int" >        4       33       38       39       76 </v>
   <v type="int" >        4       32       33       38       76 </v>
   <v type="int" >        4       32       38       75       76 </v>
   <v type="int" >        4       38       39       76       82 </v>
   <v type="int" >        4       38       76       81       82 </v>
   <v type="int" >        4       38       75       76       81 </v>
   <v type="int" >        4       38       39       42       82 </v>
   <v type="int" >        4       38       42       81       82 </v>
   <v type="int" >        4       42       81       82       85 </v>
   <v type="int" >        4        4       15       16       47 </v>
   <v type="int" >        4        4        5       15       47 </v>
   <v type="int" >        4        5       15       47       48 </v>
   <v type="int" >        4       15       16       47       59 </v>
   <v type="int" >        4       15       47       58       59 </v>
   <v type="int" >        4       15       47       48       58 </v>
   <v type="int" >        4       16       25       26       59 </v>
   <v type="int" >        4       15       16       25       59 </v>
   <v type="int" >        4       15       25       58       59 </v>
   <v type="int" >        4       25       26       59       69 </v>
   <v type="int" >        4       25       59       68       69 </v>
   <v type="int" >        4       25       58       59       68 </v>
   <v type="int" >        4       26       33       34       69 </v>
   <v type="int" >        4       25       26       33       69 </v>
   <v type="int" >        4       25       33       68       69 </v>
   <v type="int" >        4       33       34       69       77 </v>
   <v type="int" >        4       33       69       76       77 </v>
   <v type="int" >        4       33       68       69       76 </v>
   <v type="int" >        4       33       34       39       77 </v>
   <v type="int" >        4       33       39       76       77 </v>
   <v type="int" >        4       39       76       77       82 </v>
   <v type="int" >        4        3       16       17       46 </v>
   <v type="int" >        4        3        4       16       46 </v>
   <v type="int" >        4        4       16       46       47 </v>
   <v type="int" >        4       16       17       46       60 </v>
   <v type="int" >        4       16       46       59       60 </v>
   <v type="int" >        4       16       46       47       59 </v>
   <v type="int" >        4       17       26       27       60 </v>
   <v type="int" >        4       16       17       26       60 </v>
   <v type="int" >        4       16       26       59       60 </v>
   <v type="int" >        4       26       27       60       70 </v>
   <v type="int" >        4       26       60       69       70 </v>
   <v type="int" >        4       26       59       60       69 </v>
   <v type="int" >        4       26       27       34       70 </v>
   <v type="int" >        4       26       34       69       70 </v>
   <v type="int" >        4       34       69       70       77 </v>
   <v type="int" >        4        2       17       18       45 </v>
   <v type="int" >        4        2        3       17       45 </v>
   <v type="int" >        4        3       17       45       46 </v>
   <v type="int" >        4       17       18       45       61 </v>
   <v type="int" >        4       17       45       60       61 </v>
   <v type="int" >        4       17       45       46       60 </v>
   <v type="int" >        4       17       18       27       61 </v>
   <v type="int" >        4       17       27       60       61 </v>
   <v type="int" >        4       27       60       61       70 </v>
   <v type="int" >        4        1        2       18       44 </v>
   <v type="int" >        4        2       18       44       45 </v>
   <v type="int" >        4       18       44       45       61 </v>
   <v type="int" >        4       45       45       51       88 </v>
   <v type="int" >        4       44       45       45       88 </v>
   <v type="int" >        4       44       45       87       88 </v>
   <v type="int" >        4       45       51       88       94 </v>
   <v type="int" >        4       45       88       88       94 </v>
   <v type="int" >        4       45       87       88       88 </v>
   <v type="int" >        4       46       51       52       94 </v>
   <v type="int" >        4       45       46       51       94 </v>
   <v type="int" >        4       45       46       88       94 </v>
   <v type="int" >        4       46       52       94       95 </v>
   <v type="int" >        4       46       89       94       95 </v>
   <v type="int" >        4       46       88       89       94 </v>
   <v type="int" >        4       47       52       53       95 </v>
   <v type="int" >        4       46       47       52       95 </v>
   <v type="int" >        4       46       47       89       95 </v>
   <v type="int" >        4       47       53       95       96 </v>
   <v type="int" >        4       47       90       95       96 </v>
   <v type="int" >        4       47       89       90       95 </v>
   <v type="int" >        4       48       53       54       96 </v>
   <v type="int" >        4       47       48       53       96 </v>
   <v type="int" >        4       47       48       90       96 </v>
   <v type="int" >        4       48       54       96       97 </v>
   <v type="int" >        4       48       91       96       97 </v>
   <v type="int" >        4       48       90       91       96 </v>
   <v type="int" >        4       49       54       55       97 </v>
   <v type="int" >        4       48       49       54       97 </v>
   <v type="int" >        4       48       49       91       97 </v>
   <v type="int" >        4       49       55       97       98 </v>
   <v type="int" >        4       49       92       97       98 </v>
   <v type="int" >        4       49       91       92       97 </v>
   <v type="int" >        4       50       55       56       98 </v>
   <v type="int" >        4       49       50       55       98 </v>
   <v type="int" >        4       49       50       92       98 </v>
   <v type="int" >        4       50       56       98       99 </v>
   <v type="int" >        4       50       93       98       99 </v>
   <v type="int" >        4       50       92       93       98 </v>
   <v type="int" >        4       49       56       57       99 </v>
   <v type="int" >        4       49       50       56       99 </v>
   <v type="int" >        4       49       50       93       99 </v>
   <v type="int" >        4       49       57       99      100 </v>
   <v type="int" >        4       49       92       99      100 </v>
   <v type="int" >        4       49       92       93       99 </v>
   <v type="int" >        4       48       57       58      100 </v>
   <v type="int" >        4       48       49       57      100 </v>
   <v type="int" >        4       48       49       92      100 </v>
   <v type="int" >        4       48       58      100      101 </v>
   <v type="int" >        4       48       91      100      101 </v>
   <v type="int" >        4       48       91       92      100 </v>
   <v type="int" >        4       47       58       59      101 </v>
   <v type="int" >        4       47       48       58      101 </v>
   <v type="int" >        4       47       48       91      101 </v>
   <v type="int" >        4       47       59      101      102 </v>
   <v type="int" >        4       47       90      101      102 </v>
   <v type="int" >        4       47       90       91      101 </v>
   <v type="int" >        4       46       59       60      102 </v>
   <v type="int" >        4       46       47       59      102 </v>
   <v type="int" >        4       46       47       90      102 </v>
   <v type="int" >        4       46       60      102      103 </v>
   <v type="int" >        4       46       89      102      103 </v>
   <v type="int" >        4       46       89       90      102 </v>
   <v type="int" >        4       45       60       61      103 </v>
   <v type="int" >        4       45       46       60      103 </v>
   <v type="int" >        4       45       46       89      103 </v>
   <v type="int" >        4       45       61      103      104 </v>
   <v type="int" >        4       45       88      103      104 </v>
   <v type="int" >        4       45       88       89      103 </v>
   <v type="int" >        4       44       45       61      104 </v>
   <v type="int" >        4       44       45       88      104 </v>
   <v type="int" >        4       44       87       88      104 </v>
   <v type="int" >        4       46       51       52       89 </v>
   <v type="int" >        4       45       46       51       89 </v>
   <v type="int" >        4       45       51       88       89 </v>
   <v type="int" >        4       51       52       89       95 </v>
   <v type="int" >        4       51       89       94       95 </v>
   <v type="int" >        4       51       88       89       94 </v>
   <v type="int" >        4       52       52       62       95 </v>
   <v type="int" >        4       51       52       52       95 </v>
   <v type="int" >        4       51       52       94       95 </v>
   <v type="int" >        4       52       62       95      105 </v>
   <v type="int" >        4       52       95       95      105 </v>
   <v type="int" >        4       52       94       95       95 </v>
   <v type="int" >        4       53       62       63      105 </v>
   <v type="int" >        4       52       53       62      105 </v>
   <v type="int" >        4       52       53       95      105 </v>
   <v type="int" >        4       53       63      105      106 </v>
   <v type="int" >        4       53       96      105      106 </v>
   <v type="int" >        4       53       95       96      105 </v>
   <v type="int" >        4       54       63       64      106 </v>
   <v type="int" >        4       53       54       63      106 </v>
   <v type="int" >        4       53       54       96      106 </v>
   <v type="int" >        4       54       64      106      107 </v>
   <v type="int" >        4       54       97      106      107 </v>
   <v type="int" >        4       54       96       97      106 </v>
   <v type="int" >        4       55       64       65      107 </v>
   <v type="int" >        4       54       55       64      107 </v>
   <v type="int" >        4       54       55       97      107 </v>
   <v type="int" >        4       55       65      107      108 </v>
   <v type="int" >        4       55       98      107      108 </v>
   <v type="int" >        4       55       97       98      107 </v>
   <v type="int" >        4       56       65       66      108 </v>
   <v type="int" >        4       55       56       65      108 </v>
   <v type="int" >        4       55       56       98      108 </v>
   <v type="int" >        4       56       66      108      109 </v>
   <v type="int" >        4       56       99      108      109 </v>
   <v type="int" >        4       56       98       99      108 </v>
   <v type="int" >        4       57       66       67      109 </v>
   <v type="int" >        4       56       57       66      109 </v>
   <v type="int" >        4       56       57       99      109 </v>
   <v type="int" >        4       57       67      109      110 </v>
   <v type="int" >        4       57      100      109      110 </v>
   <v type="int" >        4       57       99      100      109 </v>
   <v type="int" >        4       58       67       68      110 </v>
   <v type="int" >        4       57       58       67      110 </v>
   <v type="int" >        4       57       58      100      110 </v>
   <v type="int" >        4       58       68      110      111 </v>
   <v type="int" >        4       58      101      110      111 </v>
   <v type="int" >        4       58      100      101      110 </v>
   <v type="int" >        4       59       68       69      111 </v>
   <v type="int" >        4       58       59       68      111 </v>
   <v type="int" >        4       58       59      101      111 </v>
   <v type="int" >        4       59       69      111      112 </v>
   <v type="int" >        4       59      102      111      112 </v>
   <v type="int" >        4       59      101      102      111 </v>
   <v type="int" >        4       60       69       70      112 </v>
   <v type="int" >        4       59       60       69      112 </v>
   <v type="int" >        4       59       60      102      112 </v>
   <v type="int" >        4       60       70      112      113 </v>
   <v type="int" >        4       60      103      112      113 </v>
   <v type="int" >        4       60      102      103      112 </v>
   <v type="int" >        4       60       61       70      113 </v>
   <v type="int" >        4       60       61      103      113 </v>
   <v type="int" >        4       61      103      104      113 </v>
   <v type="int" >        4       47       52       53       90 </v>
   <v type="int" >        4       46       47       52       90 </v>
   <v type="int" >        4       46       52       89       90 </v>
   <v type="int" >        4       52       53       90       96 </v>
   <v type="int" >        4       52       90       95       96 </v>
   <v type="int" >        4       52       89       90       95 </v>
   <v type="int" >        4       53       62       63       96 </v>
   <v type="int" >        4       52       53       62       96 </v>
   <v type="int" >        4       52       62       95       96 </v>
   <v type="int" >        4       62       63       96      106 </v>
   <v type="int" >        4       62       96      105      106 </v>
   <v type="int" >        4       62       95       96      105 </v>
   <v type="int" >        4       63       63       71      106 </v>
   <v type="int" >        4       62       63       63      106 </v>
   <v type="int" >        4       62       63      105      106 </v>
   <v type="int" >        4       63       71      106      114 </v>
   <v type="int" >        4       63      106      106      114 </v>
   <v type="int" >        4       63      105      106      106 </v>
   <v type="int" >        4       64       71       72      114 </v>
   <v type="int" >        4       63       64       71      114 </v>
   <v type="int" >        4       63       64      106      114 </v>
   <v type="int" >        4       64       72      114      115 </v>
   <v type="int" >        4       64      107      114      115 </v>
   <v type="int" >        4       64      106      107      114 </v>
   <v type="int" >        4       65       72       73      115 </v>
   <v type="int" >        4       64       65       72      115 </v>
   <v type="int" >        4       64       65      107      115 </v>
   <v type="int" >        4       65       73      115      116 </v>
   <v type="int" >        4       65      108      115      116 </v>
   <v type="int" >        4       65      107      108      115 </v>
   <v type="int" >        4       66       73       74      116 </v>
   <v type="int" >        4       65       66       73      116 </v>
   <v type="int" >        4       65       66      108      116 </v>
   <v type="int" >        4       66       74      116      117 </v>
   <v type="int" >        4       66      109      116      117 </v>
   <v type="int" >        4       66      108      109      116 </v>
   <v type="int" >        4       67       74       75      117 </v>
   <v type="int" >        4       66       67       74      117 </v>
   <v type="int" >        4       66       67      109      117 </v>
   <v type="int" >        4       67       75      117      118 </v>
   <v type="int" >        4       67      110      117      118 </v>
   <v type="int" >        4       67      109      110      117 </v>
   <v type="int" >        4       68       75       76      118 </v>
   <v type="int" >        4       67       68       75      118 </v>
   <v type="int" >        4       67       68      110      118 </v>
   <v type="int" >        4       68       76      118      119 </v>
   <v type="int" >        4       68      111      118      119 </v>
   <v type="int" >        4       68      110      111      118 </v>
   <v type="int" >        4       69       76       77      119 </v>
   <v type="int" >        4       68       69       76      119 </v>
   <v type="int" >        4       68       69      111      119 </v>
   <v type="int" >        4       69       77      119      120 </v>
   <v type="int" >        4       69      112      119      120 </v>
   <v type="int" >        4       69      111      112      119 </v>
   <v type="int" >        4       69       70       77      120 </v>
   <v type="int" >        4       69       70      112      120 </v>
   <v type="int" >        4       70      112      113      120 </v>
   <v type="int" >        4       48       53       54       91 </v>
   <v type="int" >        4       47       48       53       91 </v>
   <v type="int" >        4       47       53       90       91 </v>
   <v type="int" >        4       53       54       91       97 </v>
   <v type="int" >        4       53       91       96       97 </v>
   <v type="int" >        4       53       90       91       96 </v>
   <v type="int" >        4       54       63       64       97 </v>
   <v type="int" >        4       53       54       63       97 </v>
   <v type="int" >        4       53       63       96       97 </v>
   <v type="int" >        4       63       64       97      107 </v>
   <v type="int" >        4       63       97      106      107 </v>
   <v type="int" >        4       63       96       97      106 </v>
   <v type="int" >        4       64       71       72      107 </v>
   <v type="int" >        4       63       64       71      107 </v>
   <v type="int" >        4       63       71      106      107 </v>
   <v type="int" >        4       71       72      107      115 </v>
   <v type="int" >        4       71      107      114      115 </v>
   <v type="int" >        4       71      106      107      114 </v>
   <v type="int" >        4       72       72       78      115 </v>
   <v type="int" >        4       71       72       72      115 </v>
   <v type="int" >        4       71       72      114      115 </v>
   <v type="int" >        4       72       78      115      121 </v>
   <v type="int" >        4       72      115      115      121 </v>
   <v type="int" >        4       72      114      115      115 </v>
   <v type="int" >        4       73       78       79      121 </v>
   <v type="int" >        4       72       73       78      121 </v>
   <v type="int" >        4       72       73      115      121 </v>
   <v type="int" >        4       73       79      121      122 </v>
   <v type="int" >        4       73      116      121      122 </v>
   <v type="int" >        4       73      115      116      121 </v>
   <v type="int" >        4       74       79       80      122 </v>
   <v type="int" >        4       73       74       79      122 </v>
   <v type="int" >        4       73       74      116      122 </v>
   <v type="int" >        4       74       80      122      123 </v>
   <v type="int" >        4       74      117      122      123 </v>
   <v type="int" >        4       74      116      117      122 </v>
   <v type="int" >        4       75       80       81      123 </v>
   <v type="int" >        4       74       75       80      123 </v>
   <v type="int" >        4       74       75      117      123 </v>
   <v type="int" >        4       75       81      123      124 </v>
   <v type="int" >        4       75      118      123      124 </v>
   <v type="int" >        4       75      117      118      123 </v>
   <v type="int" >        4       76       81       82      124 </v>
   <v type="int" >        4       75       76       81      124 </v>
   <v type="int" >        4       75       76      118      124 </v>
   <v type="int" >        4       76       82      124      125 </v>
   <v type="int" >        4       76      119      124      125 </v>
   <v type="int" >        4       76      118      119      124 </v>
   <v type="int" >        4       76       77       82      125 </v>
   <v type="int" >        4       76       77      119      125 </v>
   <v type="int" >        4       77      119      120      125 </v>
   <v type="int" >        4       49       54       55       92 </v>
   <v type="int" >        4       48       49       54       92 </v>
   <v type="int" >        4       48       54       91       92 </v>
   <v type="int" >        4       54       55       92       98 </v>
   <v type="int" >        4       54       92       97       98 </v>
   <v type="int" >        4       54       91       92       97 </v>
   <v type="int" >        4       55       64       65       98 </v>
   <v type="int" >        4       54       55       64       98 </v>
   <v type="int" >        4       54       64       97       98 </v>
   <v type="int" >        4       64       65       98      108 </v>
   <v type="int" >        4       64       98      107      108 </v>
   <v type="int" >        4       64       97       98      107 </v>
   <v type="int" >        4       65       72       73      108 </v>
   <v type="int" >        4       64       65       72      108 </v>
   <v type="int" >        4       64       72      107      108 </v>
   <v type="int" >        4       72       73      108      116 </v>
   <v type="int" >        4       72      108      115      116 </v>
   <v type="int" >        4       72      107      108      115 </v>
   <v type="int" >        4       73       78       79      116 </v>
   <v type="int" >        4       72       73       78      116 </v>
   <v type="int" >        4       72       78      115      116 </v>
   <v type="int" >        4       78       79      116      122 </v>
   <v type="int" >        4       78      116      121      122 </v>
   <v type="int" >        4       78      115      116      121 </v>
   <v type="int" >        4       79       79       83      122 </v>
   <v type="int" >        4       78       79       79      122 </v>
   <v type="int" >        4       78       79      121      122 </v>
   <v type="int" >        4       79       83      122      126 </v>
   <v type="int" >        4       79      122      122      126 </v>
   <v type="int" >        4       79      121      122      122 </v>
   <v type="int" >        4       80       83       84      126 </v>
   <v type="int" >        4       79       80       83      126 </v>
   <v type="int" >        4       79       80      122      126 </v>
   <v type="int" >        4       80       84      126      127 </v>
   <v type="int" >        4       80      123      126      127 </v>
   <v type="int" >        4       80      122      123      126 </v>
   <v type="int" >        4       81       84       85      127 </v>
   <v type="int" >        4       80       81       84      127 </v>
   <v type="int" >        4       80       81      123      127 </v>
   <v type="int" >        4       81       85      127      128 </v>
   <v type="int" >        4       81      124      127      128 </v>
   <v type="int" >        4       81      123      124      127 </v>
   <v type="int" >        4       81       82       85      128 </v>
   <v type="int" >        4       81       82      124      128 </v>
   <v type="int" >        4       82      124      125      128 </v>
   <v type="int" >        4       50       55       56       93 </v>
   <v type="int" >        4       49       50       55       93 </v>
   <v type="int" >        4       49       55       92       93 </v>
   <v type="int" >        4       55       56       93       99 </v>
   <v type="int" >        4       55       93       98       99 </v>
   <v type="int" >        4       55       92       93       98 </v>
   <v type="int" >        4       56       65       66       99 </v>
   <v type="int" >        4       55       56       65       99 </v>
   <v type="int" >        4       55       65       98       99 </v>
   <v type="int" >        4       65       66       99      109 </v>
   <v type="int" >        4       65       99      108      109 </v>
   <v type="int" >        4       65       98       99      108 </v>
   <v type="int" >        4       66       73       74      109 </v>
   <v type="int" >        4       65       66       73      109 </v>
   <v type="int" >        4       65       73      108      109 </v>
   <v type="int" >        4       73       74      109      117 </v>
   <v type="int" >        4       73      109      116      117 </v>
   <v type="int" >        4       73      108      109      116 </v>
   <v type="int" >        4       74       79       80      117 </v>
   <v type="int" >        4       73       74       79      117 </v>
   <v type="int" >        4       73       79      116      117 </v>
   <v type="int" >        4       79       80      117      123 </v>
   <v type="int" >        4       79      117      122      123 </v>
   <v type="int" >        4       79      116      117      122 </v>
   <v type="int" >        4       80       83       84      123 </v>
   <v type="int" >        4       79       80       83      123 </v>
   <v type="int" >        4       79       83      122      123 </v>
   <v type="int" >        4       83       84      123      127 </v>
   <v type="int" >        4       83      123      126      127 </v>
   <v type="int" >        4       83      122      123      126 </v>
   <v type="int" >        4       84       84       86      127 </v>
   <v type="int" >        4       83       84       84      127 </v>
   <v type="int" >        4       83       84      126      127 </v>
   <v type="int" >        4       84       86      127      129 </v>
   <v type="int" >        4       84      127      127      129 </v>
   <v type="int" >        4       84      126      127      127 </v>
   <v type="int" >        4       84       85       86      129 </v>
   <v type="int" >        4       84       85      127      129 </v>
   <v type="int" >        4       85      127      128      129 </v>
   <v type="int" >        4       49       56       57       92 </v>
   <v type="int" >        4       49       50       56       92 </v>
   <v type="int" >        4       50       56       92       93 </v>
   <v type="int" >        4       56       57       92      100 </v>
   <v type="int" >        4       56       92       99      100 </v>
   <v type="int" >        4       56       92       93       99 </v>
   <v type="int" >        4       57       66       67      100 </v>
   <v type="int" >        4       56       57       66      100 </v>
   <v type="int" >        4       56       66       99      100 </v>
   <v type="int" >        4       66       67      100      110 </v>
   <v type="int" >        4       66      100      109      110 </v>
   <v type="int" >        4       66       99      100      109 </v>
   <v type="int" >        4       67       74       75      110 </v>
   <v type="int" >        4       66       67       74      110 </v>
   <v type="int" >        4       66       74      109      110 </v>
   <v type="int" >        4       74       75      110      118 </v>
   <v type="int" >        4       74      110      117      118 </v>
   <v type="int" >        4       74      109      110      117 </v>
   <v type="int" >        4       75       80       81      118 </v>
   <v type="int" >        4       74       75       80      118 </v>
   <v type="int" >        4       74       80      117      118 </v>
   <v type="int" >        4       80       81      118      124 </v>
   <v type="int" >        4       80      118      123      124 </v>
   <v type="int" >        4       80      117      118      123 </v>
   <v type="int" >        4       81       84       85      124 </v>
   <v type="int" >        4       80       81       84      124 </v>
   <v type="int" >        4       80       84      123      124 </v>
   <v type="int" >        4       84       85      124      128 </v>
   <v type="int" >        4       84      124      127      128 </v>
   <v type="int" >        4       84      123      124      127 </v>
   <v type="int" >        4       84       85       86      128 </v>
   <v type="int" >        4       84       86      127      128 </v>
   <v type="int" >        4       86      127      128      129 </v>
   <v type="int" >        4       48       57       58       91 </v>
   <v type="int" >        4       48       49       57       91 </v>
   <v type="int" >        4       49       57       91       92 </v>
   <v type="int" >        4       57       58       91      101 </v>
   <v type="int" >        4       57       91      100      101 </v>
   <v type="int" >        4       57       91       92      100 </v>
   <v type="int" >        4       58       67       68      101 </v>
   <v type="int" >        4       57       58       67      101 </v>
   <v type="int" >        4       57       67      100      101 </v>
   <v type="int" >        4       67       68      101      111 </v>
   <v type="int" >        4       67      101      110      111 </v>
   <v type="int" >        4       67      100      101      110 </v>
   <v type="int" >        4       68       75       76      111 </v>
   <v type="int" >        4       67       68       75      111 </v>
   <v type="int" >        4       67       75      110      111 </v>
   <v type="int" >        4       75       76      111      119 </v>
   <v type="int" >        4       75      111      118      119 </v>
   <v type="int" >        4       75      110      111      118 </v>
   <v type="int" >        4       76       81       82      119 </v>
   <v type="int" >        4       75       76       81      119 </v>
   <v type="int" >        4       75       81      118      119 </v>
   <v type="int" >        4       81       82      119      125 </v>
   <v type="int" >        4       81      119      124      125 </v>
   <v type="int" >        4       81      118      119      124 </v>
   <v type="int" >        4       81       82       85      125 </v>
   <v type="int" >        4       81       85      124      125 </v>
   <v type="int" >        4       85      124      125      128 </v>
   <v type="int" >        4       47       58       59       90 </v>
   <v type="int" >        4       47       48       58       90 </v>
   <v type="int" >        4       48       58       90       91 </v>
   <v type="int" >        4       58       59       90      102 </v>
   <v type="int" >        4       58       90      101      102 </v>
   <v type="int" >        4       58       90       91      101 </v>
   <v type="int" >        4       59       68       69      102 </v>
   <v type="int" >        4       58       59       68      102 </v>
   <v type="int" >        4       58       68      101      102 </v>
   <v type="int" >        4       68       69      102      112 </v>
   <v type="int" >        4       68      102      111      112 </v>
   <v type="int" >        4       68      101      102      111 </v>
   <v type="int" >        4       69       76       77      112 </v>
   <v type="int" >        4       68       69       76      112 </v>
   <v type="int" >        4       68       76      111      112 </v>
   <v type="int" >        4       76       77      112      120 </v>
   <v type="int" >        4       76      112      119      120 </v>
   <v type="int" >        4       76      111      112      119 </v>
   <v type="int" >        4       76       77       82      120 </v>
   <v type="int" >        4       76       82      119      120 </v>
   <v type="int" >        4       82      119      120      125 </v>
   <v type="int" >        4       46       59       60       89 </v>
   <v type="int" >        4       46       47       59       89 </v>
   <v type="int" >        4       47       59       89       90 </v>
   <v type="int" >        4       59       60       89      103 </v>
   <v type="int" >        4       59       89      102      103 </v>
   <v type="int" >        4       59       89       90      102 </v>
   <v type="int" >        4       60       69       70      103 </v>
   <v type="int" >        4       59       60       69      103 </v>
   <v type="int" >        4       59       69      102      103 </v>
   <v type="int" >        4       69       70      103      113 </v>
   <v type="int" >        4       69      103      112      113 </v>
[...]
       <r>   -9.2623    1.0000 </r>
       <r>   -9.2623    1.0000 </r>
       <r>   -7.3954    1.0000 </r>
       <r>   -7.3954    1.0000 </r>
       <r>   -5.0966    1.0000 </r>
       <r>   -5.0966    1.0000 </r>
       <r>    3.1674    1.0000 </r>
       <r>    3.1674    1.0004 </r>
       <r>    5.8197    0.0000 </r>
       <r>    5.8197    0.0000 </r>
       <r>   15.0269    0.0000 </r>
       <r>   15.0269    0.0000 </r>
      </set>
      <set comment="kpoint 209">
       <r>  -10.5369    1.0000 </r>
       <r>  -10.5369    1.0000 </r>
       <r>   -6.8516    1.0000 </r>
       <r>   -6.8516    1.0000 </r>
       <r>   -3.4774    1.0000 </r>
       <r>   -3.4774    1.0000 </r>
       <r>    1.8658    1.0000 </r>
       <r>    1.8658    1.0000 </r>
       <r>    7.0330    0.0000 </r>
       <r>    7.0330    0.0000 </r>
       <r>   14.5161    0.0000 </r>
       <r>   14.5161    0.0000 </r>
      </set>
      <set comment="kpoint 210">
       <r>  -11.6003    1.0000 </r>
       <r>  -11.6003    1.0000 </r>
       <r>   -6.0803    1.0000 </r>
       <r>   -6.0803    1.0000 </r>
       <r>   -2.0003    1.0000 </r>
       <r>   -2.0003    1.0000 </r>
       <r>    0.7450    1.0000 </r>
       <r>    0.7450    1.0000 </r>
       <r>    8.2286    0.0000 </r>
       <r>    8.2286    0.0000 </r>
       <r>   12.8392    0.0000 </r>
       <r>   12.8392    0.0000 </r>
      </set>
      <set comment="kpoint 211">
       <r>  -12.3834    1.0000 </r>
       <r>  -12.3834    1.0000 </r>
       <r>   -5.0808    1.0000 </r>
       <r>   -5.0808    1.0000 </r>
       <r>   -1.2076    1.0000 </r>
       <r>   -1.2076    1.0000 </r>
       <r>   -0.1051    1.0000 </r>
       <r>   -0.1051    1.0000 </r>
       <r>    9.4155    0.0000 </r>
       <r>    9.4155    0.0000 </r>
       <r>   12.2535    0.0000 </r>
       <r>   12.2535    0.0000 </r>
      </set>
      <set comment="kpoint 212">
       <r>   -9.3074    1.0000 </r>
       <r>   -9.3074    1.0000 </r>
       <r>   -8.2819    1.0000 </r>
       <r>   -8.2819    1.0000 </r>
       <r>   -3.6618    1.0000 </r>
       <r>   -3.6618    1.0000 </r>
       <r>    2.7593    1.0000 </r>
       <r>    2.7593    1.0000 </r>
       <r>    5.9626    0.0000 </r>
       <r>    5.9626    0.0000 </r>
       <r>   14.4496    0.0000 </r>
       <r>   14.4496    0.0000 </r>
      </set>
      <set comment="kpoint 213">
       <r>  -10.1228    1.0000 </r>
       <r>  -10.1228    1.0000 </r>
       <r>   -8.0199    1.0000 </r>
       <r>   -8.0199    1.0000 </r>
       <r>   -2.3280    1.0000 </r>
       <r>   -2.3280    1.0000 </r>
       <r>    2.0543    1.0000 </r>
       <r>    2.0543    1.0000 </r>
       <r>    6.4570    0.0000 </r>
       <r>    6.4570    0.0000 </r>
       <r>   12.6831    0.0000 </r>
       <r>   12.6831    0.0000 </r>
      </set>
      <set comment="kpoint 214">
       <r>  -10.9884    1.0000 </r>
       <r>  -10.9884    1.0000 </r>
       <r>   -7.1804    1.0000 </r>
       <r>   -7.1804    1.0000 </r>
       <r>   -1.6797    1.0000 </r>
       <r>   -1.6797    1.0000 </r>
       <r>    1.3161    1.0000 </r>
       <r>    1.3161    1.0000 </r>
       <r>    7.2767    0.0000 </r>
       <r>    7.2767    0.0000 </r>
       <r>   12.0283    0.0000 </r>
       <r>   12.0283    0.0000 </r>
      </set>
      <set comment="kpoint 215">
       <r>   -9.7301    1.0000 </r>
       <r>   -9.7301    1.0000 </r>
       <r>   -8.6814    1.0000 </r>
       <r>   -8.6814    1.0000 </r>
       <r>   -1.8417    1.0000 </r>
       <r>   -1.8417    1.0000 </r>
       <r>    2.1618    1.0000 </r>
       <r>    2.1618    1.0000 </r>
       <r>    6.1764    0.0000 </r>
       <r>    6.1764    0.0000 </r>
       <r>   11.9453    0.0000 </r>
       <r>   11.9453    0.0000 </r>
      </set>
     </set>
    </set>
   </array>
  </eigenvalues>
  <separator name="orbital magnetization" >
   <v name="MAGDIPOLOUT">      0.00000000      0.00000000      0.00000000</v>
  </separator>
  <dos>
   <i name="efermi">      4.51737752 </i>
   <total>
    <array>
     <dimension dim="1">gridpoints</dimension>
     <dimension dim="2">spin</dimension>
     <field>energy</field>
     <field>total</field>
     <field>integrated</field>
     <set>
      <set comment="spin 1">
       <r>   -17.0935     0.0000     0.0000 </r>
       <r>   -16.9752     0.0000     0.0000 </r>
       <r>   -16.8569     0.0000     0.0000 </r>
       <r>   -16.7385     0.0000     0.0000 </r>
       <r>   -16.6202     0.0000     0.0000 </r>
       <r>   -16.5019     0.0000     0.0000 </r>
       <r>   -16.3836     0.0000     0.0000 </r>
       <r>   -16.2652     0.0000     0.0000 </r>
       <r>   -16.1469     0.0000     0.0000 </r>
       <r>   -16.0286     0.0000     0.0000 </r>
       <r>   -15.9103     0.0000     0.0000 </r>
       <r>   -15.7920     0.0000     0.0000 </r>
       <r>   -15.6736     0.0000     0.0000 </r>
       <r>   -15.5553     0.0000     0.0000 </r>
       <r>   -15.4370     0.0000     0.0000 </r>
       <r>   -15.3187     0.0000     0.0000 </r>
       <r>   -15.2003     0.0000     0.0000 </r>
       <r>   -15.0820     0.0052     0.0000 </r>
       <r>   -14.9637     0.2544     0.0128 </r>
       <r>   -14.8454     0.4276     0.0550 </r>
       <r>   -14.7270     0.6372     0.1199 </r>
       <r>   -14.6087     0.6086     0.1925 </r>
       <r>   -14.4904     0.6343     0.2667 </r>
       <r>   -14.3721     0.6228     0.3411 </r>
       <r>   -14.2537     0.5995     0.4133 </r>
       <r>   -14.1354     0.6087     0.4844 </r>
       <r>   -14.0171     0.6307     0.5577 </r>
       <r>   -13.8988     0.6373     0.6332 </r>
       <r>   -13.7805     0.6313     0.7083 </r>
       <r>   -13.6621     0.6129     0.7819 </r>
       <r>   -13.5438     0.6114     0.8543 </r>
       <r>   -13.4255     0.6160     0.9268 </r>
       <r>   -13.3072     0.6264     1.0003 </r>
       <r>   -13.1888     0.6380     1.0751 </r>
       <r>   -13.0705     0.6454     1.1512 </r>
       <r>   -12.9522     0.6382     1.2272 </r>
       <r>   -12.8339     0.6269     1.3021 </r>
       <r>   -12.7155     0.6240     1.3759 </r>
       <r>   -12.5972     0.6272     1.4500 </r>
       <r>   -12.4789     0.6304     1.5244 </r>
       <r>   -12.3606     0.6353     1.5992 </r>
       <r>   -12.2422     0.6420     1.6748 </r>
       <r>   -12.1239     0.6496     1.7512 </r>
       <r>   -12.0056     0.6555     1.8285 </r>
       <r>   -11.8873     0.6529     1.9059 </r>
       <r>   -11.7690     0.6465     1.9828 </r>
       <r>   -11.6506     0.6451     2.0592 </r>
       <r>   -11.5323     0.6471     2.1356 </r>
       <r>   -11.4140     0.6524     2.2125 </r>
       <r>   -11.2957     0.6582     2.2900 </r>
       <r>   -11.1773     0.6641     2.3682 </r>
       <r>   -11.0590     0.6700     2.4471 </r>
       <r>   -10.9407     0.6791     2.5269 </r>
       <r>   -10.8224     0.6920     2.6080 </r>
       <r>   -10.7040     0.7046     2.6907 </r>
       <r>   -10.5857     0.7154     2.7747 </r>
       <r>   -10.4674     0.7346     2.8603 </r>
       <r>   -10.3491     0.7652     2.9490 </r>
       <r>   -10.2307     0.7968     3.0414 </r>
       <r>   -10.1124     1.0751     3.1526 </r>
       <r>    -9.9941     1.1984     3.2913 </r>
       <r>    -9.8758     0.9323     3.4174 </r>
       <r>    -9.7575     0.6704     3.5120 </r>
       <r>    -9.6391     0.5441     3.5819 </r>
       <r>    -9.5208     0.4880     3.6429 </r>
       <r>    -9.4025     0.4319     3.6974 </r>
       <r>    -9.2842     0.7171     3.7800 </r>
       <r>    -9.1658     0.2591     3.8574 </r>
       <r>    -9.0475     0.2312     3.8864 </r>
       <r>    -8.9292     0.2034     3.9121 </r>
       <r>    -8.8109     0.1755     3.9345 </r>
       <r>    -8.6925     0.1507     3.9537 </r>
       <r>    -8.5742     0.1940     3.9735 </r>
       <r>    -8.4559     0.2513     3.9999 </r>
       <r>    -8.3376     0.3085     4.0330 </r>
       <r>    -8.2193     0.6049     4.0812 </r>
       <r>    -8.1009     1.1205     4.1833 </r>
       <r>    -7.9826     0.8698     4.3010 </r>
       <r>    -7.8643     0.7653     4.3891 </r>
       <r>    -7.7460     0.9115     4.4883 </r>
       <r>    -7.6276     1.0577     4.6048 </r>
       <r>    -7.5093     1.2040     4.7386 </r>
       <r>    -7.3910     1.0008     4.8779 </r>
       <r>    -7.2727     0.7116     4.9721 </r>
       <r>    -7.1543     0.6906     5.0550 </r>
       <r>    -7.0360     0.6730     5.1357 </r>
       <r>    -6.9177     0.6559     5.2143 </r>
       <r>    -6.7994     0.6387     5.2909 </r>
       <r>    -6.6810     0.6199     5.3654 </r>
       <r>    -6.5627     0.6010     5.4376 </r>
       <r>    -6.4444     0.5820     5.5076 </r>
       <r>    -6.3261     0.5631     5.5753 </r>
       <r>    -6.2078     0.5442     5.6408 </r>
       <r>    -6.0894     0.5252     5.7041 </r>
       <r>    -5.9711     0.5170     5.7652 </r>
       <r>    -5.8528     0.5616     5.8290 </r>
       <r>    -5.7345     0.6077     5.8982 </r>
       <r>    -5.6161     0.6537     5.9728 </r>
       <r>    -5.4978     0.6997     6.0529 </r>
       <r>    -5.3795     0.7457     6.1384 </r>
       <r>    -5.2612     0.7917     6.2293 </r>
       <r>    -5.1428     0.8348     6.3257 </r>
       <r>    -5.0245     0.8306     6.4240 </r>
       <r>    -4.9062     0.7819     6.5201 </r>
       <r>    -4.7879     0.7649     6.6108 </r>
       <r>    -4.6695     0.7645     6.7013 </r>
       <r>    -4.5512     0.7642     6.7918 </r>
       <r>    -4.4329     0.7639     6.8822 </r>
       <r>    -4.3146     0.7743     6.9730 </r>
       <r>    -4.1963     0.7902     7.0655 </r>
       <r>    -4.0779     0.8061     7.1600 </r>
       <r>    -3.9596     0.8225     7.2563 </r>
       <r>    -3.8413     0.8565     7.3550 </r>
       <r>    -3.7230     0.9558     7.4618 </r>
       <r>    -3.6046     1.0100     7.5780 </r>
       <r>    -3.4863     1.0792     7.7019 </r>
       <r>    -3.3680     1.1297     7.8327 </r>
       <r>    -3.2497     1.1718     7.9690 </r>
       <r>    -3.1313     1.2070     8.1097 </r>
       <r>    -3.0130     1.2702     8.2555 </r>
       <r>    -2.8947     1.4294     8.4135 </r>
       <r>    -2.7764     1.4718     8.5870 </r>
       <r>    -2.6581     1.4586     8.7606 </r>
       <r>    -2.5397     1.4253     8.9313 </r>
       <r>    -2.4214     1.3366     9.0942 </r>
       <r>    -2.3031     1.5581     9.2595 </r>
       <r>    -2.1848     1.7095     9.4535 </r>
       <r>    -2.0664     1.9108     9.6664 </r>
       <r>    -1.9481     2.1137     9.9064 </r>
       <r>    -1.8298     2.6203    10.2163 </r>
       <r>    -1.7115     2.1171    10.4984 </r>
       <r>    -1.5931     1.8417    10.7308 </r>
       <r>    -1.4748     1.5793    10.9325 </r>
       <r>    -1.3565     1.4592    11.1107 </r>
       <r>    -1.2382     1.0323    11.2603 </r>
       <r>    -1.1198     0.9147    11.3732 </r>
       <r>    -1.0015     0.9554    11.4826 </r>
       <r>    -0.8832     1.0592    11.6013 </r>
       <r>    -0.7649     1.3333    11.7410 </r>
       <r>    -0.6466     1.2909    11.8966 </r>
       <r>    -0.5282     1.4449    12.0545 </r>
       <r>    -0.4099     1.7869    12.2637 </r>
       <r>    -0.2916     1.5380    12.4576 </r>
       <r>    -0.1733     1.4048    12.6314 </r>
       <r>    -0.0549     1.3188    12.7921 </r>
       <r>     0.0634     1.2501    12.9441 </r>
       <r>     0.1817     1.1885    13.0881 </r>
       <r>     0.3000     1.1559    13.2266 </r>
       <r>     0.4184     1.1497    13.3622 </r>
       <r>     0.5367     1.1976    13.5021 </r>
       <r>     0.6550     1.1709    13.6422 </r>
       <r>     0.7733     1.1460    13.7792 </r>
       <r>     0.8917     1.2147    13.9153 </r>
       <r>     1.0100     1.1514    14.0552 </r>
       <r>     1.1283     1.0896    14.1878 </r>
       <r>     1.2466     1.1956    14.3253 </r>
       <r>     1.3649     1.0075    14.4555 </r>
       <r>     1.4833     0.8286    14.5641 </r>
       <r>     1.6016     0.8390    14.6572 </r>
       <r>     1.7199     0.9548    14.7666 </r>
       <r>     1.8382     0.9034    14.8769 </r>
       <r>     1.9566     0.8878    14.9828 </r>
       <r>     2.0749     0.8889    15.0877 </r>
       <r>     2.1932     0.8779    15.1922 </r>
       <r>     2.3115     0.8679    15.2960 </r>
       <r>     2.4299     0.8805    15.3988 </r>
       <r>     2.5482     0.6815    15.4923 </r>
       <r>     2.6665     0.6426    15.5705 </r>
       <r>     2.7848     0.5332    15.6407 </r>
       <r>     2.9032     0.4461    15.6983 </r>
       <r>     3.0215     0.3843    15.7470 </r>
       <r>     3.1398     0.3500    15.7905 </r>
       <r>     3.2581     0.3136    15.8297 </r>
       <r>     3.3764     0.2763    15.8646 </r>
       <r>     3.4948     0.2386    15.8951 </r>
       <r>     3.6131     0.1950    15.9209 </r>
       <r>     3.7314     0.1640    15.9421 </r>
       <r>     3.8497     0.1337    15.9597 </r>
       <r>     3.9681     0.1034    15.9737 </r>
       <r>     4.0864     0.0769    15.9844 </r>
       <r>     4.2047     0.0533    15.9921 </r>
       <r>     4.3230     0.0316    15.9971 </r>
       <r>     4.4414     0.0114    15.9996 </r>
       <r>     4.5597     0.0049    16.0001 </r>
       <r>     4.6780     0.0208    16.0016 </r>
       <r>     4.7963     0.0384    16.0051 </r>
       <r>     4.9146     0.0582    16.0108 </r>
       <r>     5.0330     0.0804    16.0189 </r>
       <r>     5.1513     0.1069    16.0300 </r>
       <r>     5.2696     0.1390    16.0445 </r>
       <r>     5.3879     0.1712    16.0629 </r>
       <r>     5.5063     0.2034    16.0850 </r>
       <r>     5.6246     0.2620    16.1111 </r>
       <r>     5.7429     0.4098    16.1524 </r>
       <r>     5.8612     0.4714    16.2052 </r>
       <r>     5.9796     0.5332    16.2623 </r>
       <r>     6.0979     0.9001    16.3408 </r>
       <r>     6.2162     1.1715    16.4630 </r>
       <r>     6.3345     0.9144    16.5783 </r>
       <r>     6.4529     0.9043    16.6862 </r>
       <r>     6.5712     0.8984    16.7928 </r>
       <r>     6.6895     0.9026    16.8990 </r>
       <r>     6.8078     0.8858    17.0055 </r>
       <r>     6.9261     0.7435    17.1048 </r>
       <r>     7.0445     0.6715    17.1873 </r>
       <r>     7.1628     0.6297    17.2641 </r>
       <r>     7.2811     0.5956    17.3366 </r>
       <r>     7.3994     0.5670    17.4053 </r>
       <r>     7.5178     0.5433    17.4710 </r>
       <r>     7.6361     0.5258    17.5341 </r>
       <r>     7.7544     0.5126    17.5955 </r>
       <r>     7.8727     0.5008    17.6555 </r>
       <r>     7.9911     0.4902    17.7141 </r>
       <r>     8.1094     0.4801    17.7715 </r>
       <r>     8.2277     0.4701    17.8277 </r>
       <r>     8.3460     0.4603    17.8828 </r>
       <r>     8.4644     0.4505    17.9366 </r>
       <r>     8.5827     0.4407    17.9894 </r>
       <r>     8.7010     0.4286    18.0409 </r>
       <r>     8.8193     0.4423    18.0920 </r>
       <r>     8.9376     0.4735    18.1466 </r>
       <r>     9.0560     0.4715    18.2027 </r>
       <r>     9.1743     0.4805    18.2589 </r>
       <r>     9.2926     0.4940    18.3165 </r>
       <r>     9.4109     0.5077    18.3758 </r>
       <r>     9.5293     0.5123    18.4363 </r>
       <r>     9.6476     0.5178    18.4971 </r>
       <r>     9.7659     0.5270    18.5589 </r>
       <r>     9.8842     0.5368    18.6219 </r>
       <r>    10.0026     0.5474    18.6860 </r>
       <r>    10.1209     0.5692    18.7515 </r>
       <r>    10.2392     0.7491    18.8297 </r>
       <r>    10.3575     0.7305    18.9182 </r>
       <r>    10.4759     0.6705    19.0014 </r>
       <r>    10.5942     0.5938    19.0762 </r>
       <r>    10.7125     0.5270    19.1421 </r>
       <r>    10.8308     0.4460    19.2003 </r>
       <r>    10.9491     0.4209    19.2515 </r>
       <r>    11.0675     0.4010    19.3001 </r>
       <r>    11.1858     0.3874    19.3466 </r>
       <r>    11.3041     0.3975    19.3928 </r>
       <r>    11.4224     0.4186    19.4410 </r>
       <r>    11.5408     0.4479    19.4921 </r>
       <r>    11.6591     0.4990    19.5479 </r>
       <r>    11.7774     0.5903    19.6113 </r>
       <r>    11.8957     0.8858    19.6979 </r>
       <r>    12.0141     1.1980    19.8242 </r>
       <r>    12.1324     1.4172    19.9754 </r>
       <r>    12.2507     1.7175    20.1650 </r>
       <r>    12.3690     1.8402    20.3757 </r>
       <r>    12.4873     1.9875    20.6016 </r>
       <r>    12.6057     2.1153    20.8461 </r>
       <r>    12.7240     1.9769    21.0892 </r>
       <r>    12.8423     1.9069    21.3167 </r>
       <r>    12.9606     2.9362    21.6204 </r>
       <r>    13.0790     2.0981    21.9116 </r>
       <r>    13.1973     1.4185    22.1176 </r>
       <r>    13.3156     1.0547    22.2604 </r>
       <r>    13.4339     1.0086    22.3824 </r>
       <r>    13.5523     0.9642    22.4991 </r>
       <r>    13.6706     0.9920    22.6147 </r>
       <r>    13.7889     0.9193    22.7305 </r>
       <r>    13.9072     0.7868    22.8309 </r>
       <r>    14.0256     0.6959    22.9184 </r>
       <r>    14.1439     0.6236    22.9963 </r>
       <r>    14.2622     0.5877    23.0673 </r>
       <r>    14.3805     0.6282    23.1384 </r>
       <r>    14.4988     0.8081    23.2203 </r>
       <r>    14.6172     0.7796    23.3283 </r>
       <r>    14.7355     0.7226    23.4162 </r>
       <r>    14.8538     0.7684    23.5032 </r>
       <r>    14.9721     0.8990    23.6011 </r>
       <r>    15.0905     0.6937    23.7046 </r>
       <r>    15.2088     0.4927    23.7744 </r>
       <r>    15.3271     0.4087    23.8275 </r>
       <r>    15.4454     0.3463    23.8717 </r>
       <r>    15.5638     0.3222    23.9117 </r>
       <r>    15.6821     0.2605    23.9470 </r>
       <r>    15.8004     0.1611    23.9707 </r>
       <r>    15.9187     0.1049    23.9867 </r>
       <r>    16.0371     0.0418    23.9950 </r>
       <r>    16.1554     0.0189    23.9985 </r>
       <r>    16.2737     0.0050    23.9998 </r>
       <r>    16.3920     0.0000    24.0000 </r>
       <r>    16.5103     0.0000    24.0000 </r>
       <r>    16.6287     0.0000    24.0000 </r>
       <r>    16.7470     0.0000    24.0000 </r>
       <r>    16.8653     0.0000    24.0000 </r>
       <r>    16.9836     0.0000    24.0000 </r>
       <r>    17.1020     0.0000    24.0000 </r>
       <r>    17.2203     0.0000    24.0000 </r>
       <r>    17.3386     0.0000    24.0000 </r>
       <r>    17.4569     0.0000    24.0000 </r>
       <r>    17.5753     0.0000    24.0000 </r>
       <r>    17.6936     0.0000    24.0000 </r>
       <r>    17.8119     0.0000    24.0000 </r>
       <r>    17.9302     0.0000    24.0000 </r>
       <r>    18.0485     0.0000    24.0000 </r>
       <r>    18.1669     0.0000    24.0000 </r>
       <r>    18.2852     0.0000    24.0000 </r>
       <r>    18.4035     0.0000    24.0000 </r>
      </set>
     </set>
    </array>
   </total>
  </dos>
 </calculation>
 <structure name="finalpos" >
  <crystal>
   <varray name="basis" >
    <v>       2.46643725      -0.00095964       0.00000000 </v>
    <v>      -1.23404970       2.13551749       0.00000000 </v>
    <v>       0.00000000       0.00000000       6.83070325 </v>
   </varray>
   <i name="volume">     35.97004371 </i>
   <varray name="rec_basis" >
    <v>       0.40553429       0.23434576       0.00000000 </v>
    <v>       0.00018224       0.46837588       0.00000000 </v>
    <v>       0.00000000       0.00000000       0.14639781 </v>
   </varray>
  </crystal>
  <varray name="positions" >
   <v>       0.99934661       0.00065344       0.25000000 </v>
   <v>       0.00065344       0.99934661       0.75000000 </v>
   <v>       0.33258492       0.66741506       0.25000000 </v>
   <v>       0.66741506       0.33258492       0.75000000 </v>
  </varray>
 </structure>
</modeling>
