  32  32   0   0
  0.8206758E+01  0.4932875E-09  0.4932875E-09  0.1246769E-08  0.5000000E-15
  1.000000000000000E-004
  CAR 
 graphite                                
     17.13287759    -16.38245880  301      5.32788586      1.00000000
    -16.382  0.0000E+00  0.0000E+00
    -16.271  0.0000E+00  0.0000E+00
    -16.159  0.0000E+00  0.0000E+00
    -16.047  0.0000E+00  0.0000E+00
    -15.936  0.0000E+00  0.0000E+00
    -15.824  0.0000E+00  0.0000E+00
    -15.712  0.0000E+00  0.0000E+00
    -15.600  0.0000E+00  0.0000E+00
    -15.489  0.0000E+00  0.0000E+00
    -15.377  0.0000E+00  0.0000E+00
    -15.265  0.0000E+00  0.0000E+00
    -15.154  0.0000E+00  0.0000E+00
    -15.042  0.0000E+00  0.0000E+00
    -14.930  0.0000E+00  0.0000E+00
    -14.818  0.0000E+00  0.0000E+00
    -14.707  0.0000E+00  0.0000E+00
    -14.595  0.0000E+00  0.0000E+00
    -14.483  0.0000E+00  0.0000E+00
    -14.372  0.2014E-01  0.7333E-04
    -14.260  0.1271E+01  0.6051E-01
    -14.148  0.2051E+01  0.2660E+00
    -14.036  0.2730E+01  0.5324E+00
    -13.925  0.3576E+01  0.8824E+00
    -13.813  0.4835E+01  0.1350E+01
    -13.701  0.4716E+01  0.1915E+01
    -13.590  0.4856E+01  0.2449E+01
    -13.478  0.4990E+01  0.3000E+01
    -13.366  0.5041E+01  0.3562E+01
    -13.254  0.5101E+01  0.4126E+01
    -13.143  0.6540E+01  0.4778E+01
    -13.031  0.6959E+01  0.5537E+01
    -12.919  0.6069E+01  0.6281E+01
    -12.807  0.6458E+01  0.6955E+01
    -12.696  0.2986E+01  0.7513E+01
    -12.584  0.1954E+01  0.7771E+01
    -12.472  0.1772E+01  0.7972E+01
    -12.361  0.2311E+01  0.8191E+01
    -12.249  0.9005E+01  0.8617E+01
    -12.137  0.5658E+01  0.9457E+01
    -12.025  0.6269E+01  0.1011E+02
    -11.914  0.6763E+01  0.1085E+02
    -11.802  0.4908E+01  0.1153E+02
    -11.690  0.4254E+01  0.1200E+02
    -11.579  0.4472E+01  0.1249E+02
    -11.467  0.4693E+01  0.1300E+02
    -11.355  0.4905E+01  0.1354E+02
    -11.243  0.5094E+01  0.1410E+02
    -11.132  0.5180E+01  0.1467E+02
    -11.020  0.5291E+01  0.1526E+02
    -10.908  0.5562E+01  0.1586E+02
    -10.797  0.6034E+01  0.1652E+02
    -10.685  0.5830E+01  0.1718E+02
    -10.573  0.5734E+01  0.1783E+02
    -10.461  0.5893E+01  0.1848E+02
    -10.350  0.6079E+01  0.1915E+02
    -10.238  0.5866E+01  0.1981E+02
    -10.126  0.5870E+01  0.2046E+02
    -10.015  0.5843E+01  0.2112E+02
     -9.903  0.4939E+01  0.2173E+02
     -9.791  0.3811E+01  0.2221E+02
     -9.679  0.3732E+01  0.2262E+02
     -9.568  0.4463E+01  0.2308E+02
     -9.456  0.4855E+01  0.2360E+02
     -9.344  0.6164E+01  0.2424E+02
     -9.233  0.7534E+01  0.2499E+02
     -9.121  0.9727E+01  0.2594E+02
     -9.009  0.9012E+01  0.2707E+02
     -8.897  0.6606E+01  0.2794E+02
     -8.786  0.4993E+01  0.2857E+02
     -8.674  0.4419E+01  0.2910E+02
     -8.562  0.7094E+01  0.2965E+02
     -8.450  0.4247E+01  0.3022E+02
     -8.339  0.4280E+01  0.3069E+02
     -8.227  0.1939E+01  0.3105E+02
     -8.115  0.1717E+01  0.3126E+02
     -8.004  0.1495E+01  0.3143E+02
     -7.892  0.1272E+01  0.3159E+02
     -7.780  0.1548E+01  0.3174E+02
     -7.668  0.2047E+01  0.3194E+02
     -7.557  0.2558E+01  0.3220E+02
     -7.445  0.3847E+01  0.3253E+02
     -7.333  0.9809E+01  0.3324E+02
     -7.222  0.6230E+01  0.3419E+02
     -7.110  0.5207E+01  0.3477E+02
     -6.998  0.5758E+01  0.3538E+02
     -6.886  0.7046E+01  0.3609E+02
     -6.775  0.8334E+01  0.3695E+02
     -6.663  0.9603E+01  0.3796E+02
     -6.551  0.7731E+01  0.3889E+02
     -6.440  0.5681E+01  0.3967E+02
     -6.328  0.5558E+01  0.4030E+02
     -6.216  0.5483E+01  0.4091E+02
     -6.104  0.5388E+01  0.4152E+02
     -5.993  0.5195E+01  0.4212E+02
     -5.881  0.5021E+01  0.4269E+02
     -5.769  0.4901E+01  0.4324E+02
     -5.658  0.4782E+01  0.4378E+02
     -5.546  0.4664E+01  0.4431E+02
     -5.434  0.4545E+01  0.4482E+02
     -5.322  0.4425E+01  0.4532E+02
     -5.211  0.4304E+01  0.4581E+02
     -5.099  0.4691E+01  0.4630E+02
     -4.987  0.5354E+01  0.4687E+02
     -4.876  0.5989E+01  0.4750E+02
     -4.764  0.6623E+01  0.4820E+02
     -4.652  0.7257E+01  0.4898E+02
     -4.540  0.7891E+01  0.4983E+02
     -4.429  0.8526E+01  0.5074E+02
     -4.317  0.7509E+01  0.5170E+02
     -4.205  0.5524E+01  0.5242E+02
     -4.094  0.5786E+01  0.5300E+02
     -3.982  0.6991E+01  0.5372E+02
     -3.870  0.5360E+01  0.5441E+02
     -3.758  0.3729E+01  0.5492E+02
     -3.647  0.2097E+01  0.5524E+02
     -3.535  0.1098E+01  0.5540E+02
     -3.423  0.2686E+01  0.5559E+02
     -3.311  0.4982E+01  0.5602E+02
     -3.200  0.7321E+01  0.5669E+02
     -3.088  0.1042E+02  0.5770E+02
     -2.976  0.1329E+02  0.5903E+02
     -2.865  0.1269E+02  0.6051E+02
     -2.753  0.8208E+01  0.6172E+02
     -2.641  0.4972E+01  0.6239E+02
     -2.529  0.5802E+01  0.6298E+02
     -2.418  0.6893E+01  0.6368E+02
     -2.306  0.9233E+01  0.6454E+02
     -2.194  0.1601E+02  0.6595E+02
     -2.083  0.1225E+02  0.6820E+02
     -1.971  0.7652E+01  0.6965E+02
     -1.859  0.7323E+01  0.7048E+02
     -1.747  0.7084E+01  0.7128E+02
     -1.636  0.7395E+01  0.7208E+02
     -1.524  0.9201E+01  0.7298E+02
     -1.412  0.1597E+02  0.7433E+02
     -1.301  0.1217E+02  0.7590E+02
     -1.189  0.8473E+01  0.7703E+02
     -1.077  0.2507E+02  0.7841E+02
     -0.965  0.1903E+02  0.8130E+02
     -0.854  0.1880E+02  0.8364E+02
     -0.742  0.1451E+02  0.8542E+02
     -0.630  0.1434E+02  0.8703E+02
     -0.519  0.1277E+02  0.8855E+02
     -0.407  0.9173E+01  0.8970E+02
     -0.295  0.7988E+01  0.9067E+02
     -0.183  0.7572E+01  0.9151E+02
     -0.072  0.8672E+01  0.9242E+02
      0.040  0.9176E+01  0.9341E+02
      0.152  0.1067E+02  0.9450E+02
      0.263  0.1329E+02  0.9580E+02
      0.375  0.1629E+02  0.9747E+02
      0.487  0.1284E+02  0.9903E+02
      0.599  0.1184E+02  0.1004E+03
      0.710  0.1049E+02  0.1016E+03
      0.822  0.9420E+01  0.1027E+03
      0.934  0.9013E+01  0.1037E+03
      1.046  0.8756E+01  0.1047E+03
      1.157  0.8552E+01  0.1057E+03
      1.269  0.8516E+01  0.1067E+03
      1.381  0.1041E+02  0.1077E+03
      1.492  0.9946E+01  0.1089E+03
      1.604  0.1047E+02  0.1100E+03
      1.716  0.1025E+02  0.1112E+03
      1.828  0.9890E+01  0.1123E+03
      1.939  0.9015E+01  0.1134E+03
      2.051  0.9932E+01  0.1144E+03
      2.163  0.9880E+01  0.1155E+03
      2.274  0.8234E+01  0.1166E+03
      2.386  0.6700E+01  0.1174E+03
      2.498  0.5956E+01  0.1181E+03
      2.610  0.4869E+01  0.1187E+03
      2.721  0.3915E+01  0.1192E+03
      2.833  0.3348E+01  0.1196E+03
      2.945  0.4397E+01  0.1200E+03
      3.056  0.5136E+01  0.1205E+03
      3.168  0.8485E+01  0.1212E+03
      3.280  0.7637E+01  0.1221E+03
      3.392  0.6395E+01  0.1229E+03
      3.503  0.6081E+01  0.1236E+03
      3.615  0.6485E+01  0.1243E+03
      3.727  0.5704E+01  0.1250E+03
      3.838  0.4328E+01  0.1256E+03
      3.950  0.3520E+01  0.1260E+03
      4.062  0.3017E+01  0.1264E+03
      4.174  0.2545E+01  0.1267E+03
      4.285  0.2144E+01  0.1269E+03
      4.397  0.1835E+01  0.1272E+03
      4.509  0.1577E+01  0.1273E+03
      4.620  0.1406E+01  0.1275E+03
      4.732  0.1205E+01  0.1277E+03
      4.844  0.9570E+00  0.1278E+03
      4.956  0.7169E+00  0.1279E+03
      5.067  0.4843E+00  0.1279E+03
      5.179  0.2585E+00  0.1280E+03
      5.291  0.3962E-01  0.1280E+03
      5.403  0.6541E-01  0.1280E+03
      5.514  0.2003E+00  0.1280E+03
      5.626  0.3431E+00  0.1280E+03
      5.738  0.4940E+00  0.1281E+03
      5.849  0.6550E+00  0.1282E+03
      5.961  0.8277E+00  0.1282E+03
      6.073  0.1012E+01  0.1283E+03
      6.185  0.1212E+01  0.1285E+03
      6.296  0.1437E+01  0.1286E+03
      6.408  0.2098E+01  0.1288E+03
      6.520  0.2595E+01  0.1291E+03
      6.631  0.3136E+01  0.1294E+03
      6.743  0.3542E+01  0.1298E+03
      6.855  0.5229E+01  0.1302E+03
      6.967  0.1266E+02  0.1312E+03
      7.078  0.1061E+02  0.1326E+03
      7.190  0.9063E+01  0.1337E+03
      7.302  0.6780E+01  0.1346E+03
      7.413  0.5627E+01  0.1353E+03
      7.525  0.4862E+01  0.1359E+03
      7.637  0.4161E+01  0.1364E+03
      7.749  0.3871E+01  0.1368E+03
      7.860  0.3711E+01  0.1373E+03
      7.972  0.3715E+01  0.1377E+03
      8.084  0.3713E+01  0.1381E+03
      8.195  0.4090E+01  0.1385E+03
      8.307  0.4435E+01  0.1390E+03
      8.419  0.4651E+01  0.1395E+03
      8.531  0.4820E+01  0.1400E+03
      8.642  0.4760E+01  0.1406E+03
      8.754  0.4578E+01  0.1411E+03
      8.866  0.4468E+01  0.1416E+03
      8.977  0.4412E+01  0.1421E+03
      9.089  0.4302E+01  0.1426E+03
      9.201  0.4199E+01  0.1431E+03
      9.313  0.4023E+01  0.1435E+03
      9.424  0.3628E+01  0.1439E+03
      9.536  0.3454E+01  0.1443E+03
      9.648  0.3358E+01  0.1447E+03
      9.760  0.3298E+01  0.1451E+03
      9.871  0.3204E+01  0.1455E+03
      9.983  0.3127E+01  0.1458E+03
     10.095  0.3073E+01  0.1462E+03
     10.206  0.3039E+01  0.1465E+03
     10.318  0.2969E+01  0.1468E+03
     10.430  0.2899E+01  0.1472E+03
     10.542  0.3012E+01  0.1475E+03
     10.653  0.3174E+01  0.1478E+03
     10.765  0.3201E+01  0.1482E+03
     10.877  0.3922E+01  0.1486E+03
     10.988  0.4252E+01  0.1491E+03
     11.100  0.4404E+01  0.1495E+03
     11.212  0.4373E+01  0.1500E+03
     11.324  0.4237E+01  0.1505E+03
     11.435  0.4045E+01  0.1510E+03
     11.547  0.3943E+01  0.1514E+03
     11.659  0.3969E+01  0.1519E+03
     11.770  0.7343E+01  0.1525E+03
     11.882  0.4232E+01  0.1531E+03
     11.994  0.2697E+01  0.1534E+03
     12.106  0.2308E+01  0.1537E+03
     12.217  0.2110E+01  0.1540E+03
     12.329  0.2098E+01  0.1542E+03
     12.441  0.2618E+01  0.1545E+03
     12.552  0.4854E+01  0.1549E+03
     12.664  0.5429E+01  0.1555E+03
     12.776  0.6886E+01  0.1561E+03
     12.888  0.9431E+01  0.1570E+03
     12.999  0.1057E+02  0.1582E+03
     13.111  0.1226E+02  0.1594E+03
     13.223  0.1416E+02  0.1609E+03
     13.334  0.1305E+02  0.1625E+03
     13.446  0.1228E+02  0.1638E+03
     13.558  0.1161E+02  0.1652E+03
     13.670  0.1198E+02  0.1665E+03
     13.781  0.5280E+01  0.1676E+03
     13.893  0.1094E+01  0.1678E+03
     14.005  0.4516E+00  0.1679E+03
     14.116  0.3086E+00  0.1679E+03
     14.228  0.2037E+00  0.1679E+03
     14.340  0.1368E+00  0.1680E+03
     14.452  0.9995E-01  0.1680E+03
     14.563  0.6986E-01  0.1680E+03
     14.675  0.4514E-01  0.1680E+03
     14.787  0.2580E-01  0.1680E+03
     14.899  0.1183E-01  0.1680E+03
     15.010  0.3239E-02  0.1680E+03
     15.122  0.2568E-04  0.1680E+03
     15.234  0.0000E+00  0.1680E+03
     15.345  0.0000E+00  0.1680E+03
     15.457  0.0000E+00  0.1680E+03
     15.569  0.0000E+00  0.1680E+03
     15.681  0.0000E+00  0.1680E+03
     15.792  0.0000E+00  0.1680E+03
     15.904  0.0000E+00  0.1680E+03
     16.016  0.0000E+00  0.1680E+03
     16.127  0.0000E+00  0.1680E+03
     16.239  0.0000E+00  0.1680E+03
     16.351  0.0000E+00  0.1680E+03
     16.463  0.0000E+00  0.1680E+03
     16.574  0.0000E+00  0.1680E+03
     16.686  0.0000E+00  0.1680E+03
     16.798  0.0000E+00  0.1680E+03
     16.909  0.0000E+00  0.1680E+03
     17.021  0.0000E+00  0.1680E+03
     17.133  0.0000E+00  0.1680E+03
