   32   32    1    1
  0.8206758E+01  0.4932875E-09  0.4932875E-09  0.1246769E-08  0.5000000E-15
  1.000000000000000E-004
  CAR 
 graphite                                
    128     76     84
 
  0.0000000E+00  0.0000000E+00  0.0000000E+00  0.6944444E-02
    1      -14.382459
    2      -14.137787
    3      -14.137093
    4      -13.864506
    5       -9.006884
    6       -8.999235
    7       -8.996821
    8       -8.893142
    9       -8.892724
   10       -8.885135
   11       -8.881379
   12       -8.881284
   13       -8.879074
   14       -8.812722
   15       -8.801167
   16       -8.797530
   17       -7.888565
   18       -7.885476
   19       -7.883217
   20       -7.848322
   21       -7.844500
   22       -7.842560
   23       -7.841972
   24       -7.841843
   25       -7.837948
   26       -7.744646
   27       -7.739267
   28       -7.737324
   29       -3.503723
   30       -2.256380
   31       -2.254204
   32       -1.070744
   33       -1.067989
   34       -1.048575
   35       -1.018034
   36       -1.013759
   37       -1.013747
   38       -1.012890
   39       -0.995090
   40       -0.992496
   41       -0.960264
   42       -0.957745
   43       -0.938305
   44       -0.695473
   45        2.338593
   46        2.351560
   47        2.352371
   48        2.354763
   49        2.359710
   50        2.364058
   51        2.364402
   52        2.380442
   53        2.381411
   54        2.386669
   55        2.404450
   56        2.987750
   57        2.990513
   58        2.992070
   59        2.996228
   60        2.996756
   61        2.998909
   62        3.321215
   63        3.339775
   64        3.342727
   65        6.938386
   66        6.941600
   67        6.946122
   68        6.983572
   69        6.989189
   70        6.993512
   71        6.994553
   72        6.995015
   73        7.001054
   74        7.764014
   75        7.778022
   76        7.780410
   77       10.387138
   78       12.419031
   79       12.423095
   80       12.456356
   81       12.740065
   82       12.741391
   83       12.748275
   84       12.771675
 
  0.1666667E+00  0.2775558E-16  0.0000000E+00  0.1388889E-01
    1      -14.215874
    2      -13.973318
    3      -13.972630
    4      -13.702686
    5      -10.338503
    6      -10.147455
    7      -10.146844
    8       -9.940381
    9       -9.457314
   10       -9.450559
   11       -9.287215
   12       -9.286561
   13       -9.279638
   14       -9.279008
   15       -9.107810
   16       -9.099870
   17       -7.318570
   18       -7.310735
   19       -7.184751
   20       -7.181937
   21       -7.175182
   22       -7.174824
   23       -7.031210
   24       -7.022808
   25       -6.474122
   26       -6.333363
   27       -6.331627
   28       -6.180491
   29       -3.301490
   30       -2.061421
   31       -2.059247
   32       -1.566243
   33       -1.547051
   34       -1.500735
   35       -1.500294
   36       -1.482477
   37       -1.479941
   38       -1.432836
   39       -1.413624
   40       -0.906971
   41       -0.854394
   42       -0.851354
   43       -0.798065
   44       -0.510853
   45        1.204672
   46        1.692294
   47        1.724021
   48        1.728625
   49        1.760593
   50        1.996993
   51        2.023796
   52        2.029441
   53        2.056039
   54        2.100955
   55        2.102532
   56        2.148028
   57        2.150811
   58        2.880499
   59        2.882643
   60        2.886496
   61        2.889604
   62        3.151481
   63        3.512965
   64        3.527750
   65        7.021961
   66        7.024792
   67        7.264607
   68        7.270371
   69        7.274964
   70        7.277202
   71        7.583453
   72        8.042803
   73        8.052045
   74        8.094858
   75        8.098768
   76        8.975579
   77       10.578676
   78       12.516451
   79       12.827027
   80       12.828897
   81       13.147858
   82       13.156722
   83       13.191619
   84       13.490189
 
  0.3333333E+00  0.5551115E-16  0.0000000E+00  0.1388889E-01
    1      -13.717968
    2      -13.481677
    3      -13.481008
    4      -13.218953
    5      -11.758152
    6      -11.546805
    7      -11.546212
    8      -11.314944
    9       -9.886307
   10       -9.882687
   11       -9.702460
   12       -9.701254
   13       -9.698110
   14       -9.697327
   15       -9.502847
   16       -9.498930
   17       -6.142545
   18       -6.131774
   19       -6.014644
   20       -6.011806
   21       -6.002724
   22       -6.002132
   23       -5.875616
   24       -5.865138
   25       -4.347286
   26       -4.228787
   27       -4.226855
   28       -4.101854
   29       -2.731586
   30       -2.715557
   31       -2.698868
   32       -2.649276
   33       -2.648993
   34       -2.634222
   35       -2.631584
   36       -2.561199
   37       -2.544954
   38       -1.481663
   39       -1.479515
   40       -0.432024
   41       -0.381747
   42       -0.378371
   43       -0.372520
   44       -0.327218
   45        0.022846
   46        0.035834
   47        0.082851
   48        0.086547
   49        0.147019
   50        0.728621
   51        0.730950
   52        1.192618
   53        1.231160
   54        1.235827
   55        1.274784
   56        1.766040
   57        1.768324
   58        2.054765
   59        2.691593
   60        2.692974
   61        2.695399
   62        2.698837
   63        3.684875
   64        3.692124
   65        7.396078
   66        7.400390
   67        7.841829
   68        7.847291
   69        7.850557
   70        7.852609
   71        8.467692
   72        8.471490
   73        9.666696
   74       10.231365
   75       10.234505
   76       10.989430
   77       11.155573
   78       12.768960
   79       13.072139
   80       13.074423
   81       13.214481
   82       13.571056
   83       13.576663
   84       13.577861
 
  0.5000000E+00  0.5551115E-16  0.0000000E+00  0.6944444E-02
    1      -12.896161
    2      -12.893179
    3      -12.671572
    4      -12.668337
    5      -12.668296
    6      -12.665485
    7      -12.420460
    8      -12.417378
    9      -10.036384
   10      -10.034577
   11       -9.849750
   12       -9.847615
   13       -9.847520
   14       -9.845945
   15       -9.645843
   16       -9.643932
   17       -5.206871
   18       -5.204500
   19       -5.134682
   20       -5.130278
   21       -5.129512
   22       -5.129489
   23       -5.064865
   24       -5.062819
   25       -3.593417
   26       -3.592163
   27       -3.552457
   28       -3.552428
   29       -3.551209
   30       -3.548203
   31       -3.489733
   32       -3.488050
   33       -2.112174
   34       -2.109166
   35       -2.021847
   36       -2.021122
   37       -2.021076
   38       -2.015272
   39       -1.926307
   40       -1.922754
   41       -1.711489
   42       -1.709086
   43       -0.536923
   44       -0.533037
   45       -0.532874
   46       -0.530254
   47        0.301882
   48        0.308181
   49        0.346561
   50        0.355332
   51        0.355356
   52        0.356636
   53        0.400178
   54        0.404560
   55        0.915683
   56        0.918546
   57        1.636765
   58        1.638682
   59        2.607297
   60        2.608944
   61        2.609523
   62        2.613702
   63        3.720842
   64        3.723609
   65        7.685626
   66        7.688318
   67        8.147414
   68        8.153076
   69        8.153839
   70        8.155304
   71        8.615235
   72        8.618409
   73       12.094745
   74       12.100625
   75       12.127821
   76       12.134348
   77       12.502754
   78       12.504835
   79       12.506330
   80       12.511657
   81       13.097782
   82       13.100969
   83       13.212037
   84       13.215174
 
  0.0000000E+00  0.1666667E+00  0.0000000E+00  0.1388889E-01
    1      -14.215878
    2      -13.973323
    3      -13.972632
    4      -13.702690
    5      -10.338515
    6      -10.147459
    7      -10.146844
    8       -9.940370
    9       -9.457433
   10       -9.450583
   11       -9.287524
   12       -9.286572
   13       -9.279627
   14       -9.279038
   15       -9.107828
   16       -9.100079
   17       -7.318726
   18       -7.309447
   19       -7.185206
   20       -7.181939
   21       -7.174980
   22       -7.172277
   23       -7.031353
   24       -7.021484
   25       -6.475068
   26       -6.333675
   27       -6.333219
   28       -6.181455
   29       -3.301479
   30       -2.061406
   31       -2.059235
   32       -1.567571
   33       -1.547099
   34       -1.503218
   35       -1.500314
   36       -1.482477
   37       -1.480168
   38       -1.434099
   39       -1.413743
   40       -0.905479
   41       -0.851612
   42       -0.851325
   43       -0.796732
   44       -0.510834
   45        1.205233
   46        1.689938
   47        1.723154
   48        1.724027
   49        1.757276
   50        2.000609
   51        2.029286
   52        2.029466
   53        2.058280
   54        2.100110
   55        2.102508
   56        2.149077
   57        2.151344
   58        2.880027
   59        2.882440
   60        2.885876
   61        2.888359
   62        3.152690
   63        3.513013
   64        3.526131
   65        7.023848
   66        7.025146
   67        7.265074
   68        7.270328
   69        7.275697
   70        7.280467
   71        7.581415
   72        8.042984
   73        8.054041
   74        8.093957
   75        8.096476
   76        8.974088
   77       10.578695
   78       12.517017
   79       12.828017
   80       12.829011
   81       13.148269
   82       13.156260
   83       13.191611
   84       13.492309
 
  0.1666667E+00  0.1666667E+00  0.0000000E+00  0.1388889E-01
    1      -13.883411
    2      -13.645018
    3      -13.644344
    4      -13.379682
    5      -10.965059
    6      -10.961912
    7      -10.765830
    8      -10.762385
    9      -10.762353
   10      -10.759423
   11      -10.545490
   12      -10.542243
   13       -8.579010
   14       -8.469899
   15       -8.468510
   16       -8.391626
   17       -7.481749
   18       -7.447895
   19       -7.444263
   20       -7.355577
   21       -5.359617
   22       -5.356010
   23       -5.232280
   24       -5.229159
   25       -5.229125
   26       -5.224889
   27       -5.094179
   28       -5.090375
   29       -2.904513
   30       -2.898717
   31       -2.818724
   32       -2.816671
   33       -2.725928
   34       -1.673647
   35       -1.671484
   36       -1.238061
   37       -1.234862
   38       -1.176928
   39       -1.172466
   40       -1.172455
   41       -1.170791
   42       -1.109479
   43       -1.106510
   44       -0.144751
   45        0.541306
   46        0.543425
   47        0.657294
   48        0.688828
   49        0.693456
   50        0.721274
   51        1.324851
   52        1.345035
   53        1.350243
   54        1.374372
   55        1.574421
   56        1.578011
   57        1.578156
   58        1.581027
   59        2.779019
   60        2.781791
   61        2.950623
   62        3.584138
   63        3.587689
   64        3.894245
   65        6.772962
   66        6.778299
   67        6.918535
   68        7.205536
   69        8.483039
   70        8.485920
   71        9.044012
   72        9.046426
   73        9.046979
   74        9.050962
   75        9.803648
   76        9.806204
   77       10.965534
   78       13.336967
   79       13.341345
   80       13.640960
   81       13.646324
   82       13.646722
   83       13.650575
   84       13.834405
 
  0.3333333E+00  0.1666667E+00  0.0000000E+00  0.1388889E-01
    1      -13.222560
    2      -12.992497
    3      -12.991848
    4      -12.737582
    5      -12.243979
    6      -12.026356
    7      -12.025738
    8      -11.786829
    9      -11.282552
   10      -11.077550
   11      -11.076898
   12      -10.853314
   13       -8.582365
   14       -8.425066
   15       -8.424537
   16       -8.260632
   17       -6.663838
   18       -6.558861
   19       -6.555773
   20       -6.443573
   21       -4.335589
   22       -4.256098
   23       -4.253897
   24       -4.184440
   25       -4.160208
   26       -4.090097
   27       -4.088196
   28       -3.992622
   29       -3.201291
   30       -3.102050
   31       -3.100173
   32       -2.996666
   33       -2.134938
   34       -2.102200
   35       -2.072065
   36       -2.070421
   37       -1.999636
   38       -1.090221
   39       -1.033396
   40       -1.029700
   41       -0.960376
   42       -0.935791
   43       -0.902587
   44       -0.899862
   45       -0.595736
   46       -0.540525
   47       -0.537480
   48       -0.480114
   49        0.196364
   50        0.201731
   51        0.203940
   52        0.307930
   53        0.347812
   54        0.352693
   55        0.395545
   56        0.571575
   57        1.270941
   58        1.273148
   59        1.592152
   60        2.558022
   61        3.213426
   62        3.990944
   63        3.994093
   64        4.639177
   65        6.339165
   66        6.633544
   67        6.637973
   68        7.157908
   69        9.298796
   70        9.758119
   71        9.761229
   72       10.247813
   73       10.783382
   74       11.250134
   75       11.252918
   76       11.739366
   77       11.828651
   78       12.867317
   79       13.086710
   80       13.338410
   81       13.343832
   82       13.715916
   83       13.792353
   84       13.929518
 
  0.5000000E+00  0.1666667E+00  0.0000000E+00  0.1388889E-01
    1      -13.223794
    2      -12.993740
    3      -12.993075
    4      -12.738808
    5      -12.242249
    6      -12.024618
    7      -12.024018
    8      -11.785101
    9      -11.283792
   10      -11.078804
   11      -11.078135
   12      -10.854570
   13       -8.580025
   14       -8.422310
   15       -8.421848
   16       -8.257308
   17       -6.657589
   18       -6.551547
   19       -6.550300
   20       -6.437379
   21       -4.344853
   22       -4.265267
   23       -4.264654
   24       -4.195450
   25       -4.170647
   26       -4.101123
   27       -4.097853
   28       -4.002176
   29       -3.204292
   30       -3.105432
   31       -3.102805
   32       -2.999694
   33       -2.122611
   34       -2.103348
   35       -2.059903
   36       -2.056610
   37       -1.986150
   38       -1.090175
   39       -1.032484
   40       -1.030852
   41       -0.960640
   42       -0.934296
   43       -0.903706
   44       -0.901038
   45       -0.593083
   46       -0.538224
   47       -0.534313
   48       -0.477377
   49        0.195992
   50        0.202864
   51        0.205221
   52        0.308412
   53        0.348862
   54        0.351423
   55        0.395059
   56        0.570472
   57        1.269764
   58        1.272039
   59        1.593514
   60        2.556390
   61        3.212689
   62        3.993493
   63        3.995932
   64        4.649899
   65        6.335287
   66        6.635916
   67        6.638872
   68        7.157713
   69        9.293678
   70        9.754004
   71        9.757726
   72       10.247266
   73       10.785506
   74       11.249584
   75       11.252715
   76       11.737708
   77       11.825902
   78       12.869300
   79       13.081975
   80       13.338951
   81       13.344089
   82       13.710880
   83       13.794542
   84       13.921325
 
 -0.3333333E+00  0.1666667E+00  0.0000000E+00  0.1388889E-01
    1      -13.884144
    2      -13.645759
    3      -13.645075
    4      -13.380414
    5      -10.967199
    6      -10.961230
    7      -10.766605
    8      -10.765953
    9      -10.760552
   10      -10.759978
   11      -10.547735
   12      -10.541703
   13       -8.570755
   14       -8.459247
   15       -8.458837
   16       -8.379160
   17       -7.480092
   18       -7.443160
   19       -7.442862
   20       -7.351347
   21       -5.370240
   22       -5.360602
   23       -5.242421
   24       -5.239997
   25       -5.232685
   26       -5.230777
   27       -5.104511
   28       -5.095253
   29       -2.920128
   30       -2.899448
   31       -2.833535
   32       -2.833172
   33       -2.741629
   34       -1.674353
   35       -1.672200
   36       -1.234934
   37       -1.216474
   38       -1.173298
   39       -1.170074
   40       -1.154577
   41       -1.151935
   42       -1.106591
   43       -1.088175
   44       -0.145419
   45        0.539852
   46        0.543948
   47        0.646942
   48        0.680930
   49        0.681278
   50        0.711407
   51        1.335863
   52        1.357515
   53        1.357706
   54        1.383877
   55        1.573322
   56        1.575792
   57        1.578307
   58        1.580804
   59        2.775749
   60        2.781235
   61        2.948231
   62        3.590129
   63        3.592611
   64        3.913819
   65        6.778792
   66        6.781462
   67        6.911505
   68        7.211739
   69        8.475798
   70        8.485972
   71        9.035895
   72        9.039991
   73        9.045032
   74        9.048530
   75        9.799234
   76        9.802733
   77       10.964496
   78       13.335568
   79       13.371640
   80       13.641357
   81       13.643740
   82       13.678060
   83       13.679825
   84       13.841413
 
 -0.1666667E+00  0.1666667E+00  0.0000000E+00  0.1388889E-01
    1      -14.216124
    2      -13.973570
    3      -13.972876
    4      -13.702933
    5      -10.344758
    6      -10.153811
    7      -10.153224
    8       -9.946878
    9       -9.449389
   10       -9.447350
   11       -9.279862
   12       -9.277178
   13       -9.277103
   14       -9.275431
   15       -9.099124
   16       -9.096754
   17       -7.313818
   18       -7.311877
   19       -7.178856
   20       -7.177817
   21       -7.177751
   22       -7.174935
   23       -7.026209
   24       -7.024253
   25       -6.484101
   26       -6.343542
   27       -6.341344
   28       -6.190347
   29       -3.301723
   30       -2.061646
   31       -2.059478
   32       -1.567371
   33       -1.564801
   34       -1.503550
   35       -1.499475
   36       -1.499456
   37       -1.498619
   38       -1.433833
   39       -1.431463
   40       -0.885740
   41       -0.832983
   42       -0.830488
   43       -0.776976
   44       -0.511071
   45        1.201529
   46        1.674025
   47        1.705922
   48        1.711450
   49        1.743147
   50        2.015477
   51        2.042138
   52        2.046739
   53        2.073649
   54        2.102043
   55        2.104816
   56        2.143620
   57        2.146397
   58        2.883577
   59        2.888434
   60        2.888919
   61        2.890249
   62        3.143510
   63        3.525340
   64        3.528240
   65        7.023329
   66        7.026530
   67        7.272903
   68        7.274730
   69        7.275171
   70        7.280643
   71        7.576491
   72        8.049303
   73        8.051977
   74        8.084434
   75        8.088765
   76        8.966754
   77       10.578326
   78       12.551117
   79       12.861854
   80       12.863034
   81       13.152883
   82       13.156686
   83       13.183131
   84       13.477056
 
  0.2710505E-19  0.3333333E+00  0.0000000E+00  0.1388889E-01
    1      -13.717982
    2      -13.481696
    3      -13.481017
    4      -13.218968
    5      -11.758209
    6      -11.546884
    7      -11.546247
    8      -11.315001
    9       -9.886628
   10       -9.882358
   11       -9.703280
   12       -9.701263
   13       -9.698043
   14       -9.696508
   15       -9.503100
   16       -9.498638
   17       -6.142572
   18       -6.130518
   19       -6.014823
   20       -6.011807
   21       -6.002200
   22       -5.999763
   23       -5.875536
   24       -5.863719
   25       -4.348332
   26       -4.229117
   27       -4.228684
   28       -4.102972
   29       -2.733009
   30       -2.715864
   31       -2.698823
   32       -2.651794
   33       -2.649216
   34       -2.634223
   35       -2.632179
   36       -2.562536
   37       -2.545242
   38       -1.481598
   39       -1.479464
   40       -0.430370
   41       -0.378700
   42       -0.378350
   43       -0.372263
   44       -0.325780
   45        0.021025
   46        0.035915
   47        0.082534
   48        0.082898
   49        0.144836
   50        0.729029
   51        0.731217
   52        1.195175
   53        1.235563
   54        1.235847
   55        1.276758
   56        1.765168
   57        1.768332
   58        2.055289
   59        2.690105
   60        2.692824
   61        2.695564
   62        2.698081
   63        3.684522
   64        3.690943
   65        7.396199
   66        7.402343
   67        7.842571
   68        7.847282
   69        7.851402
   70        7.855554
   71        8.468289
   72        8.473519
   73        9.665355
   74       10.230518
   75       10.233182
   76       10.988378
   77       11.155615
   78       12.769722
   79       13.073493
   80       13.074634
   81       13.215068
   82       13.575899
   83       13.576673
   84       13.578409
 
  0.1666667E+00  0.3333333E+00  0.0000000E+00  0.1388889E-01
    1      -13.222568
    2      -12.992507
    3      -12.991853
    4      -12.737586
    5      -12.244045
    6      -12.026448
    7      -12.025774
    8      -11.786892
    9      -11.282490
   10      -11.077460
   11      -11.076865
   12      -10.853253
   13       -8.582411
   14       -8.425098
   15       -8.424625
   16       -8.260707
   17       -6.663446
   18       -6.557976
   19       -6.555769
   20       -6.443063
   21       -4.336041
   22       -4.256102
   23       -4.254763
   24       -4.182973
   25       -4.160606
   26       -4.088221
   27       -4.087004
   28       -3.991057
   29       -3.202681
   30       -3.103095
   31       -3.102019
   32       -2.998172
   33       -2.136752
   34       -2.102164
   35       -2.074033
   36       -2.072056
   37       -2.001420
   38       -1.091252
   39       -1.033396
   40       -1.031807
   41       -0.961512
   42       -0.935557
   43       -0.902642
   44       -0.899934
   45       -0.593774
   46       -0.537493
   47       -0.536763
   48       -0.478317
   49        0.196150
   50        0.201940
   51        0.204165
   52        0.309337
   53        0.350219
   54        0.352694
   55        0.396638
   56        0.571636
   57        1.270550
   58        1.272766
   59        1.592531
   60        2.557450
   61        3.212987
   62        3.990737
   63        3.993302
   64        4.638869
   65        6.339163
   66        6.634869
   67        6.638124
   68        7.159121
   69        9.300005
   70        9.759756
   71        9.762058
   72       10.249187
   73       10.782216
   74       11.248911
   75       11.252050
   76       11.739369
   77       11.827517
   78       12.867500
   79       13.086320
   80       13.338363
   81       13.343625
   82       13.717310
   83       13.792465
   84       13.928916
 
  0.3333333E+00  0.3333333E+00  0.0000000E+00  0.1388889E-01
    1      -12.409490
    2      -12.406662
    3      -12.403997
    4      -12.191663
    5      -12.187553
    6      -12.187528
    7      -12.186480
    8      -12.184640
    9      -12.182280
   10      -11.947677
   11      -11.944836
   12      -11.942102
   13       -7.375265
   14       -7.210464
   15       -7.209995
   16       -7.201938
   17       -7.199077
   18       -7.192600
   19       -7.191364
   20       -7.029433
   21       -5.158210
   22       -5.157979
   23       -5.143738
   24       -5.141790
   25       -2.421257
   26       -2.417403
   27       -2.413696
   28       -2.369599
   29       -2.363522
   30       -2.363275
   31       -2.363177
   32       -2.362495
   33       -2.357092
   34       -2.315898
   35       -2.313467
   36       -2.310101
   37       -1.128368
   38       -1.125960
   39       -1.123783
   40       -1.046549
   41       -1.041429
   42       -1.038224
   43       -1.016648
   44       -1.010604
   45       -1.009186
   46       -1.008224
   47       -1.008217
   48       -1.001284
   49       -0.970228
   50       -0.965672
   51       -0.960534
   52        0.019344
   53        0.023391
   54        0.023703
   55        0.025102
   56        0.026265
   57        0.029495
   58        1.431705
   59        1.434366
   60        1.436616
   61        4.395218
   62        5.283069
   63        5.295902
   64        5.325345
   65        5.329991
   66        5.365282
   67        5.365661
   68        6.436273
   69       11.327524
   70       11.330825
   71       11.339361
   72       11.689054
   73       11.694699
   74       11.695280
   75       11.696019
   76       11.696721
   77       11.700943
   78       12.081900
   79       12.086289
   80       12.089265
   81       12.708819
   82       12.710120
   83       12.713692
   84       15.132878
 
  0.5000000E+00  0.3333333E+00  0.0000000E+00  0.1388889E-01
    1      -13.224539
    2      -12.994495
    3      -12.993809
    4      -12.739551
    5      -12.245982
    6      -12.028390
    7      -12.027708
    8      -11.788829
    9      -11.278576
   10      -11.073536
   11      -11.072961
   12      -10.849338
   13       -8.572845
   14       -8.415324
   15       -8.414711
   16       -8.250494
   17       -6.663869
   18       -6.558404
   19       -6.557675
   20       -6.445235
   21       -4.344748
   22       -4.265489
   23       -4.264308
   24       -4.187914
   25       -4.170624
   26       -4.094138
   27       -4.091317
   28       -3.996329
   29       -3.216601
   30       -3.117741
   31       -3.114544
   32       -3.011384
   33       -2.134502
   34       -2.104028
   35       -2.072609
   36       -2.068808
   37       -1.999055
   38       -1.103681
   39       -1.045063
   40       -1.042546
   41       -0.972458
   42       -0.937508
   43       -0.905019
   44       -0.902378
   45       -0.576007
   46       -0.520851
   47       -0.517554
   48       -0.460242
   49        0.199181
   50        0.200502
   51        0.202203
   52        0.322473
   53        0.363657
   54        0.366014
   55        0.410226
   56        0.569808
   57        1.273668
   58        1.276040
   59        1.590403
   60        2.560362
   61        3.216250
   62        3.996332
   63        3.998971
   64        4.649271
   65        6.344638
   66        6.634810
   67        6.637444
   68        7.147831
   69        9.305334
   70        9.758949
   71        9.762035
   72       10.242139
   73       10.773205
   74       11.241776
   75       11.245709
   76       11.736798
   77       11.825130
   78       12.865895
   79       13.075948
   80       13.336769
   81       13.341959
   82       13.746618
   83       13.793991
   84       13.958245
 
 -0.3333333E+00  0.3333333E+00  0.0000000E+00  0.1388889E-01
    1      -13.718960
    2      -13.482684
    3      -13.481989
    4      -13.219944
    5      -11.762125
    6      -11.550827
    7      -11.550153
    8      -11.318938
    9       -9.879069
   10       -9.877225
   11       -9.695490
   12       -9.693295
   13       -9.693220
   14       -9.691602
   15       -9.495451
   16       -9.493475
   17       -6.138212
   18       -6.136284
   19       -6.009627
   20       -6.008698
   21       -6.008649
   22       -6.005559
   23       -5.871989
   24       -5.869893
   25       -4.360382
   26       -4.241998
   27       -4.239523
   28       -4.114615
   29       -2.731288
   30       -2.729152
   31       -2.699785
   32       -2.650750
   33       -2.646839
   34       -2.646760
   35       -2.646546
   36       -2.560864
   37       -2.558846
   38       -1.482544
   39       -1.480417
   40       -0.411321
   41       -0.375588
   42       -0.360824
   43       -0.358087
   44       -0.306675
   45        0.005386
   46        0.034946
   47        0.065419
   48        0.069597
   49        0.130065
   50        0.725418
   51        0.727684
   52        1.211704
   53        1.250311
   54        1.254385
   55        1.293628
   56        1.769853
   57        1.771922
   58        2.051057
   59        2.694521
   60        2.699144
   61        2.699584
   62        2.701092
   63        3.691399
   64        3.694206
   65        7.403019
   66        7.405831
   67        7.847173
   68        7.848986
   69        7.849432
   70        7.854724
   71        8.463740
   72        8.466659
   73        9.655278
   74       10.221356
   75       10.225112
   76       10.983765
   77       11.154292
   78       12.799264
   79       13.104676
   80       13.106337
   81       13.235566
   82       13.591399
   83       13.593438
   84       13.598880
 
 -0.1666667E+00  0.3333333E+00  0.0000000E+00  0.1388889E-01
    1      -13.884155
    2      -13.645775
    3      -13.645081
    4      -13.380426
    5      -10.967593
    6      -10.960899
    7      -10.767803
    8      -10.766052
    9      -10.760225
   10      -10.759001
   11      -10.548088
   12      -10.541285
   13       -8.571497
   14       -8.460817
   15       -8.458886
   16       -8.379941
   17       -7.478560
   18       -7.442887
   19       -7.439586
   20       -7.349581
   21       -5.370541
   22       -5.361237
   23       -5.243332
   24       -5.239999
   25       -5.232691
   26       -5.231504
   27       -5.104688
   28       -5.095800
   29       -2.921327
   30       -2.899417
   31       -2.835819
   32       -2.833221
   33       -2.742772
   34       -1.674309
   35       -1.672164
   36       -1.233704
   37       -1.216628
   38       -1.171045
   39       -1.170068
   40       -1.154578
   41       -1.151907
   42       -1.105361
   43       -1.088157
   44       -0.145360
   45        0.539383
   46        0.544594
   47        0.644082
   48        0.676174
   49        0.681258