       N       E                     dE             d eps       ncg     rms          rms(c)
DAV:   1     0.674123559694E+03    0.67412E+03   -0.85254E+04 12768   0.202E+03
DAV:   2    -0.257383780738E+03   -0.93151E+03   -0.89578E+03 15744   0.341E+02
DAV:   3    -0.311501800225E+03   -0.54118E+02   -0.53497E+02 15576   0.798E+01
DAV:   4    -0.312527627423E+03   -0.10258E+01   -0.10238E+01 15636   0.118E+01
DAV:   5    -0.312558405042E+03   -0.30778E-01   -0.30765E-01 15936   0.194E+00    0.221E+01
DAV:   6    -0.298502443798E+03    0.14056E+02   -0.14477E+01 14592   0.106E+01    0.116E+01
DAV:   7    -0.294110689608E+03    0.43918E+01   -0.14840E+01 14568   0.108E+01    0.188E+00
DAV:   8    -0.294161140477E+03   -0.50451E-01   -0.38767E-01 14436   0.182E+00    0.365E-01
DAV:   9    -0.294160883560E+03    0.25692E-03   -0.27623E-02 15396   0.544E-01    0.176E-01
DAV:  10    -0.294160538788E+03    0.34477E-03   -0.46570E-03 15324   0.235E-01    0.110E-01
DAV:  11    -0.294161468023E+03   -0.92924E-03   -0.94630E-03 16848   0.221E-01    0.115E-01
DAV:  12    -0.294161125188E+03    0.34283E-03   -0.19817E-03 15408   0.137E-01    0.545E-02
DAV:  13    -0.294161242753E+03   -0.11756E-03   -0.15457E-03 15912   0.838E-02    0.572E-02
DAV:  14    -0.294161293606E+03   -0.50853E-04   -0.20314E-03 15444   0.845E-02    0.483E-02
DAV:  15    -0.294161251782E+03    0.41824E-04   -0.92435E-04 17316   0.553E-02    0.239E-02
DAV:  16    -0.294161251926E+03   -0.14455E-06   -0.24644E-05 14532   0.163E-02    0.234E-02
DAV:  17    -0.294161242199E+03    0.97271E-05   -0.14564E-04 22236   0.196E-02    0.693E-03
DAV:  18    -0.294161241654E+03    0.54495E-06   -0.38808E-06 14472   0.558E-03    0.407E-03
DAV:  19    -0.294161241231E+03    0.42304E-06   -0.96530E-06 18720   0.553E-03    0.388E-03
DAV:  20    -0.294161240999E+03    0.23235E-06   -0.28908E-06 15360   0.322E-03    0.485E-04
DAV:  21    -0.294161241034E+03   -0.34741E-07   -0.26115E-07 13572   0.111E-03    0.117E-03
DAV:  22    -0.294161241035E+03   -0.14425E-08   -0.14748E-08  9588   0.378E-04
   1 F= -.29961162E+03 E0= -.29961162E+03  d E =0.000000E+00
