 vasp.5.3.5 31Mar14 (build Nov 02 2014 15:17:37) complex                        
  
 executed on        ion-Intel-MKL date 2016.10.19  04:20:23
 running on    6 total cores
 distrk:  each k-point on    6 cores,    1 groups
 distr:  one band on NCORES_PER_BAND=   1 cores,    6 groups


--------------------------------------------------------------------------------------------------------


 INCAR:
 POTCAR:   PAW_PBE C 08Apr2002                    

 ----------------------------------------------------------------------------- 
|                                                                             |
|           W    W    AA    RRRRR   N    N  II  N    N   GGGG   !!!           |
|           W    W   A  A   R    R  NN   N  II  NN   N  G    G  !!!           |
|           W    W  A    A  R    R  N N  N  II  N N  N  G       !!!           |
|           W WW W  AAAAAA  RRRRR   N  N N  II  N  N N  G  GGG   !            |
|           WW  WW  A    A  R   R   N   NN  II  N   NN  G    G                |
|           W    W  A    A  R    R  N    N  II  N    N   GGGG   !!!           |
|                                                                             |
|      For optimal performance we recommend to set                            |
|        NCORE= 4 - approx SQRT( number of cores)                             |
|      NCORE specifies how many cores store one orbital (NPAR=cpu/NCORE).     |
|      This setting can  greatly improve the performance of VASP for DFT.     |
|      The default, NPAR=number of cores might be grossly inefficient         |
|      on modern multi-core architectures or massively parallel machines.     |
|      Do your own testing !!!!                                               |
|      Unfortunately you need to use the default for GW and RPA calculations. |
|      (for HF NCORE is supported but not extensively tested yet)             |
|                                                                             |
 ----------------------------------------------------------------------------- 

 POTCAR:   PAW_PBE C 08Apr2002                    
   VRHFIN =C: s2p2                                                              
   LEXCH  = PE                                                                  
   EATOM  =   147.1560 eV,   10.8157 Ry                                         
                                                                                
   TITEL  = PAW_PBE C 08Apr2002                                                 
   LULTRA =        F    use ultrasoft PP ?                                      
   IUNSCR =        0    unscreen: 0-lin 1-nonlin 2-no                           
   RPACOR =     .000    partial core radius                                     
   POMASS =   12.011; ZVAL   =    4.000    mass and valenz                      
   RCORE  =    1.500    outmost cutoff radius                                   
   RWIGS  =    1.630; RWIGS  =     .863    wigner-seitz radius (au A)           
   ENMAX  =  400.000; ENMIN  =  300.000 eV                                      
   ICORE  =        2    local potential                                         
   LCOR   =        T    correct aug charges                                     
   LPAW   =        T    paw PP                                                  
   EAUG   =  644.873                                                            
   DEXC   =     .000                                                            
   RMAX   =    2.266    core radius for proj-oper                               
   RAUG   =    1.300    factor for augmentation sphere                          
   RDEP   =    1.501    radius for radial grids                                 
   RDEPT  =    1.300    core radius for aug-charge                              
   QCUT   =   -5.516; QGAM   =   11.032    optimization parameters              
                                                                                
   Description                                                                  
     l     E      TYP  RCUT    TYP  RCUT                                        
     0   .000     23  1.200                                                     
     0   .000     23  1.200                                                     
     1   .000     23  1.500                                                     
     1  2.500     23  1.500                                                     
     2   .000      7  1.500                                                     
  local pseudopotential read in
  atomic valenz-charges read in
  non local Contribution for L=           0  read in
    real space projection operators read in
  non local Contribution for L=           0  read in
    real space projection operators read in
  non local Contribution for L=           1  read in
    real space projection operators read in
  non local Contribution for L=           1  read in
    real space projection operators read in
    PAW grid and wavefunctions read in
 
   number of l-projection  operators is LMAX  =           4
   number of lm-projection operators is LMMAX =           8
 

 ----------------------------------------------------------------------------- 
|                                                                             |
|  ADVICE TO THIS USER RUNNING 'VASP/VAMP'   (HEAR YOUR MASTER'S VOICE ...):  |
|                                                                             |
|      You have a (more or less) 'large supercell' and for larger cells       |
|      it might be more efficient to use real space projection operators      |
|      So try LREAL= Auto  in the INCAR   file.                               |
|      Mind: If you want to do a very accurate calculations keep the          |
|      reciprocal projection scheme          (i.e. LREAL=.FALSE.)             |
|                                                                             |
 ----------------------------------------------------------------------------- 

 PAW_PBE C 08Apr2002                    :
 energy of atom  1       EATOM= -147.1560
 kinetic energy error for atom=    0.0016 (will be added to EATOM!!)
 
 
 POSCAR: C                                       
  positions in direct lattice
  No initial velocities read in
 exchange correlation table for  LEXCH =        8
   RHO(1)=    0.500       N(1)  =     2000
   RHO(2)=  100.500       N(2)  =     4000
 


--------------------------------------------------------------------------------------------------------


 ion  position               nearest neighbor table
   1  0.500  0.000  0.126-  20 1.42  18 1.42  19 1.43
   2  1.000  0.000  0.125-  17 1.42  20 1.42  19 1.42
   3  0.500  0.500  0.125-  20 1.42  17 1.42  18 1.42
   4  1.000  0.500  0.125-  19 1.42  18 1.42  17 1.42
   5  0.500  0.000  0.625-  22 1.42  23 1.42  24 1.42
   6  1.000  0.000  0.625-  21 1.42  24 1.42  23 1.42
   7  0.500  0.500  0.625-  24 1.42  21 1.42  22 1.42
   8  1.000  0.500  0.625-  23 1.42  22 1.42  21 1.42
   9  0.000  0.500  0.375-  27 1.42  26 1.42  28 1.42
  10  0.500  0.500  0.375-  28 1.42  25 1.42  27 1.42
  11  0.000  1.000  0.375-  25 1.42  28 1.42  26 1.42
  12  0.500  1.000  0.375-  26 1.42  27 1.42  25 1.42
  13  0.000  0.500  0.875-  31 1.42  30 1.42  32 1.42
  14  0.500  0.500  0.875-  32 1.42  29 1.42  31 1.42
  15  0.000  1.000  0.875-  29 1.42  32 1.42  30 1.42
  16  0.500  1.000  0.875-  30 1.42  31 1.42  29 1.42
  17  0.166  0.334  0.125-   2 1.42   3 1.42   4 1.42
  18  0.666  0.334  0.125-   4 1.42   1 1.42   3 1.42
  19  0.166  0.834  0.125-   4 1.42   2 1.42   1 1.43
  20  0.666  0.834  0.125-   1 1.42   3 1.42   2 1.42
  21  0.166  0.334  0.625-   6 1.42   7 1.42   8 1.42
  22  0.666  0.334  0.625-   5 1.42   8 1.42   7 1.42
  23  0.166  0.834  0.625-   8 1.42   5 1.42   6 1.42
  24  0.666  0.834  0.625-   7 1.42   6 1.42   5 1.42
  25  0.334  0.166  0.375-  11 1.42  10 1.42  12 1.42
  26  0.834  0.166  0.375-  12 1.42   9 1.42  11 1.42
  27  0.334  0.666  0.375-   9 1.42  12 1.42  10 1.42
  28  0.834  0.666  0.375-  10 1.42  11 1.42   9 1.42
  29  0.334  0.166  0.875-  15 1.42  14 1.42  16 1.42
  30  0.834  0.166  0.875-  16 1.42  13 1.42  15 1.42
  31  0.334  0.666  0.875-  13 1.42  16 1.42  14 1.42
  32  0.834  0.666  0.875-  14 1.42  15 1.42  13 1.42
 
  LATTYP: Found a base centered orthorhombic cell.
 ALAT       =     4.9295501972
 B/A-ratio  =     1.7336081796
 C/A-ratio  =     2.5291742391
  
  Lattice vectors:
  
 A1 = (   4.9328744980,  -0.0019192860,   0.0000000000)
 A2 = (  -2.4680993993,   4.2710349859,   0.0000000000)
 A3 = (   0.0000000000,   0.0000000000,  12.4676913689)


Analysis of symmetry for initial positions (statically):
=====================================================================
 Subroutine PRICEL returns:
 Original cell was already a primitive cell.
 

 Routine SETGRP: Setting up the symmetry group for a 
 base centered orthorhombic supercell.


 Subroutine GETGRP returns: Found  1 space group operations
 (whereof  1 operations were pure point group operations)
 out of a pool of  8 trial point group operations.


The static configuration has the point symmetry C_1 .


Analysis of symmetry for dynamics (positions and initial velocities):
=====================================================================
 Subroutine PRICEL returns:
 Original cell was already a primitive cell.
 

 Routine SETGRP: Setting up the symmetry group for a 
 base centered orthorhombic supercell.


 Subroutine GETGRP returns: Found  1 space group operations
 (whereof  1 operations were pure point group operations)
 out of a pool of  8 trial point group operations.


The dynamic configuration has the point symmetry C_1 .
 
 
 KPOINTS: B4C B11C-CBC                            

Automatic generation of k-mesh.
Space group operators:
 irot       det(A)        alpha          n_x          n_y          n_z        tau_x        tau_y        tau_z
    1     1.000000     0.000000     1.000000     0.000000     0.000000     0.000000     0.000000     0.000000
 
 Subroutine IBZKPT returns following result:
 ===========================================
 
 Found     76 irreducible k-points:
 
 Following reciprocal coordinates:
            Coordinates               Weight
  0.000000  0.000000  0.000000      1.000000
  0.166667  0.000000  0.000000      2.000000
  0.333333  0.000000  0.000000      2.000000
  0.500000  0.000000  0.000000      1.000000
  0.000000  0.166667  0.000000      2.000000
  0.166667  0.166667  0.000000      2.000000
  0.333333  0.166667  0.000000      2.000000
  0.500000  0.166667  0.000000      2.000000
 -0.333333  0.166667  0.000000      2.000000
 -0.166667  0.166667  0.000000      2.000000
  0.000000  0.333333  0.000000      2.000000
  0.166667  0.333333  0.000000      2.000000
  0.333333  0.333333  0.000000      2.000000
  0.500000  0.333333  0.000000      2.000000
 -0.333333  0.333333  0.000000      2.000000
 -0.166667  0.333333  0.000000      2.000000
  0.000000  0.500000  0.000000      1.000000
  0.166667  0.500000  0.000000      2.000000
  0.333333  0.500000  0.000000      2.000000
  0.500000  0.500000  0.000000      1.000000
  0.000000  0.000000  0.250000      2.000000
  0.166667  0.000000  0.250000      2.000000
  0.333333  0.000000  0.250000      2.000000
  0.500000  0.000000  0.250000      2.000000
 -0.333333 -0.000000  0.250000      2.000000
 -0.166667 -0.000000  0.250000      2.000000
  0.000000  0.166667  0.250000      2.000000
  0.166667  0.166667  0.250000      2.000000
  0.333333  0.166667  0.250000      2.000000
  0.500000  0.166667  0.250000      2.000000
 -0.333333  0.166667  0.250000      2.000000
 -0.166667  0.166667  0.250000      2.000000
  0.000000  0.333333  0.250000      2.000000
  0.166667  0.333333  0.250000      2.000000
  0.333333  0.333333  0.250000      2.000000
  0.500000  0.333333  0.250000      2.000000
 -0.333333  0.333333  0.250000      2.000000
 -0.166667  0.333333  0.250000      2.000000
  0.000000  0.500000  0.250000      2.000000
  0.166667  0.500000  0.250000      2.000000
  0.333333  0.500000  0.250000      2.000000
  0.500000  0.500000  0.250000      2.000000
 -0.333333  0.500000  0.250000      2.000000
 -0.166667  0.500000  0.250000      2.000000
 -0.000000 -0.333333  0.250000      2.000000
  0.166667 -0.333333  0.250000      2.000000
  0.333333 -0.333333  0.250000      2.000000
  0.500000 -0.333333  0.250000      2.000000
 -0.333333 -0.333333  0.250000      2.000000
 -0.166667 -0.333333  0.250000      2.000000
 -0.000000 -0.166667  0.250000      2.000000
  0.166667 -0.166667  0.250000      2.000000
  0.333333 -0.166667  0.250000      2.000000
  0.500000 -0.166667  0.250000      2.000000
 -0.333333 -0.166667  0.250000      2.000000
 -0.166667 -0.166667  0.250000      2.000000
  0.000000  0.000000  0.500000      1.000000
  0.166667  0.000000  0.500000      2.000000
  0.333333  0.000000  0.500000      2.000000
  0.500000  0.000000  0.500000      1.000000
  0.000000  0.166667  0.500000      2.000000
  0.166667  0.166667  0.500000      2.000000
  0.333333  0.166667  0.500000      2.000000
  0.500000  0.166667  0.500000      2.000000
 -0.333333  0.166667  0.500000      2.000000
 -0.166667  0.166667  0.500000      2.000000
  0.000000  0.333333  0.500000      2.000000
  0.166667  0.333333  0.500000      2.000000
  0.333333  0.333333  0.500000      2.000000
  0.500000  0.333333  0.500000      2.000000
 -0.333333  0.333333  0.500000      2.000000
 -0.166667  0.333333  0.500000      2.000000
  0.000000  0.500000  0.500000      1.000000
  0.166667  0.500000  0.500000      2.000000
  0.333333  0.500000  0.500000      2.000000
  0.500000  0.500000  0.500000      1.000000
 
 Following cartesian coordinates:
            Coordinates               Weight
  0.000000  0.000000  0.000000      1.000000
  0.033795  0.019529  0.000000      2.000000
  0.067589  0.039058  0.000000      2.000000
  0.101384  0.058586  0.000000      1.000000
  0.000015  0.039031  0.000000      2.000000
  0.033810  0.058560  0.000000      2.000000
  0.067604  0.078089  0.000000      2.000000
  0.101399  0.097618  0.000000      2.000000
 -0.067574 -0.000026  0.000000      2.000000
 -0.033779  0.019503  0.000000      2.000000
  0.000030  0.078063  0.000000      2.000000
  0.033825  0.097591  0.000000      2.000000
  0.067619  0.117120  0.000000      2.000000
  0.101414  0.136649  0.000000      2.000000
 -0.067559  0.039005  0.000000      2.000000
 -0.033764  0.058534  0.000000      2.000000
  0.000046  0.117094  0.000000      1.000000
  0.033840  0.136623  0.000000      2.000000
  0.067635  0.156152  0.000000      2.000000
  0.101429  0.175680  0.000000      1.000000
  0.000000  0.000000  0.020052      2.000000
  0.033795  0.019529  0.020052      2.000000
  0.067589  0.039058  0.020052      2.000000
  0.101384  0.058586  0.020052      2.000000
 -0.067589 -0.039058  0.020052      2.000000
 -0.033795 -0.019529  0.020052      2.000000
  0.000015  0.039031  0.020052      2.000000
  0.033810  0.058560  0.020052      2.000000
  0.067604  0.078089  0.020052      2.000000
  0.101399  0.097618  0.020052      2.000000
 -0.067574 -0.000026  0.020052      2.000000
 -0.033779  0.019503  0.020052      2.000000
  0.000030  0.078063  0.020052      2.000000
  0.033825  0.097591  0.020052      2.000000
  0.067619  0.117120  0.020052      2.000000
  0.101414  0.136649  0.020052      2.000000
 -0.067559  0.039005  0.020052      2.000000
 -0.033764  0.058534  0.020052      2.000000
  0.000046  0.117094  0.020052      2.000000
  0.033840  0.136623  0.020052      2.000000
  0.067635  0.156152  0.020052      2.000000
  0.101429  0.175680  0.020052      2.000000
 -0.067543  0.078036  0.020052      2.000000
 -0.033749  0.097565  0.020052      2.000000
 -0.000030 -0.078063  0.020052      2.000000
  0.033764 -0.058534  0.020052      2.000000
  0.067559 -0.039005  0.020052      2.000000
  0.101353 -0.019476  0.020052      2.000000
 -0.067619 -0.117120  0.020052      2.000000
 -0.033825 -0.097591  0.020052      2.000000
 -0.000015 -0.039031  0.020052      2.000000
  0.033779 -0.019503  0.020052      2.000000
  0.067574  0.000026  0.020052      2.000000
  0.101368  0.019555  0.020052      2.000000
 -0.067604 -0.078089  0.020052      2.000000
 -0.033810 -0.058560  0.020052      2.000000
  0.000000  0.000000  0.040104      1.000000
  0.033795  0.019529  0.040104      2.000000
  0.067589  0.039058  0.040104      2.000000
  0.101384  0.058586  0.040104      1.000000
  0.000015  0.039031  0.040104      2.000000
  0.033810  0.058560  0.040104      2.000000
  0.067604  0.078089  0.040104      2.000000
  0.101399  0.097618  0.040104      2.000000
 -0.067574 -0.000026  0.040104      2.000000
 -0.033779  0.019503  0.040104      2.000000
  0.000030  0.078063  0.040104      2.000000
  0.033825  0.097591  0.040104      2.000000
  0.067619  0.117120  0.040104      2.000000
  0.101414  0.136649  0.040104      2.000000
 -0.067559  0.039005  0.040104      2.000000
 -0.033764  0.058534  0.040104      2.000000
  0.000046  0.117094  0.040104      1.000000
  0.033840  0.136623  0.040104      2.000000
  0.067635  0.156152  0.040104      2.000000
  0.101429  0.175680  0.040104      1.000000
 
 TETIRR: Found    432 inequivalent tetrahedra from      864


--------------------------------------------------------------------------------------------------------




 Dimension of arrays:
   k-points           NKPTS =     76   k-points in BZ     NKDIM =     76   number of bands    NBANDS=     84
   number of dos      NEDOS =    301   number of ions     NIONS =     32
   non local maximal  LDIM  =      4   non local SUM 2l+1 LMDIM =      8
   total plane-waves  NPLWV = 276480
   max r-space proj   IRMAX =      1   max aug-charges    IRDMAX=  12622
   dimension x,y,z NGX =    48 NGY =   48 NGZ =  120
   dimension x,y,z NGXF=    96 NGYF=   96 NGZF=  240
   support grid    NGXF=    96 NGYF=   96 NGZF=  240
   ions per type =              32
 NGX,Y,Z   is equivalent  to a cutoff of  16.18, 16.18, 16.00 a.u.
 NGXF,Y,Z  is equivalent  to a cutoff of  32.35, 32.35, 32.00 a.u.


 I would recommend the setting:
   dimension x,y,z NGX =    46 NGY =   46 NGZ =  115
 SYSTEM =  graphite                                
 POSCAR =  C                                       

 Startparameter for this run:
   NWRITE =      2    write-flag & timer
   PREC   = accura    normal or accurate (medium, high low for compatibility)
   ISTART =      0    job   : 0-new  1-cont  2-samecut
   ICHARG =      2    charge: 1-file 2-atom 10-const
   ISPIN  =      1    spin polarized calculation?
   LNONCOLLINEAR =      F non collinear calculations
   LSORBIT =      F    spin-orbit coupling
   INIWAV =      1    electr: 0-lowe 1-rand  2-diag
   LASPH  =      F    aspherical Exc in radial PAW
   METAGGA=      F    non-selfconsistent MetaGGA calc.

 Electronic Relaxation 1
   ENCUT  =  800.0 eV  58.80 Ry    7.67 a.u.  11.38 11.38 28.75*2*pi/ulx,y,z
   ENINI  =  800.0     initial cutoff
   ENAUG  =  644.9 eV  augmentation charge cutoff
   NELM   =    200;   NELMIN=  2; NELMDL=  0     # of ELM steps 
   EDIFF  = 0.1E-07   stopping-criterion for ELM
   LREAL  =      F    real-space projection
   NLSPLINE    = F    spline interpolate recip. space projectors
   LCOMPAT=      F    compatible to vasp.4.4
   GGA_COMPAT  = T    GGA compatible to vasp.4.4-vasp.4.6
   LMAXPAW     = -100 max onsite density
   LMAXMIX     =    2 max onsite mixed and CHGCAR
   VOSKOWN=      0    Vosko Wilk Nusair interpolation
   ROPT   =    0.00000
 Ionic relaxation
   EDIFFG = 0.1E-02   stopping-criterion for IOM
   NSW    =      0    number of steps for IOM
   NBLOCK =      1;   KBLOCK =      1    inner block; outer block 
   IBRION =     -1    ionic relax: 0-MD 1-quasi-New 2-CG
   NFREE  =      0    steps in history (QN), initial steepest desc. (CG)
   ISIF   =      2    stress and relaxation
   IWAVPR =     10    prediction:  0-non 1-charg 2-wave 3-comb
   ISYM   =      2    0-nonsym 1-usesym 2-fastsym
   LCORR  =      T    Harris-Foulkes like correction to forces

   POTIM  = 0.5000    time-step for ionic-motion
   TEIN   =    0.0    initial temperature
   TEBEG  =    0.0;   TEEND  =   0.0 temperature during run
   SMASS  =  -3.00    Nose mass-parameter (am)
   estimated Nose-frequenzy (Omega)   =  0.10E-29 period in steps =****** mass=  -0.556E-27a.u.
   SCALEE = 1.0000    scale energy and forces
   NPACO  =    256;   APACO  = 16.0  distance and # of slots for P.C.
   PSTRESS=    0.0 pullay stress

  Mass of Ions in am
   POMASS =  12.01
  Ionic Valenz
   ZVAL   =   4.00
  Atomic Wigner-Seitz radii
   RWIGS  =  -1.00
  virtual crystal weights 
   VCA    =   1.00
   NELECT =     128.0000    total number of electrons
   NUPDOWN=      -1.0000    fix difference up-down

 DOS related values:
   EMIN   =  10.00;   EMAX   =-10.00  energy-range for DOS
   EFERMI =   0.00
   ISMEAR =    -5;   SIGMA  =   0.20  broadening in eV -4-tet -1-fermi 0-gaus

 Electronic relaxation 2 (details)
   IALGO  =     38    algorithm
   LDIAG  =      T    sub-space diagonalisation (order eigenvalues)
   LSUBROT=      F    optimize rotation matrix (better conditioning)
   TURBO    =      0    0=normal 1=particle mesh
   IRESTART =      0    0=no restart 2=restart with 2 vectors
   NREBOOT  =      0    no. of reboots
   NMIN     =      0    reboot dimension
   EREF     =   0.00    reference energy to select bands
   IMIX   =      4    mixing-type and parameters
     AMIX     =   0.40;   BMIX     =  1.00
     AMIX_MAG =   1.60;   BMIX_MAG =  1.00
     AMIN     =   0.10
     WC   =   100.;   INIMIX=   1;  MIXPRE=   1;  MAXMIX= -45

 Intra band minimization:
   WEIMIN = 0.0000     energy-eigenvalue tresh-hold
   EBREAK =  0.30E-10  absolut break condition
   DEPER  =   0.30     relativ break condition  

   TIME   =   0.40     timestep for ELM

  volume/ion in A,a.u.               =       8.21        55.38
  Fermi-wavevector in a.u.,A,eV,Ry     =   1.288361  2.434650 22.583964  1.659875
  Thomas-Fermi vector in A             =   2.420320
 
 Write flags
   LWAVE  =      F    write WAVECAR
   LCHARG =      F    write CHGCAR
   LVTOT  =      F    write LOCPOT, total local potential
   LVHAR  =      F    write LOCPOT, Hartree potential only
   LELF   =      F    write electronic localiz. function (ELF)
   LORBIT =      0    0 simple, 1 ext, 2 COOP (PROOUT)


 Dipole corrections
   LMONO  =      F    monopole corrections only (constant potential shift)
   LDIPOL =      F    correct potential (dipole corrections)
   IDIPOL =      0    1-x, 2-y, 3-z, 4-all directions 
   EPSILON=  1.0000000 bulk dielectric constant

 Exchange correlation treatment:
   GGA     =    PE    GGA type
   LEXCH   =     8    internal setting for exchange type
   VOSKOWN=      0    Vosko Wilk Nusair interpolation
   LHFCALC =     F    Hartree Fock is set to
   LHFONE  =     F    Hartree Fock one center treatment
   AEXX    =    0.0000 exact exchange contribution

 Linear response parameters
   LEPSILON=     F    determine dielectric tensor
   LRPA    =     F    only Hartree local field effects (RPA)
   LNABLA  =     F    use nabla operator in PAW spheres
   LVEL    =     F    velocity operator in full k-point grid
   LINTERFAST=   F  fast interpolation
   KINTER  =     0    interpolate to denser k-point grid
   CSHIFT  =0.1000    complex shift for real part using Kramers Kronig
   OMEGAMAX=  -1.0    maximum frequency
   DEG_THRESHOLD= 0.2000000E-02 threshold for treating states as degnerate
   RTIME   =    0.100 relaxation time in fs

 Orbital magnetization related:
   ORBITALMAG=     F  switch on orbital magnetization
   LCHIMAG   =     F  perturbation theory with respect to B field
   DQ        =  0.001000  dq finite difference perturbation B field



--------------------------------------------------------------------------------------------------------


 Static calculation
 charge density and potential will be updated during run
 non-spin polarized calculation
 Variant of blocked Davidson
 Davidson routine will perform the subspace rotation
 perform sub-space diagonalisation
    after iterative eigenvector-optimisation
 modified Broyden-mixing scheme, WC =      100.0
 initial mixing is a Kerker type mixing with AMIX =  0.4000 and BMIX =      1.0000
 Hartree-type preconditioning will be used
 using additional bands           20
 reciprocal scheme for non local part
 calculate Harris-corrections to forces 
   (improved forces if not selfconsistent)
 use gradient corrections 
 use of overlap-Matrix (Vanderbilt PP)
 Fermi weights with tetrahedron method with Bloechl corrections


--------------------------------------------------------------------------------------------------------


  energy-cutoff  :      800.00
  volume of cell :      262.62
      direct lattice vectors                 reciprocal lattice vectors
     4.932874498 -0.001919286  0.000000000     0.202767147  0.117172881  0.000000000
    -2.468099399  4.271034986  0.000000000     0.000091118  0.234187941  0.000000000
     0.000000000  0.000000000 12.467691369     0.000000000  0.000000000  0.080207311

  length of vectors
     4.932874871  4.932874871 12.467691369     0.234187958  0.234187958  0.080207311


 
 k-points in units of 2pi/SCALE and weight: B4C B11C-CBC                            
   0.00000000  0.00000000  0.00000000       0.007
   0.03379452  0.01952881  0.00000000       0.014
   0.06758905  0.03905763  0.00000000       0.014
   0.10138357  0.05858644  0.00000000       0.007
   0.00001519  0.03903132  0.00000000       0.014
   0.03380971  0.05856014  0.00000000       0.014
   0.06760424  0.07808895  0.00000000       0.014
   0.10139876  0.09761776  0.00000000       0.014
  -0.06757386 -0.00002630  0.00000000       0.014
  -0.03377934  0.01950251  0.00000000       0.014
   0.00003037  0.07806265  0.00000000       0.014
   0.03382490  0.09759146  0.00000000       0.014
   0.06761942  0.11712027  0.00000000       0.014
   0.10141395  0.13664909  0.00000000       0.014
  -0.06755868  0.03900502  0.00000000       0.014
  -0.03376415  0.05853383  0.00000000       0.014
   0.00004556  0.11709397  0.00000000       0.007
   0.03384008  0.13662278  0.00000000       0.014
   0.06763461  0.15615160  0.00000000       0.014
   0.10142913  0.17568041  0.00000000       0.007
   0.00000000  0.00000000  0.02005183       0.014
   0.03379452  0.01952881  0.02005183       0.014
   0.06758905  0.03905763  0.02005183       0.014
   0.10138357  0.05858644  0.02005183       0.014
  -0.06758905 -0.03905763  0.02005183       0.014
  -0.03379452 -0.01952881  0.02005183       0.014
   0.00001519  0.03903132  0.02005183       0.014
   0.03380971  0.05856014  0.02005183       0.014
   0.06760424  0.07808895  0.02005183       0.014
   0.10139876  0.09761776  0.02005183       0.014
  -0.06757386 -0.00002630  0.02005183       0.014
  -0.03377934  0.01950251  0.02005183       0.014
   0.00003037  0.07806265  0.02005183       0.014
   0.03382490  0.09759146  0.02005183       0.014
   0.06761942  0.11712027  0.02005183       0.014
   0.10141395  0.13664909  0.02005183       0.014
  -0.06755868  0.03900502  0.02005183       0.014
  -0.03376415  0.05853383  0.02005183       0.014
   0.00004556  0.11709397  0.02005183       0.014
   0.03384008  0.13662278  0.02005183       0.014
   0.06763461  0.15615160  0.02005183       0.014
   0.10142913  0.17568041  0.02005183       0.014
  -0.06754349  0.07803634  0.02005183       0.014
  -0.03374897  0.09756516  0.02005183       0.014
  -0.00003037 -0.07806265  0.02005183       0.014
   0.03376415 -0.05853383  0.02005183       0.014
   0.06755868 -0.03900502  0.02005183       0.014
   0.10135320 -0.01947621  0.02005183       0.014
  -0.06761942 -0.11712027  0.02005183       0.014
  -0.03382490 -0.09759146  0.02005183       0.014
  -0.00001519 -0.03903132  0.02005183       0.014
   0.03377934 -0.01950251  0.02005183       0.014
   0.06757386  0.00002630  0.02005183       0.014
   0.10136839  0.01955512  0.02005183       0.014
  -0.06760424 -0.07808895  0.02005183       0.014
  -0.03380971 -0.05856014  0.02005183       0.014
   0.00000000  0.00000000  0.04010366       0.007
   0.03379452  0.01952881  0.04010366       0.014
   0.06758905  0.03905763  0.04010366       0.014
   0.10138357  0.05858644  0.04010366       0.007
   0.00001519  0.03903132  0.04010366       0.014
   0.03380971  0.05856014  0.04010366       0.014
   0.06760424  0.07808895  0.04010366       0.014
   0.10139876  0.09761776  0.04010366       0.014
  -0.06757386 -0.00002630  0.04010366       0.014
  -0.03377934  0.01950251  0.04010366       0.014
   0.00003037  0.07806265  0.04010366       0.014
   0.03382490  0.09759146  0.04010366       0.014
   0.06761942  0.11712027  0.04010366       0.014
   0.10141395  0.13664909  0.04010366       0.014
  -0.06755868  0.03900502  0.04010366       0.014
  -0.03376415  0.05853383  0.04010366       0.014
   0.00004556  0.11709397  0.04010366       0.007
   0.03384008  0.13662278  0.04010366       0.014
   0.06763461  0.15615160  0.04010366       0.014
   0.10142913  0.17568041  0.04010366       0.007
 
 k-points in reciprocal lattice and weights: B4C B11C-CBC                            
   0.00000000  0.00000000  0.00000000       0.007
   0.16666667  0.00000000  0.00000000       0.014
   0.33333333  0.00000000  0.00000000       0.014
   0.50000000  0.00000000  0.00000000       0.007
   0.00000000  0.16666667  0.00000000       0.014
   0.16666667  0.16666667  0.00000000       0.014
   0.33333333  0.16666667  0.00000000       0.014
   0.50000000  0.16666667  0.00000000       0.014
  -0.33333333  0.16666667  0.00000000       0.014
  -0.16666667  0.16666667  0.00000000       0.014
   0.00000000  0.33333333  0.00000000       0.014
   0.16666667  0.33333333  0.00000000       0.014
   0.33333333  0.33333333  0.00000000       0.014
   0.50000000  0.33333333  0.00000000       0.014
  -0.33333333  0.33333333  0.00000000       0.014
  -0.16666667  0.33333333  0.00000000       0.014
   0.00000000  0.50000000  0.00000000       0.007
   0.16666667  0.50000000  0.00000000       0.014
   0.33333333  0.50000000  0.00000000       0.014
   0.50000000  0.50000000  0.00000000       0.007
   0.00000000  0.00000000  0.25000000       0.014
   0.16666667  0.00000000  0.25000000       0.014
   0.33333333  0.00000000  0.25000000       0.014
   0.50000000  0.00000000  0.25000000       0.014
  -0.33333333 -0.00000000  0.25000000       0.014
  -0.16666667 -0.00000000  0.25000000       0.014
   0.00000000  0.16666667  0.25000000       0.014
   0.16666667  0.16666667  0.25000000       0.014
   0.33333333  0.16666667  0.25000000       0.014
   0.50000000  0.16666667  0.25000000       0.014
  -0.33333333  0.16666667  0.25000000       0.014
  -0.16666667  0.16666667  0.25000000       0.014
   0.00000000  0.33333333  0.25000000       0.014
   0.16666667  0.33333333  0.25000000       0.014
   0.33333333  0.33333333  0.25000000       0.014
   0.50000000  0.33333333  0.25000000       0.014
  -0.33333333  0.33333333  0.25000000       0.014
  -0.16666667  0.33333333  0.25000000       0.014
   0.00000000  0.50000000  0.25000000       0.014
   0.16666667  0.50000000  0.25000000       0.014
   0.33333333  0.50000000  0.25000000       0.014
   0.50000000  0.50000000  0.25000000       0.014
  -0.33333333  0.50000000  0.25000000       0.014
  -0.16666667  0.50000000  0.25000000       0.014
  -0.00000000 -0.33333333  0.25000000       0.014
   0.16666667 -0.33333333  0.25000000       0.014
   0.33333333 -0.33333333  0.25000000       0.014
   0.50000000 -0.33333333  0.25000000       0.014
  -0.33333333 -0.33333333  0.25000000       0.014
  -0.16666667 -0.33333333  0.25000000       0.014
  -0.00000000 -0.16666667  0.25000000       0.014
   0.16666667 -0.16666667  0.25000000       0.014
   0.33333333 -0.16666667  0.25000000       0.014
   0.50000000 -0.16666667  0.25000000       0.014
  -0.33333333 -0.16666667  0.25000000       0.014
  -0.16666667 -0.16666667  0.25000000       0.014
   0.00000000  0.00000000  0.50000000       0.007
   0.16666667  0.00000000  0.50000000       0.014
   0.33333333  0.00000000  0.50000000       0.014
   0.50000000  0.00000000  0.50000000       0.007
   0.00000000  0.16666667  0.50000000       0.014
   0.16666667  0.16666667  0.50000000       0.014
   0.33333333  0.16666667  0.50000000       0.014
   0.50000000  0.16666667  0.50000000       0.014
  -0.33333333  0.16666667  0.50000000       0.014
  -0.16666667  0.16666667  0.50000000       0.014
   0.00000000  0.33333333  0.50000000       0.014
   0.16666667  0.33333333  0.50000000       0.014
   0.33333333  0.33333333  0.50000000       0.014
   0.50000000  0.33333333  0.50000000       0.014
  -0.33333333  0.33333333  0.50000000       0.014
  -0.16666667  0.33333333  0.50000000       0.014
   0.00000000  0.50000000  0.50000000       0.007
   0.16666667  0.50000000  0.50000000       0.014
   0.33333333  0.50000000  0.50000000       0.014
   0.50000000  0.50000000  0.50000000       0.007
 
 position of ions in fractional coordinates (direct lattice) 
   0.50041912  0.00032672  0.12574582
   0.99967330  0.00032672  0.12500000
   0.49967330  0.50032672  0.12500000
   0.99967330  0.50032672  0.12500000
   0.49967330  0.00032672  0.62500000
   0.99967330  0.00032672  0.62500000
   0.49967330  0.50032672  0.62500000
   0.99967330  0.50032672  0.62500000
   0.00032672  0.49967330  0.37500000
   0.50032672  0.49967330  0.37500000
   0.00032672  0.99967330  0.37500000
   0.50032672  0.99967330  0.37500000
   0.00032672  0.49967330  0.87500000
   0.50032672  0.49967330  0.87500000
   0.00032672  0.99967330  0.87500000
   0.50032672  0.99967330  0.87500000
   0.16629246  0.33370753  0.12500000
   0.66629246  0.33370753  0.12500000
   0.16629246  0.83370753  0.12500000
   0.66629246  0.83370753  0.12500000
   0.16629246  0.33370753  0.62500000
   0.66629246  0.33370753  0.62500000
   0.16629246  0.83370753  0.62500000
   0.66629246  0.83370753  0.62500000
   0.33370753  0.16629246  0.37500000
   0.83370753  0.16629246  0.37500000
   0.33370753  0.66629246  0.37500000
   0.83370753  0.66629246  0.37500000
   0.33370753  0.16629246  0.87500000
   0.83370753  0.16629246  0.87500000
   0.33370753  0.66629246  0.87500000
   0.83370753  0.66629246  0.87500000
 
 position of ions in cartesian coordinates  (Angst):
   2.46769836  0.00043498  1.56776006
   4.93045658 -0.00052323  1.55846142
   1.22996963  2.13595390  1.55846142
   3.69640688  2.13499426  1.55846142
   2.46401933  0.00043641  7.79230711
   4.93045658 -0.00052323  7.79230711
   1.22996963  2.13595390  7.79230711
   3.69640688  2.13499426  7.79230711
  -1.23163172  2.13412154  4.67538426
   1.23480553  2.13316189  4.67538426
  -2.46568142  4.26963903  4.67538426
   0.00075583  4.26867939  4.67538426
  -1.23163172  2.13412154 10.90922995
   1.23480553  2.13316189 10.90922995
  -2.46568142  4.26963903 10.90922995
   0.00075583  4.26867939 10.90922995
  -0.00332350  1.42495737  1.55846142
   2.46311374  1.42399773  1.55846142
  -1.23737320  3.56047486  1.55846142
   1.22906405  3.55951522  1.55846142
  -0.00332350  1.42495737  7.79230711
   2.46311374  1.42399773  7.79230711
  -1.23737320  3.56047486  7.79230711
   1.22906405  3.55951522  7.79230711
   1.23571103  0.70960044  4.67538426
   3.70214828  0.70864080  4.67538426
   0.00166133  2.84511794  4.67538426
   2.46809858  2.84415829  4.67538426
   1.23571103  0.70960044 10.90922995
   3.70214828  0.70864080 10.90922995
   0.00166133  2.84511794 10.90922995
   2.46809858  2.84415829 10.90922995
 


--------------------------------------------------------------------------------------------------------


 k-point  1 :   0.0000 0.0000 0.0000  plane waves:   13513
 k-point  2 :   0.1667 0.0000 0.0000  plane waves:   13522
 k-point  3 :   0.3333 0.0000 0.0000  plane waves:   13488
 k-point  4 :   0.5000 0.0000 0.0000  plane waves:   13476
 k-point  5 :   0.0000 0.1667 0.0000  plane waves:   13522
 k-point  6 :   0.1667 0.1667 0.0000  plane waves:   13491
 k-point  7 :   0.3333 0.1667 0.0000  plane waves:   13481
 k-point  8 :   0.5000 0.1667 0.0000  plane waves:   13485
 k-point  9 :  -0.3333 0.1667 0.0000  plane waves:   13487
 k-point 10 :  -0.1667 0.1667 0.0000  plane waves:   13522
 k-point 11 :   0.0000 0.3333 0.0000  plane waves:   13488
 k-point 12 :   0.1667 0.3333 0.0000  plane waves:   13481
 k-point 13 :   0.3333 0.3333 0.0000  plane waves:   13488
 k-point 14 :   0.5000 0.3333 0.0000  plane waves:   13481
 k-point 15 :  -0.3333 0.3333 0.0000  plane waves:   13486
 k-point 16 :  -0.1667 0.3333 0.0000  plane waves:   13487
 k-point 17 :   0.0000 0.5000 0.0000  plane waves:   13476
 k-point 18 :   0.1667 0.5000 0.0000  plane waves:   13485
 k-point 19 :   0.3333 0.5000 0.0000  plane waves:   13481
 k-point 20 :   0.5000 0.5000 0.0000  plane waves:   13484
 k-point 21 :   0.0000 0.0000 0.2500  plane waves:   13506
 k-point 22 :   0.1667 0.0000 0.2500  plane waves:   13516
 k-point 23 :   0.3333 0.0000 0.2500  plane waves:   13488
 k-point 24 :   0.5000 0.0000 0.2500  plane waves:   13496
 k-point 25 :  -0.3333-0.0000 0.2500  plane waves:   13488
 k-point 26 :  -0.1667-0.0000 0.2500  plane waves:   13516
 k-point 27 :   0.0000 0.1667 0.2500  plane waves:   13516
 k-point 28 :   0.1667 0.1667 0.2500  plane waves:   13494
 k-point 29 :   0.3333 0.1667 0.2500  plane waves:   13475
 k-point 30 :   0.5000 0.1667 0.2500  plane waves:   13480
 k-point 31 :  -0.3333 0.1667 0.2500  plane waves:   13499
 k-point 32 :  -0.1667 0.1667 0.2500  plane waves:   13515
 k-point 33 :   0.0000 0.3333 0.2500  plane waves:   13488
 k-point 34 :   0.1667 0.3333 0.2500  plane waves:   13475
 k-point 35 :   0.3333 0.3333 0.2500  plane waves:   13462
 k-point 36 :   0.5000 0.3333 0.2500  plane waves:   13481
 k-point 37 :  -0.3333 0.3333 0.2500  plane waves:   13487
 k-point 38 :  -0.1667 0.3333 0.2500  plane waves:   13499
 k-point 39 :   0.0000 0.5000 0.2500  plane waves:   13496
 k-point 40 :   0.1667 0.5000 0.2500  plane waves:   13480
 k-point 41 :   0.3333 0.5000 0.2500  plane waves:   13481
 k-point 42 :   0.5000 0.5000 0.2500  plane waves:   13496
 k-point 43 :  -0.3333 0.5000 0.2500  plane waves:   13481
 k-point 44 :  -0.1667 0.5000 0.2500  plane waves:   13480
 k-point 45 :  -0.0000-0.3333 0.2500  plane waves:   13488
 k-point 46 :   0.1667-0.3333 0.2500  plane waves:   13499
 k-point 47 :   0.3333-0.3333 0.2500  plane waves:   13487
 k-point 48 :   0.5000-0.3333 0.2500  plane waves:   13481
 k-point 49 :  -0.3333-0.3333 0.2500  plane waves:   13462
 k-point 50 :  -0.1667-0.3333 0.2500  plane waves:   13475
 k-point 51 :  -0.0000-0.1667 0.2500  plane waves:   13516
 k-point 52 :   0.1667-0.1667 0.2500  plane waves:   13515
 k-point 53 :   0.3333-0.1667 0.2500  plane waves:   13499
 k-point 54 :   0.5000-0.1667 0.2500  plane waves:   13480
 k-point 55 :  -0.3333-0.1667 0.2500  plane waves:   13475
 k-point 56 :  -0.1667-0.1667 0.2500  plane waves:   13494
 k-point 57 :   0.0000 0.0000 0.5000  plane waves:   13482
 k-point 58 :   0.1667 0.0000 0.5000  plane waves:   13538
 k-point 59 :   0.3333 0.0000 0.5000  plane waves:   13486
 k-point 60 :   0.5000 0.0000 0.5000  plane waves:   13500
 k-point 61 :   0.0000 0.1667 0.5000  plane waves:   13538
 k-point 62 :   0.1667 0.1667 0.5000  plane waves:   13520
 k-point 63 :   0.3333 0.1667 0.5000  plane waves:   13468
 k-point 64 :   0.5000 0.1667 0.5000  plane waves:   13476
 k-point 65 :  -0.3333 0.1667 0.5000  plane waves:   13518
 k-point 66 :  -0.1667 0.1667 0.5000  plane waves:   13540
 k-point 67 :   0.0000 0.3333 0.5000  plane waves:   13486
 k-point 68 :   0.1667 0.3333 0.5000  plane waves:   13468
 k-point 69 :   0.3333 0.3333 0.5000  plane waves:   13500
 k-point 70 :   0.5000 0.3333 0.5000  plane waves:   13470
 k-point 71 :  -0.3333 0.3333 0.5000  plane waves:   13486
 k-point 72 :  -0.1667 0.3333 0.5000  plane waves:   13518
 k-point 73 :   0.0000 0.5000 0.5000  plane waves:   13500
 k-point 74 :   0.1667 0.5000 0.5000  plane waves:   13476
 k-point 75 :   0.3333 0.5000 0.5000  plane waves:   13470
 k-point 76 :   0.5000 0.5000 0.5000  plane waves:   13500

 maximum and minimum number of plane-waves per node :     13540    13462

 maximum number of plane-waves:     13540
 maximum index in each direction: 
   IXMAX=   11   IYMAX=   11   IZMAX=   28
   IXMIN=  -11   IYMIN=  -11   IZMIN=  -29

 NGX is ok and might be reduce to  46
 NGY is ok and might be reduce to  46
 NGZ is ok and might be reduce to 116

 serial   3D FFT for wavefunctions
 parallel 3D FFT for charge:
    minimum data exchange during FFTs selected (reduces bandwidth)


 total amount of memory used by VASP on root node   380300. kBytes
========================================================================

   base      :      30000. kBytes
   nonl-proj :      72801. kBytes
   fftplans  :      13581. kBytes
   grid      :      28889. kBytes
   one-center:         98. kBytes
   wavefun   :     234931. kBytes
 
     INWAV:  cpu time    0.00: real time    0.01
 Broyden mixing: mesh for mixing (old mesh)
   NGX = 23   NGY = 23   NGZ = 57
  (NGX  = 96   NGY  = 96   NGZ  =240)
  gives a total of  30153 points

 initial charge density was supplied:
 charge density of overlapping atoms calculated
 number of electron     128.0000000 magnetization 
 keeping initial charge density in first step


--------------------------------------------------------------------------------------------------------


 Maximum index for augmentation-charges         2043 (set IRDMAX)


--------------------------------------------------------------------------------------------------------


 First call to EWALD:  gamma=   0.277
 Maximum number of real-space cells 4x 4x 2
 Maximum number of reciprocal cells 2x 2x 5

 FEWALD executed in parallel
    FEWALD:  cpu time    0.02: real time    0.04


----------------------------------------- Iteration    1(   1)  ---------------------------------------


    POTLOK:  cpu time    0.96: real time    1.90
    SETDIJ:  cpu time    0.03: real time    0.06
     EDDAV:  cpu time  226.70: real time  453.65
 BZINTS: Fermi energy: 18.010905;128.000000 electrons
         Band energy: 245.448669;  BLOECHL correction: -0.128124
       DOS:  cpu time    0.09: real time    0.18
    --------------------------------------------
      LOOP:  cpu time  227.78: real time  455.83

 eigenvalue-minimisations  : 12768
 total energy-change (2. order) : 0.6741236E+03  (-0.8525425E+04)
 number of electron     128.0000000 magnetization 
 augmentation part      128.0000000 magnetization 

 Free energy of the ion-electron system (eV)
  ---------------------------------------------------
  alpha Z        PSCENC =       317.70955013
  Ewald energy   TEWEN  =     -4034.92338460
  -Hartree energ DENC   =      -970.56137806
  -exchange      EXHF   =         0.00000000
  -V(xc)+E(xc)   XCENC  =       444.32390218
  PAW double counting   =      1210.60617908    -1247.42152856
  entropy T*S    EENTRO =         0.00000000
  eigenvalues    EBANDS =       245.44866907
  atomic energy  EATOM  =      4708.94155045
  ---------------------------------------------------
  free energy    TOTEN  =       674.12355969 eV

  energy without entropy =      674.12355969  energy(sigma->0) =      674.12355969


--------------------------------------------------------------------------------------------------------




----------------------------------------- Iteration    1(   2)  ---------------------------------------


     EDDAV:  cpu time  258.57: real time  516.41
 BZINTS: Fermi energy:  4.714811;128.000000 electrons
         Band energy:-686.058671;  BLOECHL correction: -0.003106
       DOS:  cpu time    0.08: real time    0.15
    --------------------------------------------
      LOOP:  cpu time  258.66: real time  516.60

 eigenvalue-minimisations  : 15744
 total energy-change (2. order) :-0.9315073E+03  (-0.8957787E+03)
 number of electron     128.0000000 magnetization 
 augmentation part      128.0000000 magnetization 

 Free energy of the ion-electron system (eV)
  ---------------------------------------------------
  alpha Z        PSCENC =       317.70955013
  Ewald energy   TEWEN  =     -4034.92338460
  -Hartree energ DENC   =      -970.56137806
  -exchange      EXHF   =         0.00000000
  -V(xc)+E(xc)   XCENC  =       444.32390218
  PAW double counting   =      1210.60617908    -1247.42152856
  entropy T*S    EENTRO =         0.00000000
  eigenvalues    EBANDS =      -686.05867137
  atomic energy  EATOM  =      4708.94155045
  ---------------------------------------------------
  free energy    TOTEN  =      -257.38378074 eV

  energy without entropy =     -257.38378074  energy(sigma->0) =     -257.38378074


--------------------------------------------------------------------------------------------------------




----------------------------------------- Iteration    1(   3)  ---------------------------------------


     EDDAV:  cpu time  252.38: real time  505.01
 BZINTS: Fermi energy:  4.016690;128.000000 electrons
         Band energy:-740.176691;  BLOECHL correction: -0.000146
       DOS:  cpu time    0.07: real time    0.15
    --------------------------------------------
      LOOP:  cpu time  252.47: real time  505.22

 eigenvalue-minimisations  : 15576
 total energy-change (2. order) :-0.5411802E+02  (-0.5349692E+02)
 number of electron     128.0000000 magnetization 
 augmentation part      128.0000000 magnetization 

 Free energy of the ion-electron system (eV)
  ---------------------------------------------------
  alpha Z        PSCENC =       317.70955013
  Ewald energy   TEWEN  =     -4034.92338460
  -Hartree energ DENC   =      -970.56137806
  -exchange      EXHF   =         0.00000000
  -V(xc)+E(xc)   XCENC  =       444.32390218
  PAW double counting   =      1210.60617908    -1247.42152856
  entropy T*S    EENTRO =         0.00000000
  eigenvalues    EBANDS =      -740.17669085
  atomic energy  EATOM  =      4708.94155045
  ---------------------------------------------------
  free energy    TOTEN  =      -311.50180023 eV

  energy without entropy =     -311.50180023  energy(sigma->0) =     -311.50180023


--------------------------------------------------------------------------------------------------------




----------------------------------------- Iteration    1(   4)  ---------------------------------------


     EDDAV:  cpu time  260.71: real time  521.66
 BZINTS: Fermi energy:  4.001067;128.000000 electrons
         Band energy:-741.202518;  BLOECHL correction: -0.000003
       DOS:  cpu time    0.06: real time    0.11
    --------------------------------------------
      LOOP:  cpu time  260.77: real time  521.80

 eigenvalue-minimisations  : 15636
 total energy-change (2. order) :-0.1025827E+01  (-0.1023790E+01)
 number of electron     128.0000000 magnetization 
 augmentation part      128.0000000 magnetization 

 Free energy of the ion-electron system (eV)
  ---------------------------------------------------
  alpha Z        PSCENC =       317.70955013
  Ewald energy   TEWEN  =     -4034.92338460
  -Hartree energ DENC   =      -970.56137806
  -exchange      EXHF   =         0.00000000
  -V(xc)+E(xc)   XCENC  =       444.32390218
  PAW double counting   =      1210.60617908    -1247.42152856
  entropy T*S    EENTRO =         0.00000000
  eigenvalues    EBANDS =      -741.20251805
  atomic energy  EATOM  =      4708.94155045
  ---------------------------------------------------
  free energy    TOTEN  =      -312.52762742 eV

  energy without entropy =     -312.52762742  energy(sigma->0) =     -312.52762742


--------------------------------------------------------------------------------------------------------




----------------------------------------- Iteration    1(   5)  ---------------------------------------


     EDDAV:  cpu time  252.59: real time  505.42
 BZINTS: Fermi energy:  4.001032;128.000000 electrons
         Band energy:-741.233296;  BLOECHL correction: -0.000003
       DOS:  cpu time    0.05: real time    0.10
    CHARGE:  cpu time    5.88: real time   11.77
    MIXING:  cpu time    0.03: real time    0.06
    --------------------------------------------
      LOOP:  cpu time  258.55: real time  517.37

 eigenvalue-minimisations  : 15936
 total energy-change (2. order) :-0.3077762E-01  (-0.3076505E-01)
 number of electron     127.9999990 magnetization 
 augmentation part        3.3857904 magnetization 

 Broyden mixing:
  rms(total) = 0.22067E+01    rms(broyden)= 0.22067E+01
  rms(prec ) = 0.26549E+01
  weight for this iteration     100.00

 Free energy of the ion-electron system (eV)
  ---------------------------------------------------
  alpha Z        PSCENC =       317.70955013
  Ewald energy   TEWEN  =     -4034.92338460
  -Hartree energ DENC   =      -970.56137806
  -exchange      EXHF   =         0.00000000
  -V(xc)+E(xc)   XCENC  =       444.32390218
  PAW double counting   =      1210.60617908    -1247.42152856
  entropy T*S    EENTRO =         0.00000000
  eigenvalues    EBANDS =      -741.23329567
  atomic energy  EATOM  =      4708.94155045
  ---------------------------------------------------
  free energy    TOTEN  =      -312.55840504 eV

  energy without entropy =     -312.55840504  energy(sigma->0) =     -312.55840504


--------------------------------------------------------------------------------------------------------




----------------------------------------- Iteration    1(   6)  ---------------------------------------


    POTLOK:  cpu time    0.90: real time    1.80
    SETDIJ:  cpu time    0.03: real time    0.07
     EDDAV:  cpu time  241.29: real time  482.82
 BZINTS: Fermi energy:  4.681549;128.000000 electrons
         Band energy:-610.732528;  BLOECHL correction:  0.000000
       DOS:  cpu time    0.03: real time    0.07
    CHARGE:  cpu time    5.70: real time   11.39
    MIXING:  cpu time    0.03: real time    0.06
    --------------------------------------------
      LOOP:  cpu time  247.98: real time  496.23

 eigenvalue-minimisations  : 14592
 total energy-change (2. order) : 0.1405596E+02  (-0.1447671E+01)
 number of electron     127.9999990 magnetization 
 augmentation part        3.2327206 magnetization 

 Broyden mixing:
  rms(total) = 0.11570E+01    rms(broyden)= 0.11570E+01
  rms(prec ) = 0.13797E+01
  weight for this iteration     100.00

 eigenvalues of (default mixing * dielectric matrix)
  average eigenvalue GAMMA=   2.0365
  2.0365

 Free energy of the ion-electron system (eV)
  ---------------------------------------------------
  alpha Z        PSCENC =       317.70955013
  Ewald energy   TEWEN  =     -4034.92338460
  -Hartree energ DENC   =     -1092.34772254
  -exchange      EXHF   =         0.00000000
  -V(xc)+E(xc)   XCENC  =       452.53315459
  PAW double counting   =      1640.78124892    -1680.46431240
  entropy T*S    EENTRO =         0.00000000
  eigenvalues    EBANDS =      -610.73252835
  atomic energy  EATOM  =      4708.94155045
  ---------------------------------------------------
  free energy    TOTEN  =      -298.50244380 eV

  energy without entropy =     -298.50244380  energy(sigma->0) =     -298.50244380


--------------------------------------------------------------------------------------------------------




----------------------------------------- Iteration    1(   7)  ---------------------------------------


    POTLOK:  cpu time    0.90: real time    1.80
    SETDIJ:  cpu time    0.03: real time    0.05
     EDDAV:  cpu time  244.44: real time  489.12
 BZINTS: Fermi energy:  5.345814;128.000000 electrons
         Band energy:-478.834197;  BLOECHL correction: -0.000000
       DOS:  cpu time    0.02: real time    0.04
    CHARGE:  cpu time    5.76: real time   11.54
    MIXING:  cpu time    0.03: real time    0.07
    --------------------------------------------
      LOOP:  cpu time  251.19: real time  502.63

 eigenvalue-minimisations  : 14568
 total energy-change (2. order) : 0.4391754E+01  (-0.1483973E+01)
 number of electron     127.9999990 magnetization 
 augmentation part        3.0709631 magnetization 

 Broyden mixing:
  rms(total) = 0.18829E+00    rms(broyden)= 0.18828E+00
  rms(prec ) = 0.20365E+00
  weight for this iteration     100.00

 eigenvalues of (default mixing * dielectric matrix)
  average eigenvalue GAMMA=   2.1529
  2.0803  2.2255

 Free energy of the ion-electron system (eV)
  ---------------------------------------------------
  alpha Z        PSCENC =       317.70955013
  Ewald energy   TEWEN  =     -4034.92338460
  -Hartree energ DENC   =     -1226.80914012
  -exchange      EXHF   =         0.00000000
  -V(xc)+E(xc)   XCENC  =       461.81924878
  PAW double counting   =      2178.53073739    -2220.54505438
  entropy T*S    EENTRO =         0.00000000
  eigenvalues    EBANDS =      -478.83419727
  atomic energy  EATOM  =      4708.94155045
  ---------------------------------------------------
  free energy    TOTEN  =      -294.11068961 eV

  energy without entropy =     -294.11068961  energy(sigma->0) =     -294.11068961


--------------------------------------------------------------------------------------------------------




----------------------------------------- Iteration    1(   8)  ---------------------------------------


    POTLOK:  cpu time    0.95: real time    1.88
    SETDIJ:  cpu time    0.08: real time    0.17
     EDDAV:  cpu time  238.93: real time  478.10
 BZINTS: Fermi energy:  5.301747;128.000000 electrons
         Band energy:-482.118667;  BLOECHL correction:  0.000000
       DOS:  cpu time    0.02: real time    0.04
    CHARGE:  cpu time    5.66: real time   11.34
    MIXING:  cpu time    0.08: real time    0.17
    --------------------------------------------
      LOOP:  cpu time  245.73: real time  491.72

 eigenvalue-minimisations  : 14436
 total energy-change (2. order) :-0.5045087E-01  (-0.3876719E-01)
 number of electron     127.9999990 magnetization 
 augmentation part        3.0660191 magnetization 

 Broyden mixing:
  rms(total) = 0.36490E-01    rms(broyden)= 0.36488E-01
  rms(prec ) = 0.54827E-01
  weight for this iteration     100.00

 eigenvalues of (default mixing * dielectric matrix)
  average eigenvalue GAMMA=   1.6924
  2.4102  1.9971  0.6700

 Free energy of the ion-electron system (eV)
  ---------------------------------------------------
  alpha Z        PSCENC =       317.70955013
  Ewald energy   TEWEN  =     -4034.92338460
  -Hartree energ DENC   =     -1224.17212866
  -exchange      EXHF   =         0.00000000
  -V(xc)+E(xc)   XCENC  =       461.68369639
  PAW double counting   =      2213.65792105    -2254.93967787
  entropy T*S    EENTRO =         0.00000000
  eigenvalues    EBANDS =      -482.11866738
  atomic energy  EATOM  =      4708.94155045
  ---------------------------------------------------
  free energy    TOTEN  =      -294.16114048 eV

  energy without entropy =     -294.16114048  energy(sigma->0) =     -294.16114048


--------------------------------------------------------------------------------------------------------




----------------------------------------- Iteration    1(   9)  ---------------------------------------


    POTLOK:  cpu time    1.00: real time    1.99
    SETDIJ:  cpu time    0.04: real time    0.08
     EDDAV:  cpu time  250.59: real time  501.43
 BZINTS: Fermi energy:  5.323411;128.000000 electrons
         Band energy:-480.983979;  BLOECHL correction:  0.000000
       DOS:  cpu time    0.03: real time    0.05
    CHARGE:  cpu time    5.78: real time   11.56
    MIXING:  cpu time    0.03: real time    0.07
    --------------------------------------------
      LOOP:  cpu time  257.47: real time  515.20

 eigenvalue-minimisations  : 15396
 total energy-change (2. order) : 0.2569166E-03  (-0.2762347E-02)
 number of electron     127.9999990 magnetization 
 augmentation part        3.0634210 magnetization 

 Broyden mixing:
  rms(total) = 0.17563E-01    rms(broyden)= 0.17563E-01
  rms(prec ) = 0.26232E-01
  weight for this iteration     100.00

 eigenvalues of (default mixing * dielectric matrix)
  average eigenvalue GAMMA=   1.4585
  2.4463  1.9856  0.7010  0.7010

 Free energy of the ion-electron system (eV)
  ---------------------------------------------------
  alpha Z        PSCENC =       317.70955013
  Ewald energy   TEWEN  =     -4034.92338460
  -Hartree energ DENC   =     -1225.44530340
  -exchange      EXHF   =         0.00000000
  -V(xc)+E(xc)   XCENC  =       461.78211160
  PAW double counting   =      2221.58656344    -2262.82799258
  entropy T*S    EENTRO =         0.00000000
  eigenvalues    EBANDS =      -480.98397860
  atomic energy  EATOM  =      4708.94155045
  ---------------------------------------------------
  free energy    TOTEN  =      -294.16088356 eV

  energy without entropy =     -294.16088356  energy(sigma->0) =     -294.16088356


--------------------------------------------------------------------------------------------------------




----------------------------------------- Iteration    1(  10)  ---------------------------------------


    POTLOK:  cpu time    0.98: real time    1.97
    SETDIJ:  cpu time    0.03: real time    0.07
     EDDAV:  cpu time  248.90: real time  496.53
 BZINTS: Fermi energy:  5.319792;128.000000 electrons
         Band energy:-480.561848;  BLOECHL correction:  0.000000
       DOS:  cpu time    0.03: real time    0.06
    CHARGE:  cpu time    5.59: real time   11.18
    MIXING:  cpu time    0.06: real time    0.13
    --------------------------------------------
      LOOP:  cpu time  255.60: real time  509.96

 eigenvalue-minimisations  : 15324
 total energy-change (2. order) : 0.3447723E-03  (-0.4656950E-03)
 number of electron     127.9999990 magnetization 
 augmentation part        3.0625885 magnetization 

 Broyden mixing:
  rms(total) = 0.10967E-01    rms(broyden)= 0.10967E-01
  rms(prec ) = 0.16373E-01
  weight for this iteration     100.00

 eigenvalues of (default mixing * dielectric matrix)
  average eigenvalue GAMMA=   1.4345
  2.5220  1.9523  1.4372  0.7662  0.4948

 Free energy of the ion-electron system (eV)
  ---------------------------------------------------
  alpha Z        PSCENC =       317.70955013
  Ewald energy   TEWEN  =     -4034.92338460
  -Hartree energ DENC   =     -1225.90590441
  -exchange      EXHF   =         0.00000000
  -V(xc)+E(xc)   XCENC  =       461.81748993
  PAW double counting   =      2223.19566004    -2264.43365193
  entropy T*S    EENTRO =         0.00000000
  eigenvalues    EBANDS =      -480.56184840
  atomic energy  EATOM  =      4708.94155045
  ---------------------------------------------------
  free energy    TOTEN  =      -294.16053879 eV

  energy without entropy =     -294.16053879  energy(sigma->0) =     -294.16053879


--------------------------------------------------------------------------------------------------------




----------------------------------------- Iteration    1(  11)  ---------------------------------------


    POTLOK:  cpu time    0.88: real time    1.76
    SETDIJ:  cpu time    0.02: real time    0.06
     EDDAV:  cpu time  263.20: real time  526.67
 BZINTS: Fermi energy:  5.327187;128.000000 electrons
         Band energy:-479.893281;  BLOECHL correction:  0.000000
       DOS:  cpu time    0.02: real time    0.04
    CHARGE:  cpu time    5.71: real time   11.42
    MIXING:  cpu time    0.07: real time    0.14
    --------------------------------------------
      LOOP:  cpu time  269.90: real time  540.08

 eigenvalue-minimisations  : 16848
 total energy-change (2. order) :-0.9292351E-03  (-0.9463032E-03)
 number of electron     127.9999990 magnetization 
 augmentation part        3.0620468 magnetization 

 Broyden mixing:
  rms(total) = 0.11486E-01    rms(broyden)= 0.11486E-01
  rms(prec ) = 0.20152E-01
  weight for this iteration     100.00

 eigenvalues of (default mixing * dielectric matrix)
  average eigenvalue GAMMA=   1.3503
  2.6203  1.8326  1.8326  0.7063  0.7063  0.4034

 Free energy of the ion-electron system (eV)
  ---------------------------------------------------
  alpha Z        PSCENC =       317.70955013
  Ewald energy   TEWEN  =     -4034.92338460
  -Hartree energ DENC   =     -1226.63434339
  -exchange      EXHF   =         0.00000000
  -V(xc)+E(xc)   XCENC  =       461.87389972
  PAW double counting   =      2225.02786529    -2266.26332481
  entropy T*S    EENTRO =         0.00000000
  eigenvalues    EBANDS =      -479.89328082
  atomic energy  EATOM  =      4708.94155045
  ---------------------------------------------------
  free energy    TOTEN  =      -294.16146802 eV

  energy without entropy =     -294.16146802  energy(sigma->0) =     -294.16146802


--------------------------------------------------------------------------------------------------------




----------------------------------------- Iteration    1(  12)  ---------------------------------------


    POTLOK:  cpu time    1.00: real time    1.99
    SETDIJ:  cpu time    0.03: real time    0.06
     EDDAV:  cpu time  252.22: real time  504.68
 BZINTS: Fermi energy:  5.327150;128.000000 electrons
         Band energy:-479.691271;  BLOECHL correction:  0.000000
       DOS:  cpu time    0.02: real time    0.04
    CHARGE:  cpu time    5.61: real time   11.23
    MIXING:  cpu time    0.03: real time    0.06
    --------------------------------------------
      LOOP:  cpu time  258.91: real time  518.09

 eigenvalue-minimisations  : 15408
 total energy-change (2. order) : 0.3428346E-03  (-0.1981723E-03)
 number of electron     127.9999990 magnetization 
 augmentation part        3.0618215 magnetization 

 Broyden mixing:
  rms(total) = 0.54499E-02    rms(broyden)= 0.54498E-02
  rms(prec ) = 0.80141E-02
  weight for this iteration     100.00

 eigenvalues of (default mixing * dielectric matrix)
  average eigenvalue GAMMA=   1.3075
  2.6679  1.9964  1.9964  0.7086  0.7086  0.6663  0.4085

 Free energy of the ion-electron system (eV)
  ---------------------------------------------------
  alpha Z        PSCENC =       317.70955013
  Ewald energy   TEWEN  =     -4034.92338460
  -Hartree energ DENC   =     -1226.85361306
  -exchange      EXHF   =         0.00000000
  -V(xc)+E(xc)   XCENC  =       461.89071592
  PAW double counting   =      2225.64232558    -2266.87699881
  entropy T*S    EENTRO =         0.00000000
  eigenvalues    EBANDS =      -479.69127080
  atomic energy  EATOM  =      4708.94155045
  ---------------------------------------------------
  free energy    TOTEN  =      -294.16112519 eV

  energy without entropy =     -294.16112519  energy(sigma->0) =     -294.16112519


--------------------------------------------------------------------------------------------------------




----------------------------------------- Iteration    1(  13)  ---------------------------------------


    POTLOK:  cpu time    0.97: real time    1.92
    SETDIJ:  cpu time    0.06: real time    0.12
     EDDAV:  cpu time  254.66: real time  509.58
 BZINTS: Fermi energy:  5.326133;128.000000 electrons
         Band energy:-479.614487;  BLOECHL correction:  0.000000
       DOS:  cpu time    0.02: real time    0.03
    CHARGE:  cpu time    5.65: real time   11.31
    MIXING:  cpu time    0.04: real time    0.07
    --------------------------------------------
      LOOP:  cpu time  261.40: real time  523.07

 eigenvalue-minimisations  : 15912
 total energy-change (2. order) :-0.1175649E-03  (-0.1545736E-03)
 number of electron     127.9999990 magnetization 
 augmentation part        3.0617187 magnetization 

 Broyden mixing:
  rms(total) = 0.57155E-02    rms(broyden)= 0.57151E-02
  rms(prec ) = 0.10336E-01
  weight for this iteration     100.00

 eigenvalues of (default mixing * dielectric matrix)
  average eigenvalue GAMMA=   1.2934
  2.7772  2.5051  1.9176  0.9957  0.7075  0.7075  0.4128  0.3235

 Free energy of the ion-electron system (eV)
  ---------------------------------------------------
  alpha Z        PSCENC =       317.70955013
  Ewald energy   TEWEN  =     -4034.92338460
  -Hartree energ DENC   =     -1226.93974788
  -exchange      EXHF   =         0.00000000
  -V(xc)+E(xc)   XCENC  =       461.89811427
  PAW double counting   =      2225.41402699    -2266.64686516
  entropy T*S    EENTRO =         0.00000000
  eigenvalues    EBANDS =      -479.61448696
  atomic energy  EATOM  =      4708.94155045
  ---------------------------------------------------
  free energy    TOTEN  =      -294.16124275 eV

  energy without entropy =     -294.16124275  energy(sigma->0) =     -294.16124275


--------------------------------------------------------------------------------------------------------




----------------------------------------- Iteration    1(  14)  ---------------------------------------


    POTLOK:  cpu time    0.84: real time    1.66
    SETDIJ:  cpu time    0.05: real time    0.09
     EDDAV:  cpu time  246.22: real time  492.69
 BZINTS: Fermi energy:  5.325340;128.000000 electrons
         Band energy:-479.594561;  BLOECHL correction:  0.000000
       DOS:  cpu time    0.02: real time    0.04
    CHARGE:  cpu time    6.01: real time   12.03
    MIXING:  cpu time    0.05: real time    0.11
    --------------------------------------------
      LOOP:  cpu time  253.19: real time  506.67

 eigenvalue-minimisations  : 15444
 total energy-change (2. order) :-0.5085252E-04  (-0.2031447E-03)
 number of electron     127.9999990 magnetization 
 augmentation part        3.0617677 magnetization 

 Broyden mixing:
  rms(total) = 0.48327E-02    rms(broyden)= 0.48324E-02
  rms(prec ) = 0.86252E-02
  weight for this iteration     100.00

 eigenvalues of (default mixing * dielectric matrix)
  average eigenvalue GAMMA=   1.2419
  2.8399  2.5145  1.8972  1.0873  0.6999  0.6999  0.7046  0.4369  0.2964

 Free energy of the ion-electron system (eV)
  ---------------------------------------------------
  alpha Z        PSCENC =       317.70955013
  Ewald energy   TEWEN  =     -4034.92338460
  -Hartree energ DENC   =     -1226.96575447
  -exchange      EXHF   =         0.00000000
  -V(xc)+E(xc)   XCENC  =       461.90152890
  PAW double counting   =      2224.66015070    -2265.89037410
  entropy T*S    EENTRO =         0.00000000
  eigenvalues    EBANDS =      -479.59456061
  atomic energy  EATOM  =      4708.94155045
  ---------------------------------------------------
  free energy    TOTEN  =      -294.16129361 eV

  energy without entropy =     -294.16129361  energy(sigma->0) =     -294.16129361


--------------------------------------------------------------------------------------------------------




----------------------------------------- Iteration    1(  15)  ---------------------------------------


    POTLOK:  cpu time    0.86: real time    1.72
    SETDIJ:  cpu time    0.02: real time    0.04
     EDDAV:  cpu time  266.88: real time  534.01
 BZINTS: Fermi energy:  5.330023;128.000000 electrons
         Band energy:-479.595953;  BLOECHL correction:  0.000000
       DOS:  cpu time    0.04: real time    0.08
    CHARGE:  cpu time    5.67: real time   11.34
    MIXING:  cpu time    0.03: real time    0.06
    --------------------------------------------
      LOOP:  cpu time  273.50: real time  547.27

 eigenvalue-minimisations  : 17316
 total energy-change (2. order) : 0.4182373E-04  (-0.9243468E-04)
 number of electron     127.9999990 magnetization 
 augmentation part        3.0617807 magnetization 

 Broyden mixing:
  rms(total) = 0.23919E-02    rms(broyden)= 0.23916E-02
  rms(prec ) = 0.42408E-02
  weight for this iteration     100.00

 eigenvalues of (default mixing * dielectric matrix)
  average eigenvalue GAMMA=   1.1719
  2.8362  2.5038  1.8900  1.2387  0.9078  0.6760  0.6760  0.4129  0.2887  0.2887

 Free energy of the ion-electron system (eV)
  ---------------------------------------------------
  alpha Z        PSCENC =       317.70955013
  Ewald energy   TEWEN  =     -4034.92338460
  -Hartree energ DENC   =     -1226.96515812
  -exchange      EXHF   =         0.00000000
  -V(xc)+E(xc)   XCENC  =       461.90144456
  PAW double counting   =      2224.60290411    -2265.83220536
  entropy T*S    EENTRO =         0.00000000
  eigenvalues    EBANDS =      -479.59595294
  atomic energy  EATOM  =      4708.94155045
  ---------------------------------------------------
  free energy    TOTEN  =      -294.16125178 eV

  energy without entropy =     -294.16125178  energy(sigma->0) =     -294.16125178


--------------------------------------------------------------------------------------------------------




----------------------------------------- Iteration    1(  16)  ---------------------------------------


    POTLOK:  cpu time    1.00: real time    1.99
    SETDIJ:  cpu time    0.03: real time    0.06
     EDDAV:  cpu time  236.31: real time  472.84
 BZINTS: Fermi energy:  5.329034;128.000000 electrons
         Band energy:-479.592189;  BLOECHL correction:  0.000000
       DOS:  cpu time    0.04: real time    0.08
    CHARGE:  cpu time    5.48: real time   10.96
    MIXING:  cpu time    0.05: real time    0.10
    --------------------------------------------
      LOOP:  cpu time  242.91: real time  486.05

 eigenvalue-minimisations  : 14532
 total energy-change (2. order) :-0.1445533E-06  (-0.2464374E-05)
 number of electron     127.9999990 magnetization 
 augmentation part        3.0618017 magnetization 

 Broyden mixing:
  rms(total) = 0.23433E-02    rms(broyden)= 0.23433E-02
  rms(prec ) = 0.41240E-02
  weight for this iteration     100.00

 eigenvalues of (default mixing * dielectric matrix)
  average eigenvalue GAMMA=   1.1392
  2.8533  2.4918  1.9028  1.3078  0.8920  0.7770  0.7770  0.4920  0.3515  0.3515
  0.3349

 Free energy of the ion-electron system (eV)
  ---------------------------------------------------
  alpha Z        PSCENC =       317.70955013
  Ewald energy   TEWEN  =     -4034.92338460
  -Hartree energ DENC   =     -1226.96912601
  -exchange      EXHF   =         0.00000000
  -V(xc)+E(xc)   XCENC  =       461.90166395
  PAW double counting   =      2224.61093643    -2265.84025310
  entropy T*S    EENTRO =         0.00000000
  eigenvalues    EBANDS =      -479.59218917
  atomic energy  EATOM  =      4708.94155045
  ---------------------------------------------------
  free energy    TOTEN  =      -294.16125193 eV

  energy without entropy =     -294.16125193  energy(sigma->0) =     -294.16125193


--------------------------------------------------------------------------------------------------------




----------------------------------------- Iteration    1(  17)  ---------------------------------------


    POTLOK:  cpu time    0.82: real time    1.64
    SETDIJ:  cpu time    0.05: real time    0.08
     EDDAV:  cpu time  322.19: real time  644.71
 BZINTS: Fermi energy:  5.327975;128.000000 electrons
         Band energy:-479.574830;  BLOECHL correction:  0.000000
       DOS:  cpu time    0.03: real time    0.08
    CHARGE:  cpu time    5.70: real time   11.41
    MIXING:  cpu time    0.04: real time    0.07
    --------------------------------------------
      LOOP:  cpu time  328.84: real time  658.00

 eigenvalue-minimisations  : 22236
 total energy-change (2. order) : 0.9727092E-05  (-0.1456399E-04)
 number of electron     127.9999990 magnetization 
 augmentation part        3.0617887 magnetization 

 Broyden mixing:
  rms(total) = 0.69340E-03    rms(broyden)= 0.69316E-03
  rms(prec ) = 0.11623E-02
  weight for this iteration     100.00

 eigenvalues of (default mixing * dielectric matrix)
  average eigenvalue GAMMA=   1.1641
  2.8763  2.5055  1.9455  1.9455  0.9522  0.6858  0.6858  0.5741  0.5741  0.4588
  0.4588  0.3073

 Free energy of the ion-electron system (eV)
  ---------------------------------------------------
  alpha Z        PSCENC =       317.70955013
  Ewald energy   TEWEN  =     -4034.92338460
  -Hartree energ DENC   =     -1226.98733822
  -exchange      EXHF   =         0.00000000
  -V(xc)+E(xc)   XCENC  =       461.90283245
  PAW double counting   =      2224.63308171    -2265.86270388
  entropy T*S    EENTRO =         0.00000000
  eigenvalues    EBANDS =      -479.57483025
  atomic energy  EATOM  =      4708.94155045
  ---------------------------------------------------
  free energy    TOTEN  =      -294.16124220 eV

  energy without entropy =     -294.16124220  energy(sigma->0) =     -294.16124220


--------------------------------------------------------------------------------------------------------




----------------------------------------- Iteration    1(  18)  ---------------------------------------


    POTLOK:  cpu time    0.81: real time    1.62
    SETDIJ:  cpu time    0.02: real time    0.04
     EDDAV:  cpu time  235.84: real time  471.90
 BZINTS: Fermi energy:  5.327308;128.000000 electrons
         Band energy:-479.571440;  BLOECHL correction:  0.000000
       DOS:  cpu time    0.03: real time    0.08
    CHARGE:  cpu time    5.58: real time   11.17
    MIXING:  cpu time    0.07: real time    0.14
    --------------------------------------------
      LOOP:  cpu time  242.35: real time  484.96

 eigenvalue-minimisations  : 14472
 total energy-change (2. order) : 0.5449547E-06  (-0.3880790E-06)
 number of electron     127.9999990 magnetization 
 augmentation part        3.0617843 magnetization 

 Broyden mixing:
  rms(total) = 0.40682E-03    rms(broyden)= 0.40682E-03
  rms(prec ) = 0.70203E-03
  weight for this iteration     100.00

 eigenvalues of (default mixing * dielectric matrix)
  average eigenvalue GAMMA=   1.2208
  3.1426  2.5665  2.5665  1.9208  0.9988  0.6667  0.6667  0.7592  0.7592  0.6759
  0.4192  0.4192  0.3091

 Free energy of the ion-electron system (eV)
  ---------------------------------------------------
  alpha Z        PSCENC =       317.70955013
  Ewald energy   TEWEN  =     -4034.92338460
  -Hartree energ DENC   =     -1226.99093131
  -exchange      EXHF   =         0.00000000
  -V(xc)+E(xc)   XCENC  =       461.90296016
  PAW double counting   =      2224.61725747    -2265.84680377
  entropy T*S    EENTRO =         0.00000000
  eigenvalues    EBANDS =      -479.57144019
  atomic energy  EATOM  =      4708.94155045
  ---------------------------------------------------
  free energy    TOTEN  =      -294.16124165 eV

  energy without entropy =     -294.16124165  energy(sigma->0) =     -294.16124165


--------------------------------------------------------------------------------------------------------




----------------------------------------- Iteration    1(  19)  ---------------------------------------


    POTLOK:  cpu time    0.80: real time    1.59
    SETDIJ:  cpu time    0.05: real time    0.11
     EDDAV:  cpu time  280.87: real time  562.02
 BZINTS: Fermi energy:  5.326300;128.000000 electrons
         Band energy:-479.563068;  BLOECHL correction:  0.000000
       DOS:  cpu time    0.03: real time    0.05
    CHARGE:  cpu time    5.72: real time   11.46
    MIXING:  cpu time    0.09: real time    0.19
    --------------------------------------------
      LOOP:  cpu time  287.57: real time  575.42

 eigenvalue-minimisations  : 18720
 total energy-change (2. order) : 0.4230433E-06  (-0.9653007E-06)
 number of electron     127.9999990 magnetization 
 augmentation part        3.0617818 magnetization 

 Broyden mixing:
  rms(total) = 0.38834E-03    rms(broyden)= 0.38832E-03
  rms(prec ) = 0.70647E-03
  weight for this iteration     100.00

 eigenvalues of (default mixing * dielectric matrix)
  average eigenvalue GAMMA=   1.2140
  3.0540  2.5504  2.5504  1.9095  1.2673  0.9711  0.8478  0.6721  0.6721  0.6742
  0.6742  0.4220  0.4220  0.3089

 Free energy of the ion-electron system (eV)
  ---------------------------------------------------
  alpha Z        PSCENC =       317.70955013
  Ewald energy   TEWEN  =     -4034.92338460
  -Hartree energ DENC   =     -1226.99980513
  -exchange      EXHF   =         0.00000000
  -V(xc)+E(xc)   XCENC  =       461.90344665
  PAW double counting   =      2224.61391138    -2265.84344214
  entropy T*S    EENTRO =         0.00000000
  eigenvalues    EBANDS =      -479.56306797
  atomic energy  EATOM  =      4708.94155045
  ---------------------------------------------------
  free energy    TOTEN  =      -294.16124123 eV

  energy without entropy =     -294.16124123  energy(sigma->0) =     -294.16124123


--------------------------------------------------------------------------------------------------------




----------------------------------------- Iteration    1(  20)  ---------------------------------------


    POTLOK:  cpu time    1.01: real time    2.01
    SETDIJ:  cpu time    0.03: real time    0.05
     EDDAV:  cpu time  245.73: real time  491.73
 BZINTS: Fermi energy:  5.325450;128.000000 electrons
         Band energy:-479.561715;  BLOECHL correction:  0.000000
       DOS:  cpu time    0.03: real time    0.06
    CHARGE:  cpu time    5.75: real time   11.50
    MIXING:  cpu time    0.03: real time    0.08
    --------------------------------------------
      LOOP:  cpu time  252.59: real time  505.44

 eigenvalue-minimisations  : 15360
 total energy-change (2. order) : 0.2323468E-06  (-0.2890776E-06)
 number of electron     127.9999990 magnetization 
 augmentation part        3.0617804 magnetization 

 Broyden mixing:
  rms(total) = 0.48529E-04    rms(broyden)= 0.48493E-04
  rms(prec ) = 0.61557E-04
  weight for this iteration     100.00

 eigenvalues of (default mixing * dielectric matrix)
  average eigenvalue GAMMA=   1.1575
  3.0717  2.5846  2.5053  1.9174  1.1812  0.9414  0.9414  0.6610  0.6610  0.6710
  0.6710  0.4193  0.4193  0.3090  0.4082

 Free energy of the ion-electron system (eV)
  ---------------------------------------------------
  alpha Z        PSCENC =       317.70955013
  Ewald energy   TEWEN  =     -4034.92338460
  -Hartree energ DENC   =     -1227.00117187
  -exchange      EXHF   =         0.00000000
  -V(xc)+E(xc)   XCENC  =       461.90353619
  PAW double counting   =      2224.61531582    -2265.84492192
  entropy T*S    EENTRO =         0.00000000
  eigenvalues    EBANDS =      -479.56171519
  atomic energy  EATOM  =      4708.94155045
  ---------------------------------------------------
  free energy    TOTEN  =      -294.16124100 eV

  energy without entropy =     -294.16124100  energy(sigma->0) =     -294.16124100


--------------------------------------------------------------------------------------------------------




----------------------------------------- Iteration    1(  21)  ---------------------------------------


    POTLOK:  cpu time    0.85: real time    1.70
    SETDIJ:  cpu time    0.06: real time    0.11
     EDDAV:  cpu time  228.65: real time  457.53
 BZINTS: Fermi energy:  5.328147;128.000000 electrons
         Band energy:-479.562095;  BLOECHL correction:  0.000000
       DOS:  cpu time    0.04: real time    0.08
    CHARGE:  cpu time    5.52: real time   11.05
    MIXING:  cpu time    0.06: real time    0.13
    --------------------------------------------
      LOOP:  cpu time  235.19: real time  470.60

 eigenvalue-minimisations  : 13572
 total energy-change (2. order) :-0.3474088E-07  (-0.2611531E-07)
 number of electron     127.9999990 magnetization 
 augmentation part        3.0617787 magnetization 

 Broyden mixing:
  rms(total) = 0.11657E-03    rms(broyden)= 0.11657E-03
  rms(prec ) = 0.19451E-03
  weight for this iteration     100.00

 eigenvalues of (default mixing * dielectric matrix)
  average eigenvalue GAMMA=   1.1843
  3.1050  2.5683  2.5258  1.9269  1.1510  1.1510  1.0083  0.8494  0.8494  0.6763
  0.6763  0.6534  0.6534  0.4223  0.4223  0.3090

 Free energy of the ion-electron system (eV)
  ---------------------------------------------------
  alpha Z        PSCENC =       317.70955013
  Ewald energy   TEWEN  =     -4034.92338460
  -Hartree energ DENC   =     -1227.00077955
  -exchange      EXHF   =         0.00000000
  -V(xc)+E(xc)   XCENC  =       461.90350977
[...]
     79      13.1682      0.00000
     80      13.1731      0.00000
     81      13.5794      0.00000
     82      13.5840      0.00000
     83      13.6437      0.00000
     84      13.6458      0.00000

 k-point    75 :       0.3333    0.5000    0.5000
  band No.  band energies     occupation 
      1     -13.1595      2.00000
      2     -13.1590      2.00000
      3     -12.8173      2.00000
      4     -12.8168      2.00000
      5     -12.1843      2.00000
      6     -12.1839      2.00000
      7     -11.8616      2.00000
      8     -11.8611      2.00000
      9     -11.2204      2.00000
     10     -11.2199      2.00000
     11     -10.9173      2.00000
     12     -10.9168      2.00000
     13      -8.5278      2.00000
     14      -8.5272      2.00000
     15      -8.3000      2.00000
     16      -8.2992      2.00000
     17      -6.6342      2.00000
     18      -6.6313      2.00000
     19      -6.4794      2.00000
     20      -6.4765      2.00000
     21      -4.3250      2.00000
     22      -4.3225      2.00000
     23      -4.2017      2.00000
     24      -4.1992      2.00000
     25      -4.1616      2.00000
     26      -4.1602      2.00000
     27      -4.0263      2.00000
     28      -4.0245      2.00000
     29      -3.1883      2.00000
     30      -3.1862      2.00000
     31      -3.0432      2.00000
     32      -3.0411      2.00000
     33      -2.1168      2.00000
     34      -2.1148      2.00000
     35      -2.0208      2.00000
     36      -2.0191      2.00000
     37      -1.7740      2.00000
     38      -1.7725      2.00000
     39      -1.0878      2.00000
     40      -1.0834      2.00000
     41      -0.9942      2.00000
     42      -0.9901      2.00000
     43      -0.6224      2.00000
     44      -0.6209      2.00000
     45      -0.5608      2.00000
     46      -0.5583      2.00000
     47      -0.4795      2.00000
     48      -0.4767      2.00000
     49       0.0903      2.00000
     50       0.0922      2.00000
     51       0.3333      2.00000
     52       0.3378      2.00000
     53       0.3952      2.00000
     54       0.4002      2.00000
     55       0.4998      2.00000
     56       0.5013      2.00000
     57       1.1433      2.00000
     58       1.1452      2.00000
     59       2.1515      2.00000
     60       2.1534      2.00000
     61       3.4451      2.00000
     62       3.4478      2.00000
     63       4.4884      2.00000
     64       4.4916      2.00000
     65       6.4025      0.00000
     66       6.4061      0.00000
     67       6.9682      0.00000
     68       6.9723      0.00000
     69       9.4330      0.00000
     70       9.4350      0.00000
     71      10.0957      0.00000
     72      10.0984      0.00000
     73      10.8926      0.00000
     74      10.8957      0.00000
     75      11.6424      0.00000
     76      11.6449      0.00000
     77      12.5823      0.00000
     78      12.5861      0.00000
     79      13.1651      0.00000
     80      13.1705      0.00000
     81      13.5866      0.00000
     82      13.5908      0.00000
     83      13.6434      0.00000
     84      13.6449      0.00000

 k-point    76 :       0.5000    0.5000    0.5000
  band No.  band energies     occupation 
      1     -12.8358      2.00000
      2     -12.8327      2.00000
      3     -12.8327      2.00000
      4     -12.8298      2.00000
      5     -12.5001      2.00000
      6     -12.4970      2.00000
      7     -12.4970      2.00000
      8     -12.4939      2.00000
      9      -9.9771      2.00000
     10      -9.9753      2.00000
     11      -9.9753      2.00000
     12      -9.9734      2.00000
     13      -9.7013      2.00000
     14      -9.6994      2.00000
     15      -9.6994      2.00000
     16      -9.6974      2.00000
     17      -5.1854      2.00000
     18      -5.1854      2.00000
     19      -5.1849      2.00000
     20      -5.1809      2.00000
     21      -5.0872      2.00000
     22      -5.0872      2.00000
     23      -5.0867      2.00000
     24      -5.0820      2.00000
     25      -3.5899      2.00000
     26      -3.5867      2.00000
     27      -3.5852      2.00000
     28      -3.5852      2.00000
     29      -3.5171      2.00000
     30      -3.5145      2.00000
     31      -3.5130      2.00000
     32      -3.5130      2.00000
     33      -2.1050      2.00000
     34      -2.0987      2.00000
     35      -2.0987      2.00000
     36      -2.0983      2.00000
     37      -1.9730      2.00000
     38      -1.9672      2.00000
     39      -1.9671      2.00000
     40      -1.9667      2.00000
     41      -1.3876      2.00000
     42      -1.3853      2.00000
     43      -1.3852      2.00000
     44      -1.3820      2.00000
     45       0.3359      2.00000
     46       0.3376      2.00000
     47       0.3376      2.00000
     48       0.3454      2.00000
     49       0.4039      2.00000
     50       0.4055      2.00000
     51       0.4055      2.00000
     52       0.4155      2.00000
     53       0.4438      2.00000
     54       0.4464      2.00000
     55       0.4466      2.00000
     56       0.4504      2.00000
     57       1.9127      2.00000
     58       1.9163      2.00000
     59       1.9166      2.00000
     60       1.9180      2.00000
     61       3.3777      2.00000
     62       3.3822      2.00000
     63       3.3826      2.00000
     64       3.3839      2.00000
     65       7.8304      0.00000
     66       7.8317      0.00000
     67       7.8320      0.00000
     68       7.8365      0.00000
     69       8.4671      0.00000
     70       8.4683      0.00000
     71       8.4687      0.00000
     72       8.4746      0.00000
     73      12.1662      0.00000
     74      12.1739      0.00000
     75      12.1756      0.00000
     76      12.1807      0.00000
     77      12.8500      0.00000
     78      12.8610      0.00000
     79      12.8640      0.00000
     80      12.8702      0.00000
     81      12.9722      0.00000
     82      12.9836      0.00000
     83      12.9854      0.00000
     84      12.9982      0.00000


--------------------------------------------------------------------------------------------------------


 soft charge-density along one line, spin component           1
         0         1         2         3         4         5         6         7         8         9
 total charge-density along one line
 
 pseudopotential strength for first ion, spin component:           1
  9.731   0.004  -0.000  -0.000   0.000   0.000   0.000  -0.000
  0.004  -0.002   0.000   0.000   0.000   0.000   0.000  -0.000
 -0.000   0.000  -3.909   0.000   0.000  -0.015   0.000   0.000
 -0.000   0.000   0.000  -3.903   0.000   0.000  -0.011   0.000
  0.000   0.000   0.000   0.000  -3.909   0.000   0.000  -0.015
  0.000   0.000  -0.015   0.000   0.000  -0.763   0.000   0.000
  0.000   0.000   0.000  -0.011   0.000   0.000  -0.763  -0.000
 -0.000  -0.000   0.000   0.000  -0.015   0.000  -0.000  -0.763
 total augmentation occupancy for first ion, spin component:           1
  1.470  -1.120   0.000   0.000   0.003   0.000  -0.001   0.001
 -1.120   1.058  -0.000   0.006  -0.003  -0.000   0.002  -0.001
  0.000  -0.000   1.222   0.000  -0.002   0.228  -0.000  -0.001
  0.000   0.006   0.000   0.924  -0.000  -0.000   0.104  -0.000
  0.003  -0.003  -0.002  -0.000   1.222  -0.001  -0.000   0.228
  0.000  -0.000   0.228  -0.000  -0.001   0.048  -0.000  -0.000
 -0.001   0.002  -0.000   0.104  -0.000  -0.000   0.013  -0.000
  0.001  -0.001  -0.001  -0.000   0.228  -0.000  -0.000   0.048


------------------------ aborting loop because EDIFF is reached ----------------------------------------


    CHARGE:  cpu time    5.73: real time   11.48
    FORLOC:  cpu time    0.08: real time    0.17
    FORNL :  cpu time   32.31: real time   64.66
    STRESS:  cpu time   58.97: real time  117.98
    FORHAR:  cpu time    0.37: real time    0.74
    MIXING:  cpu time    0.12: real time    0.25
    OFIELD:  cpu time    0.00: real time    0.00

 ---------------------------------------------------------------------------------------------

         DFTD3 V3.0 Rev 1        
 IVDW         = 12
 DF pbe       
 parameters
 VDW_S6       =    1.0000
 VDW_S8       =    0.7875
 VDW_A1       =    0.4289
 VDW_A2       =    4.4407
 k1-k3        =   16.0000    1.3333   -4.0000
 VDW_RADIUS   =   50.2022 A
 VDW_CNRADIUS =   21.1671 A
 Edisp (eV)   -5.45037

 E6    (eV) :    -3.8912
 E8    (eV) :    -1.5592
 % E8        : 28.61
    FORVDW:  cpu time    0.31: real time    0.61

  FORCE on cell =-STRESS in cart. coord.  units (eV):
  Direction    XX          YY          ZZ          XY          YZ          ZX
  --------------------------------------------------------------------------------------
  Alpha Z   317.70955   317.70955   317.70955
  Ewald     269.82499   269.32875 -4574.09787    -1.23412    -0.00061    -0.00756
  Hartree  1047.10114  1047.09119  -867.19080    -0.11903    -0.00022    -0.00153
  E(xc)    -468.36888  -468.37595  -484.40427    -0.00917    -0.00003     0.00002
  Local   -2965.90491 -2965.48883  3525.45192     1.12168     0.00018     0.00789
  n-local  -111.54027  -111.65190  -102.97525    -0.10275    -0.00057     0.00064
  augment   -12.37487   -12.37401   -11.34057     0.00203     0.00001     0.00000
  Kinetic  1923.13190  1923.90135  2209.38649     0.79714     0.00715    -0.00672
  Fock        0.00000     0.00000     0.00000     0.00000     0.00000     0.00000
  vdW        -0.60240    -0.59122    -6.14128     0.01016     0.00000    -0.00002
  -------------------------------------------------------------------------------------
  Total      -1.02375    -0.45106     6.39794     0.46594     0.00590    -0.00727
  in kB      -6.24573    -2.75183    39.03274     2.84262     0.03602    -0.04438
  external pressure =       10.01 kB  Pullay stress =        0.00 kB


 VOLUME and BASIS-vectors are now :
 -----------------------------------------------------------------------------
  energy-cutoff  :      800.00
  volume of cell :      262.62
      direct lattice vectors                 reciprocal lattice vectors
     4.932874498 -0.001919286  0.000000000     0.202767147  0.117172881  0.000000000
    -2.468099399  4.271034986  0.000000000     0.000091118  0.234187941  0.000000000
     0.000000000  0.000000000 12.467691369     0.000000000  0.000000000  0.080207311

  length of vectors
     4.932874871  4.932874871 12.467691369     0.234187958  0.234187958  0.080207311


 FORCES acting on ions
    electron-ion (+dipol)            ewald-force                    non-local-force                 convergence-correction
 -----------------------------------------------------------------------------------------------
   0.689E+00 0.615E-01 -.147E+01   -.820E+00 -.568E-01 0.150E+01   -.106E+00 0.298E-02 -.164E+00   -.262E-04 -.794E-05 0.725E-03
   -.326E+00 0.653E-01 0.374E+00   0.339E+00 -.616E-01 -.357E+00   0.144E-01 0.286E-02 -.168E-01   0.409E-04 -.642E-05 0.702E-03
   -.140E+00 0.173E+00 0.374E+00   0.127E+00 -.184E+00 -.357E+00   0.289E-02 -.385E-02 -.168E-01   0.876E-05 -.234E-04 0.701E-03
   -.140E+00 -.420E-01 0.375E+00   0.126E+00 0.614E-01 -.358E+00   0.297E-02 0.940E-02 -.168E-01   0.129E-04 0.140E-04 0.701E-03
   -.113E+00 0.652E-01 -.102E+00   0.106E+00 -.615E-01 0.104E+00   -.480E-02 0.276E-02 0.636E-02   -.746E-05 -.727E-05 -.736E-03
   -.113E+00 0.652E-01 -.101E+00   0.107E+00 -.615E-01 0.102E+00   -.483E-02 0.276E-02 0.649E-02   -.108E-04 -.488E-05 -.737E-03
   -.113E+00 0.653E-01 -.101E+00   0.106E+00 -.616E-01 0.102E+00   -.482E-02 0.277E-02 0.649E-02   -.103E-04 -.494E-05 -.736E-03
   -.113E+00 0.651E-01 -.101E+00   0.106E+00 -.614E-01 0.102E+00   -.482E-02 0.275E-02 0.649E-02   -.770E-05 -.566E-05 -.736E-03
   0.113E+00 -.714E-01 -.837E-01   -.106E+00 0.677E-01 0.832E-01   0.476E-02 -.297E-02 -.654E-02   0.607E-05 -.632E-05 -.177E-03
   0.112E+00 -.595E-01 -.832E-01   -.106E+00 0.554E-01 0.831E-01   0.459E-02 -.273E-02 -.701E-02   0.122E-04 -.215E-05 -.178E-03
   0.102E+00 -.651E-01 -.834E-01   -.956E-01 0.614E-01 0.831E-01   0.446E-02 -.270E-02 -.677E-02   0.422E-05 -.712E-05 -.178E-03
   0.125E+00 -.652E-01 -.165E+00   -.119E+00 0.613E-01 0.165E+00   0.478E-02 -.280E-02 -.660E-02   0.123E-04 -.354E-05 -.178E-03
   0.113E+00 -.708E-01 -.840E-01   -.106E+00 0.676E-01 0.835E-01   0.476E-02 -.276E-02 -.705E-02   0.583E-05 -.802E-05 0.229E-03
   0.113E+00 -.588E-01 -.843E-01   -.106E+00 0.552E-01 0.834E-01   0.493E-02 -.252E-02 -.658E-02   0.133E-04 -.366E-05 0.230E-03
   0.103E+00 -.651E-01 -.841E-01   -.955E-01 0.615E-01 0.834E-01   0.463E-02 -.278E-02 -.682E-02   0.494E-05 -.423E-05 0.229E-03
   0.125E+00 -.651E-01 -.164E+00   -.119E+00 0.616E-01 0.164E+00   0.494E-02 -.268E-02 -.635E-02   0.104E-04 -.253E-05 0.229E-03
   0.273E-01 -.639E-01 0.312E+00   -.238E-01 0.613E-01 -.311E+00   0.492E-02 -.227E-02 0.102E-01   0.278E-05 0.949E-05 0.703E-03
   0.361E+00 -.555E-01 0.829E+00   -.354E+00 0.519E-01 -.862E+00   0.310E-01 -.208E-02 0.777E-01   -.282E-04 0.636E-05 0.702E-03
   -.247E+00 -.413E+00 0.825E+00   0.311E+00 0.443E+00 -.858E+00   0.227E-01 -.694E-02 0.774E-01   -.686E-05 0.151E-04 0.702E-03
   -.237E+00 0.282E+00 0.832E+00   0.299E+00 -.317E+00 -.867E+00   0.238E-01 0.195E-02 0.780E-01   -.106E-04 -.463E-05 0.702E-03
   0.110E+00 -.636E-01 -.101E+00   -.105E+00 0.609E-01 0.102E+00   0.393E-02 -.226E-02 -.141E-02   0.525E-05 0.802E-05 -.734E-03
   0.110E+00 -.636E-01 -.102E+00   -.106E+00 0.609E-01 0.103E+00   0.392E-02 -.226E-02 -.139E-02   0.697E-05 0.702E-05 -.733E-03
   0.110E+00 -.636E-01 -.102E+00   -.106E+00 0.610E-01 0.103E+00   0.392E-02 -.225E-02 -.140E-02   0.790E-05 0.646E-05 -.734E-03
   0.110E+00 -.635E-01 -.102E+00   -.106E+00 0.609E-01 0.103E+00   0.392E-02 -.226E-02 -.139E-02   0.450E-05 0.883E-05 -.734E-03
   -.823E-01 0.509E-01 -.992E-01   0.771E-01 -.479E-01 0.991E-01   -.376E-02 0.233E-02 0.231E-02   -.234E-05 0.293E-05 -.179E-03
   -.139E+00 0.440E-01 -.121E+00   0.135E+00 -.406E-01 0.122E+00   -.388E-02 0.218E-02 0.183E-02   -.714E-05 -.185E-05 -.178E-03
   -.105E+00 0.962E-01 -.110E+00   0.998E-01 -.943E-01 0.110E+00   -.369E-02 0.236E-02 0.208E-02   -.188E-05 0.574E-05 -.179E-03
   -.115E+00 0.635E-01 -.764E-01   0.111E+00 -.608E-01 0.764E-01   -.407E-02 0.229E-02 0.954E-03   -.926E-05 0.304E-05 -.177E-03
   -.139E+00 0.828E-01 -.122E+00   0.135E+00 -.810E-01 0.122E+00   -.387E-02 0.226E-02 0.186E-02   -.596E-05 0.699E-05 0.229E-03
   -.827E-01 0.758E-01 -.995E-01   0.776E-01 -.736E-01 0.990E-01   -.380E-02 0.212E-02 0.230E-02   -.973E-05 0.429E-05 0.228E-03
   -.105E+00 0.311E-01 -.110E+00   0.997E-01 -.281E-01 0.110E+00   -.371E-02 0.213E-02 0.205E-02   -.621E-05 0.521E-05 0.228E-03
   -.115E+00 0.633E-01 -.772E-01   0.111E+00 -.610E-01 0.768E-01   -.410E-02 0.217E-02 0.989E-03   -.131E-04 0.463E-06 0.228E-03
 -----------------------------------------------------------------------------------------------
   -.560E-04 0.239E-04 -.103E-01   0.833E-16 0.583E-15 0.121E-12   0.794E-04 -.235E-04 0.101E-01   -.460E-05 -.711E-06 0.163E-03
 
 
 POSITION                                       TOTAL-FORCE (eV/Angst)
 -----------------------------------------------------------------------------------
      2.46770      0.00043      1.56776        -0.238930      0.007722     -0.130629
      4.93046     -0.00052      1.55846         0.029164      0.006590      0.000699
      1.22997      2.13595      1.55846        -0.010339     -0.016226      0.000771
      3.69641      2.13499      1.55846        -0.010466      0.029557      0.000543
      2.46402      0.00044      7.79231        -0.011476      0.006536      0.006996
      4.93046     -0.00052      7.79231        -0.011416      0.006538      0.007104
      1.22997      2.13595      7.79231        -0.011444      0.006521      0.007104
      3.69641      2.13499      7.79231        -0.011443      0.006552      0.007104
     -1.23163      2.13412      4.67538         0.011183     -0.006751     -0.007175
      1.23481      2.13316      4.67538         0.010739     -0.006870     -0.007345
     -2.46568      4.26964      4.67538         0.011063     -0.006421     -0.007257
      0.00076      4.26868      4.67538         0.010811     -0.006701     -0.005967
     -1.23163      2.13412     10.90923         0.011430     -0.006034     -0.007396
      1.23481      2.13316     10.90923         0.011823     -0.006124     -0.007237
     -2.46568      4.26964     10.90923         0.011701     -0.006437     -0.007320
      0.00076      4.26868     10.90923         0.011458     -0.006217     -0.005783
     -0.00332      1.42496      1.55846         0.008667     -0.004998      0.011695
      2.46311      1.42400      1.55846         0.037975     -0.005712      0.044789
     -1.23737      3.56047      1.55846         0.086052      0.022634      0.045234
      1.22906      3.55952      1.55846         0.086452     -0.033035      0.044253
     -0.00332      1.42496      7.79231         0.008606     -0.004932     -0.001104
      2.46311      1.42400      7.79231         0.008610     -0.004931     -0.001057
     -1.23737      3.56047      7.79231         0.008607     -0.004934     -0.001057
      1.22906      3.55952      7.79231         0.008607     -0.004931     -0.001053
      1.23571      0.70960      4.67538        -0.009007      0.005371      0.002069
      3.70215      0.70864      4.67538        -0.007640      0.005567      0.002169
      0.00166      2.84512      4.67538        -0.008495      0.004308      0.002127
      2.46810      2.84416      4.67538        -0.008199      0.005074      0.000713
      1.23571      0.70960     10.90923        -0.007923      0.004129      0.002175
      3.70215      0.70864     10.90923        -0.009076      0.004339      0.002035
      0.00166      2.84512     10.90923        -0.008685      0.005240      0.002070
      2.46810      2.84416     10.90923        -0.008410      0.004573      0.000730
 -----------------------------------------------------------------------------------
    total drift:                                0.000019     -0.000000     -0.000008


--------------------------------------------------------------------------------------------------------



  FREE ENERGIE OF THE ION-ELECTRON SYSTEM (eV)
  ---------------------------------------------------
  free  energy   TOTEN  =      -299.61161576 eV

  energy  without entropy=     -299.61161576  energy(sigma->0) =     -299.61161576
 


--------------------------------------------------------------------------------------------------------


    POTLOK:  cpu time    0.92: real time    1.83


--------------------------------------------------------------------------------------------------------


     LOOP+:  cpu time 5705.18: real time11413.72
    4ORBIT:  cpu time    0.00: real time    0.00
 BZINTS: Fermi energy:  5.327886;128.000000 electrons
         Band energy:-479.562209;  BLOECHL correction:  0.000000

 total amount of memory used by VASP on root node   380300. kBytes
========================================================================

   base      :      30000. kBytes
   nonl-proj :      72801. kBytes
   fftplans  :      13581. kBytes
   grid      :      28889. kBytes
   one-center:         98. kBytes
   wavefun   :     234931. kBytes
 
  
  
 General timing and accounting informations for this job:
 ========================================================
  
                  Total CPU time used (sec):     5786.923
                            User time (sec):     3110.034
                          System time (sec):     2676.889
                         Elapsed time (sec):    11577.430
  
                   Maximum memory used (kb):      481892.
                   Average memory used (kb):           0.
  
                          Minor page faults:     51403929
                          Major page faults:            0
                 Voluntary context switches:          988
