  32  32   0   0
  0.6204108E+01  0.4934311E-09  0.4934311E-09  0.9416039E-09  0.5000000E-15
  1.000000000000000E-004
  CAR 
 graphite                                
     19.84313761    -13.97930032  301      8.55258518      1.00000000
    -13.979  0.0000E+00  0.0000E+00
    -13.867  0.0000E+00  0.0000E+00
    -13.754  0.0000E+00  0.0000E+00
    -13.641  0.0000E+00  0.0000E+00
    -13.528  0.0000E+00  0.0000E+00
    -13.416  0.0000E+00  0.0000E+00
    -13.303  0.0000E+00  0.0000E+00
    -13.190  0.0000E+00  0.0000E+00
    -13.077  0.0000E+00  0.0000E+00
    -12.965  0.3951E-14  0.4455E-15
    -12.852  0.1854E-09  0.2090E-10
    -12.739  0.7500E-06  0.8458E-07
    -12.626  0.3011E-03  0.3403E-04
    -12.514  0.1703E-01  0.1954E-02
    -12.401  0.2033E+00  0.2487E-01
    -12.288  0.6308E+00  0.9599E-01
    -12.175  0.9390E+00  0.2019E+00
    -12.063  0.1395E+01  0.3591E+00
    -11.950  0.1208E+01  0.4953E+00
    -11.837  0.1821E+01  0.7007E+00
    -11.724  0.1869E+01  0.9114E+00
    -11.612  0.1842E+01  0.1119E+01
    -11.499  0.2091E+01  0.1355E+01
    -11.386  0.2332E+01  0.1618E+01
    -11.274  0.2429E+01  0.1892E+01
    -11.161  0.2830E+01  0.2211E+01
    -11.048  0.2328E+01  0.2473E+01
    -10.935  0.2261E+01  0.2728E+01
    -10.823  0.3646E+01  0.3139E+01
    -10.710  0.3603E+01  0.3545E+01
    -10.597  0.2699E+01  0.3850E+01
    -10.484  0.2728E+01  0.4157E+01
    -10.372  0.3338E+01  0.4533E+01
    -10.259  0.4406E+01  0.5030E+01
    -10.146  0.3901E+01  0.5470E+01
    -10.033  0.3623E+01  0.5878E+01
     -9.921  0.3962E+01  0.6325E+01
     -9.808  0.4267E+01  0.6806E+01
     -9.695  0.4583E+01  0.7323E+01
     -9.582  0.4275E+01  0.7805E+01
     -9.470  0.4920E+01  0.8360E+01
     -9.357  0.6218E+01  0.9061E+01
     -9.244  0.5247E+01  0.9652E+01
     -9.131  0.4363E+01  0.1014E+02
     -9.019  0.4381E+01  0.1064E+02
     -8.906  0.4809E+01  0.1118E+02
     -8.793  0.5016E+01  0.1175E+02
     -8.680  0.5363E+01  0.1235E+02
     -8.568  0.5566E+01  0.1298E+02
     -8.455  0.5842E+01  0.1364E+02
     -8.342  0.4072E+01  0.1410E+02
     -8.229  0.4955E+01  0.1465E+02
     -8.117  0.5624E+01  0.1529E+02
     -8.004  0.4255E+01  0.1577E+02
     -7.891  0.4519E+01  0.1628E+02
     -7.779  0.5389E+01  0.1688E+02
     -7.666  0.6681E+01  0.1764E+02
     -7.553  0.5564E+01  0.1827E+02
     -7.440  0.4254E+01  0.1875E+02
     -7.328  0.5071E+01  0.1932E+02
     -7.215  0.6097E+01  0.2000E+02
     -7.102  0.4908E+01  0.2056E+02
     -6.989  0.3901E+01  0.2100E+02
     -6.877  0.6051E+01  0.2168E+02
     -6.764  0.6518E+01  0.2241E+02
     -6.651  0.5235E+01  0.2300E+02
     -6.538  0.6402E+01  0.2373E+02
     -6.426  0.5824E+01  0.2438E+02
     -6.313  0.5699E+01  0.2503E+02
     -6.200  0.3999E+01  0.2548E+02
     -6.087  0.4179E+01  0.2595E+02
     -5.975  0.5302E+01  0.2655E+02
     -5.862  0.6314E+01  0.2726E+02
     -5.749  0.7147E+01  0.2806E+02
     -5.636  0.6889E+01  0.2884E+02
     -5.524  0.4936E+01  0.2940E+02
     -5.411  0.3813E+01  0.2983E+02
     -5.298  0.3712E+01  0.3024E+02
     -5.185  0.3366E+01  0.3062E+02
     -5.073  0.2492E+01  0.3090E+02
     -4.960  0.2638E+01  0.3120E+02
     -4.847  0.3464E+01  0.3159E+02
     -4.735  0.3853E+01  0.3203E+02
     -4.622  0.4947E+01  0.3258E+02
     -4.509  0.6337E+01  0.3330E+02
     -4.396  0.5483E+01  0.3392E+02
     -4.284  0.5056E+01  0.3449E+02
     -4.171  0.5336E+01  0.3509E+02
     -4.058  0.5086E+01  0.3566E+02
     -3.945  0.7888E+01  0.3655E+02
     -3.833  0.6943E+01  0.3733E+02
     -3.720  0.5333E+01  0.3794E+02
     -3.607  0.5852E+01  0.3860E+02
     -3.494  0.6003E+01  0.3927E+02
     -3.382  0.5594E+01  0.3990E+02
     -3.269  0.6039E+01  0.4058E+02
     -3.156  0.5515E+01  0.4121E+02
     -3.043  0.4698E+01  0.4174E+02
     -2.931  0.4611E+01  0.4226E+02
     -2.818  0.5042E+01  0.4282E+02
     -2.705  0.5813E+01  0.4348E+02
     -2.592  0.5268E+01  0.4407E+02
     -2.480  0.3766E+01  0.4450E+02
     -2.367  0.4531E+01  0.4501E+02
     -2.254  0.5086E+01  0.4558E+02
     -2.141  0.4307E+01  0.4607E+02
     -2.029  0.4275E+01  0.4655E+02
     -1.916  0.6805E+01  0.4732E+02
     -1.803  0.9050E+01  0.4834E+02
     -1.690  0.7524E+01  0.4919E+02
     -1.578  0.4889E+01  0.4974E+02
     -1.465  0.4407E+01  0.5023E+02
     -1.352  0.4889E+01  0.5078E+02
     -1.240  0.6964E+01  0.5157E+02
     -1.127  0.9710E+01  0.5266E+02
     -1.014  0.1056E+02  0.5386E+02
     -0.901  0.7525E+01  0.5470E+02
     -0.789  0.4699E+01  0.5523E+02
     -0.676  0.5167E+01  0.5582E+02
     -0.563  0.6960E+01  0.5660E+02
     -0.450  0.7631E+01  0.5746E+02
     -0.338  0.7584E+01  0.5832E+02
     -0.225  0.9070E+01  0.5934E+02
     -0.112  0.9412E+01  0.6040E+02
      0.001  0.8071E+01  0.6131E+02
      0.113  0.6558E+01  0.6205E+02
      0.226  0.7769E+01  0.6292E+02
      0.339  0.9722E+01  0.6402E+02
      0.452  0.9349E+01  0.6507E+02
      0.564  0.6986E+01  0.6586E+02
      0.677  0.8639E+01  0.6684E+02
      0.790  0.9449E+01  0.6790E+02
      0.903  0.8552E+01  0.6887E+02
      1.015  0.9387E+01  0.6992E+02
      1.128  0.1104E+02  0.7117E+02
      1.241  0.1085E+02  0.7239E+02
      1.354  0.9522E+01  0.7347E+02
      1.466  0.1059E+02  0.7466E+02
      1.579  0.1064E+02  0.7586E+02
      1.692  0.1098E+02  0.7710E+02
      1.805  0.1176E+02  0.7842E+02
      1.917  0.1426E+02  0.8003E+02
      2.030  0.1522E+02  0.8175E+02
      2.143  0.1331E+02  0.8325E+02
      2.255  0.1185E+02  0.8458E+02
      2.368  0.1395E+02  0.8616E+02
      2.481  0.1142E+02  0.8744E+02
      2.594  0.8563E+01  0.8841E+02
      2.706  0.9199E+01  0.8944E+02
      2.819  0.1344E+02  0.9096E+02
      2.932  0.1420E+02  0.9256E+02
      3.045  0.9264E+01  0.9361E+02
      3.157  0.9909E+01  0.9472E+02
      3.270  0.8813E+01  0.9572E+02
      3.383  0.8277E+01  0.9665E+02
      3.496  0.9085E+01  0.9767E+02
      3.608  0.8965E+01  0.9868E+02
      3.721  0.9701E+01  0.9978E+02
      3.834  0.8755E+01  0.1008E+03
      3.947  0.1004E+02  0.1019E+03
      4.059  0.8892E+01  0.1029E+03
      4.172  0.8259E+01  0.1038E+03
      4.285  0.7372E+01  0.1047E+03
      4.398  0.7638E+01  0.1055E+03
      4.510  0.7782E+01  0.1064E+03
      4.623  0.7922E+01  0.1073E+03
      4.736  0.7984E+01  0.1082E+03
      4.849  0.7670E+01  0.1091E+03
      4.961  0.7596E+01  0.1099E+03
      5.074  0.7910E+01  0.1108E+03
      5.187  0.7927E+01  0.1117E+03
      5.299  0.6555E+01  0.1124E+03
      5.412  0.6097E+01  0.1131E+03
      5.525  0.4229E+01  0.1136E+03
      5.638  0.3332E+01  0.1140E+03
      5.750  0.4500E+01  0.1145E+03
      5.863  0.5480E+01  0.1151E+03
      5.976  0.3984E+01  0.1156E+03
      6.089  0.4243E+01  0.1160E+03
      6.201  0.4263E+01  0.1165E+03
      6.314  0.4416E+01  0.1170E+03
      6.427  0.5343E+01  0.1176E+03
      6.540  0.5105E+01  0.1182E+03
      6.652  0.5291E+01  0.1188E+03
      6.765  0.6259E+01  0.1195E+03
      6.878  0.7248E+01  0.1203E+03
      6.991  0.7191E+01  0.1211E+03
      7.103  0.5986E+01  0.1218E+03
      7.216  0.6873E+01  0.1226E+03
      7.329  0.5244E+01  0.1232E+03
      7.442  0.4748E+01  0.1237E+03
      7.554  0.4886E+01  0.1242E+03
      7.667  0.6643E+01  0.1250E+03
      7.780  0.8149E+01  0.1259E+03
      7.893  0.5096E+01  0.1265E+03
      8.005  0.2860E+01  0.1268E+03
      8.118  0.2583E+01  0.1271E+03
      8.231  0.2295E+01  0.1274E+03
      8.344  0.1833E+01  0.1276E+03
      8.456  0.1941E+01  0.1278E+03
      8.569  0.2213E+01  0.1280E+03
      8.682  0.2064E+01  0.1283E+03
      8.794  0.1489E+01  0.1284E+03
      8.907  0.1008E+01  0.1285E+03
      9.020  0.1177E+01  0.1287E+03
      9.133  0.1012E+01  0.1288E+03
      9.245  0.1941E+00  0.1288E+03
      9.358  0.3570E+00  0.1289E+03
      9.471  0.8123E+00  0.1289E+03
      9.584  0.1584E+01  0.1291E+03
      9.696  0.4370E+01  0.1296E+03
      9.809  0.3581E+01  0.1300E+03
      9.922  0.1219E+01  0.1302E+03
     10.035  0.2031E+01  0.1304E+03
     10.147  0.4755E+01  0.1309E+03
     10.260  0.6571E+01  0.1317E+03
     10.373  0.4673E+01  0.1322E+03
     10.486  0.4169E+01  0.1327E+03
     10.598  0.6562E+01  0.1334E+03
     10.711  0.6835E+01  0.1342E+03
     10.824  0.5134E+01  0.1348E+03
     10.937  0.5734E+01  0.1354E+03
     11.049  0.5709E+01  0.1360E+03
     11.162  0.5927E+01  0.1367E+03
     11.275  0.5641E+01  0.1373E+03
     11.388  0.3551E+01  0.1377E+03
     11.500  0.4461E+01  0.1383E+03
     11.613  0.5426E+01  0.1389E+03
     11.726  0.6051E+01  0.1395E+03
     11.838  0.4686E+01  0.1401E+03
     11.951  0.2796E+01  0.1404E+03
     12.064  0.2984E+01  0.1407E+03
     12.177  0.4090E+01  0.1412E+03
     12.289  0.6557E+01  0.1419E+03
     12.402  0.6957E+01  0.1427E+03
     12.515  0.3515E+01  0.1431E+03
     12.628  0.3638E+01  0.1435E+03
     12.740  0.4850E+01  0.1441E+03
     12.853  0.4228E+01  0.1445E+03
     12.966  0.4363E+01  0.1450E+03
     13.079  0.4452E+01  0.1455E+03
     13.191  0.5049E+01  0.1461E+03
     13.304  0.3688E+01  0.1465E+03
     13.417  0.2285E+01  0.1468E+03
     13.530  0.2205E+01  0.1470E+03
     13.642  0.3653E+01  0.1474E+03
     13.755  0.4671E+01  0.1480E+03
     13.868  0.4015E+01  0.1484E+03
     13.981  0.2841E+01  0.1487E+03
     14.093  0.2385E+01  0.1490E+03
     14.206  0.3185E+01  0.1494E+03
     14.319  0.4191E+01  0.1498E+03
     14.432  0.4227E+01  0.1503E+03
     14.544  0.2807E+01  0.1506E+03
     14.657  0.4693E+01  0.1512E+03
     14.770  0.7340E+01  0.1520E+03
     14.883  0.6143E+01  0.1527E+03
     14.995  0.3666E+01  0.1531E+03
     15.108  0.3248E+01  0.1535E+03
     15.221  0.6111E+01  0.1541E+03
     15.333  0.6110E+01  0.1548E+03
     15.446  0.4895E+01  0.1554E+03
     15.559  0.4370E+01  0.1559E+03
     15.672  0.7669E+01  0.1567E+03
     15.784  0.9295E+01  0.1578E+03
     15.897  0.6863E+01  0.1586E+03
     16.010  0.6280E+01  0.1593E+03
     16.123  0.6509E+01  0.1600E+03
     16.235  0.7982E+01  0.1609E+03
     16.348  0.8980E+01  0.1619E+03
     16.461  0.8836E+01  0.1629E+03
     16.574  0.7870E+01  0.1638E+03
     16.686  0.4926E+01  0.1644E+03
     16.799  0.4463E+01  0.1649E+03
     16.912  0.5597E+01  0.1655E+03
     17.025  0.4674E+01  0.1660E+03
     17.137  0.3473E+01  0.1664E+03
     17.250  0.2769E+01  0.1667E+03
     17.363  0.3670E+01  0.1671E+03
     17.476  0.2653E+01  0.1674E+03
     17.588  0.1372E+01  0.1676E+03
     17.701  0.1511E+01  0.1678E+03
     17.814  0.9277E+00  0.1679E+03
     17.927  0.5962E+00  0.1679E+03
     18.039  0.2375E+00  0.1680E+03
     18.152  0.5437E-01  0.1680E+03
     18.265  0.1215E+00  0.1680E+03
     18.377  0.1370E+00  0.1680E+03
     18.490  0.3166E-01  0.1680E+03
     18.603  0.8982E-03  0.1680E+03
     18.716  0.2486E-05  0.1680E+03
     18.828  0.6074E-09  0.1680E+03
     18.941  0.1251E-13  0.1680E+03
     19.054  0.0000E+00  0.1680E+03
     19.167  0.0000E+00  0.1680E+03
     19.279  0.0000E+00  0.1680E+03
     19.392  0.0000E+00  0.1680E+03
     19.505  0.0000E+00  0.1680E+03
     19.618  0.0000E+00  0.1680E+03
     19.730  0.0000E+00  0.1680E+03
     19.843  0.0000E+00  0.1680E+03
