  12  12   0   0
  0.1107084E+02  0.4902253E-09  0.6502783E-09  0.4167418E-09  0.5000000E-15
  1.000000000000000E-004
  CAR 
 ethylene                                
      9.58828715    -17.86003411  301     -3.38104465      1.00000000
    -17.860  0.0000E+00  0.0000E+00
    -17.769  0.0000E+00  0.0000E+00
    -17.677  0.0000E+00  0.0000E+00
    -17.586  0.0000E+00  0.0000E+00
    -17.494  0.0000E+00  0.0000E+00
    -17.403  0.0000E+00  0.0000E+00
    -17.311  0.0000E+00  0.0000E+00
    -17.220  0.0000E+00  0.0000E+00
    -17.128  0.0000E+00  0.0000E+00
    -17.037  0.0000E+00  0.0000E+00
    -16.945  0.0000E+00  0.0000E+00
    -16.854  0.0000E+00  0.0000E+00
    -16.762  0.0000E+00  0.0000E+00
    -16.671  0.0000E+00  0.0000E+00
    -16.579  0.0000E+00  0.0000E+00
    -16.488  0.0000E+00  0.0000E+00
    -16.396  0.0000E+00  0.0000E+00
    -16.305  0.0000E+00  0.0000E+00
    -16.213  0.0000E+00  0.0000E+00
    -16.122  0.0000E+00  0.0000E+00
    -16.030  0.0000E+00  0.0000E+00
    -15.939  0.0000E+00  0.0000E+00
    -15.847  0.5642E-02  0.3155E-04
    -15.756  0.3767E-01  0.2006E-02
    -15.664  0.1292E+00  0.9035E-02
    -15.573  0.0000E+00  0.2000E-01
    -15.481  0.0000E+00  0.2000E-01
    -15.390  0.0000E+00  0.2000E-01
    -15.298  0.0000E+00  0.2000E-01
    -15.207  0.0000E+00  0.2000E-01
    -15.115  0.0000E+00  0.2000E-01
    -15.024  0.0000E+00  0.2000E-01
    -14.932  0.0000E+00  0.2000E-01
    -14.841  0.0000E+00  0.2000E-01
    -14.749  0.0000E+00  0.2000E-01
    -14.658  0.0000E+00  0.2000E-01
    -14.566  0.0000E+00  0.2000E-01
    -14.475  0.0000E+00  0.2000E-01
    -14.383  0.0000E+00  0.2000E-01
    -14.292  0.0000E+00  0.2000E-01
    -14.200  0.0000E+00  0.2000E-01
    -14.109  0.0000E+00  0.2000E-01
    -14.017  0.0000E+00  0.2000E-01
    -13.926  0.0000E+00  0.2000E-01
    -13.834  0.0000E+00  0.2000E-01
    -13.743  0.0000E+00  0.2000E-01
    -13.651  0.0000E+00  0.2000E-01
    -13.560  0.0000E+00  0.2000E-01
    -13.468  0.0000E+00  0.2000E-01
    -13.377  0.0000E+00  0.2000E-01
    -13.285  0.0000E+00  0.2000E-01
    -13.194  0.0000E+00  0.2000E-01
    -13.102  0.0000E+00  0.2000E-01
    -13.011  0.0000E+00  0.2000E-01
    -12.919  0.0000E+00  0.2000E-01
    -12.828  0.0000E+00  0.2000E-01
    -12.736  0.0000E+00  0.2000E-01
    -12.645  0.0000E+00  0.2000E-01
    -12.553  0.0000E+00  0.2000E-01
    -12.462  0.0000E+00  0.2000E-01
    -12.370  0.0000E+00  0.2000E-01
    -12.279  0.0000E+00  0.2000E-01
    -12.187  0.0000E+00  0.2000E-01
    -12.096  0.0000E+00  0.2000E-01
    -12.004  0.0000E+00  0.2000E-01
    -11.913  0.0000E+00  0.2000E-01
    -11.821  0.0000E+00  0.2000E-01
    -11.730  0.0000E+00  0.2000E-01
    -11.638  0.0000E+00  0.2000E-01
    -11.547  0.0000E+00  0.2000E-01
    -11.455  0.0000E+00  0.2000E-01
    -11.364  0.0000E+00  0.2000E-01
    -11.272  0.0000E+00  0.2000E-01
    -11.181  0.6736E-01  0.2413E-01
    -11.089  0.9028E-01  0.3100E-01
    -10.998  0.5009E-01  0.3936E-01
    -10.906  0.0000E+00  0.4000E-01
    -10.815  0.0000E+00  0.4000E-01
    -10.723  0.0000E+00  0.4000E-01
    -10.632  0.0000E+00  0.4000E-01
    -10.540  0.0000E+00  0.4000E-01
    -10.449  0.0000E+00  0.4000E-01
    -10.357  0.0000E+00  0.4000E-01
    -10.266  0.0000E+00  0.4000E-01
    -10.175  0.0000E+00  0.4000E-01
    -10.083  0.0000E+00  0.4000E-01
     -9.992  0.0000E+00  0.4000E-01
     -9.900  0.0000E+00  0.4000E-01
     -9.809  0.0000E+00  0.4000E-01
     -9.717  0.0000E+00  0.4000E-01
     -9.626  0.0000E+00  0.4000E-01
     -9.534  0.0000E+00  0.4000E-01
     -9.443  0.0000E+00  0.4000E-01
     -9.351  0.0000E+00  0.4000E-01
     -9.260  0.0000E+00  0.4000E-01
     -9.168  0.0000E+00  0.4000E-01
     -9.077  0.0000E+00  0.4000E-01
     -8.985  0.0000E+00  0.4000E-01
     -8.894  0.0000E+00  0.4000E-01
     -8.802  0.0000E+00  0.4000E-01
     -8.711  0.0000E+00  0.4000E-01
     -8.619  0.0000E+00  0.4000E-01
     -8.528  0.8479E-02  0.4004E-01
     -8.436  0.5568E-01  0.4379E-01
     -8.345  0.3673E-01  0.4805E-01
     -8.253  0.3522E-01  0.5134E-01
     -8.162  0.4803E-01  0.5482E-01
     -8.070  0.3349E-01  0.5951E-01
     -7.979  0.0000E+00  0.6000E-01
     -7.887  0.0000E+00  0.6000E-01
     -7.796  0.0000E+00  0.6000E-01
     -7.704  0.0000E+00  0.6000E-01
     -7.613  0.0000E+00  0.6000E-01
     -7.521  0.0000E+00  0.6000E-01
     -7.430  0.0000E+00  0.6000E-01
     -7.338  0.6147E-02  0.6019E-01
     -7.247  0.1559E-01  0.6115E-01
     -7.155  0.3428E-01  0.6329E-01
     -7.064  0.1030E+00  0.6923E-01
     -6.972  0.4302E-01  0.7673E-01
     -6.881  0.2014E-01  0.7957E-01
     -6.789  0.0000E+00  0.8000E-01
     -6.698  0.0000E+00  0.8000E-01
     -6.606  0.0000E+00  0.8000E-01
     -6.515  0.0000E+00  0.8000E-01
     -6.423  0.0000E+00  0.8000E-01
     -6.332  0.0000E+00  0.8000E-01
     -6.240  0.0000E+00  0.8000E-01
     -6.149  0.0000E+00  0.8000E-01
     -6.057  0.0000E+00  0.8000E-01
     -5.966  0.0000E+00  0.8000E-01
     -5.874  0.0000E+00  0.8000E-01
     -5.783  0.0000E+00  0.8000E-01
     -5.691  0.1076E-01  0.8053E-01
     -5.600  0.1581E-01  0.8174E-01
     -5.508  0.2301E-01  0.8348E-01
     -5.417  0.4143E-01  0.8625E-01
     -5.325  0.5897E-01  0.9156E-01
     -5.234  0.4123E-01  0.9615E-01
     -5.142  0.1733E-01  0.9856E-01
     -5.051  0.8124E-02  0.9969E-01
     -4.959  0.0000E+00  0.1000E+00
     -4.868  0.0000E+00  0.1000E+00
     -4.776  0.0000E+00  0.1000E+00
     -4.685  0.0000E+00  0.1000E+00
     -4.593  0.0000E+00  0.1000E+00
     -4.502  0.0000E+00  0.1000E+00
     -4.410  0.0000E+00  0.1000E+00
     -4.319  0.0000E+00  0.1000E+00
     -4.227  0.0000E+00  0.1000E+00
     -4.136  0.0000E+00  0.1000E+00
     -4.044  0.0000E+00  0.1000E+00
     -3.953  0.6020E-02  0.1002E+00
     -3.861  0.1461E-01  0.1012E+00
     -3.770  0.3510E-01  0.1032E+00
     -3.678  0.8597E-01  0.1092E+00
     -3.587  0.4023E-01  0.1163E+00
     -3.495  0.2093E-01  0.1189E+00
     -3.404  0.0000E+00  0.1200E+00
     -3.312  0.0000E+00  0.1200E+00
     -3.221  0.0000E+00  0.1200E+00
     -3.129  0.0000E+00  0.1200E+00
     -3.038  0.0000E+00  0.1200E+00
     -2.946  0.0000E+00  0.1200E+00
     -2.855  0.0000E+00  0.1200E+00
     -2.763  0.0000E+00  0.1200E+00
     -2.672  0.0000E+00  0.1200E+00
     -2.580  0.0000E+00  0.1200E+00
     -2.489  0.0000E+00  0.1200E+00
     -2.397  0.0000E+00  0.1200E+00
     -2.306  0.0000E+00  0.1200E+00
     -2.214  0.0000E+00  0.1200E+00
     -2.123  0.0000E+00  0.1200E+00
     -2.032  0.0000E+00  0.1200E+00
     -1.940  0.0000E+00  0.1200E+00
     -1.849  0.0000E+00  0.1200E+00
     -1.757  0.0000E+00  0.1200E+00
     -1.666  0.0000E+00  0.1200E+00
     -1.574  0.0000E+00  0.1200E+00
     -1.483  0.0000E+00  0.1200E+00
     -1.391  0.0000E+00  0.1200E+00
     -1.300  0.0000E+00  0.1200E+00
     -1.208  0.0000E+00  0.1200E+00
     -1.117  0.0000E+00  0.1200E+00
     -1.025  0.0000E+00  0.1200E+00
     -0.934  0.0000E+00  0.1200E+00
     -0.842  0.0000E+00  0.1200E+00
     -0.751  0.0000E+00  0.1200E+00
     -0.659  0.0000E+00  0.1200E+00
     -0.568  0.0000E+00  0.1200E+00
     -0.476  0.0000E+00  0.1200E+00
     -0.385  0.0000E+00  0.1200E+00
     -0.293  0.0000E+00  0.1200E+00
     -0.202  0.0000E+00  0.1200E+00
     -0.110  0.0000E+00  0.1200E+00
     -0.019  0.0000E+00  0.1200E+00
      0.073  0.0000E+00  0.1200E+00
      0.164  0.0000E+00  0.1200E+00
      0.256  0.0000E+00  0.1200E+00
      0.347  0.0000E+00  0.1200E+00
      0.439  0.0000E+00  0.1200E+00
      0.530  0.0000E+00  0.1200E+00
      0.622  0.0000E+00  0.1200E+00
      0.713  0.0000E+00  0.1200E+00
      0.805  0.0000E+00  0.1200E+00
      0.896  0.0000E+00  0.1200E+00
      0.988  0.0000E+00  0.1200E+00
      1.079  0.0000E+00  0.1200E+00
      1.171  0.2863E-02  0.1201E+00
      1.262  0.4987E-02  0.1205E+00
      1.354  0.6430E-02  0.1210E+00
      1.445  0.8021E-02  0.1216E+00
      1.537  0.9755E-02  0.1225E+00
      1.628  0.1220E-01  0.1235E+00
      1.720  0.1634E-01  0.1247E+00
      1.811  0.1709E-01  0.1263E+00
      1.903  0.1800E-01  0.1279E+00
      1.994  0.1989E-01  0.1296E+00
      2.086  0.2503E-01  0.1316E+00
      2.177  0.2650E-01  0.1340E+00
      2.269  0.2871E-01  0.1365E+00
      2.360  0.1848E-01  0.1388E+00
      2.452  0.5737E-02  0.1399E+00
      2.543  0.0000E+00  0.1400E+00
      2.635  0.0000E+00  0.1400E+00
      2.726  0.0000E+00  0.1400E+00
      2.818  0.0000E+00  0.1400E+00
      2.909  0.0000E+00  0.1400E+00
      3.001  0.4116E-02  0.1402E+00
      3.092  0.4532E-02  0.1406E+00
      3.184  0.5144E-02  0.1410E+00
      3.275  0.5662E-02  0.1415E+00
      3.367  0.6220E-02  0.1420E+00
      3.458  0.6781E-02  0.1426E+00
      3.550  0.7503E-02  0.1433E+00
      3.641  0.8424E-02  0.1440E+00
      3.733  0.9119E-02  0.1448E+00
      3.824  0.9843E-02  0.1457E+00
      3.916  0.1110E-01  0.1466E+00
      4.007  0.1304E-01  0.1477E+00
      4.099  0.1541E-01  0.1490E+00
      4.190  0.1863E-01  0.1506E+00
      4.282  0.2141E-01  0.1524E+00
      4.373  0.2137E-01  0.1544E+00
      4.465  0.1994E-01  0.1564E+00
      4.556  0.1374E-01  0.1579E+00
      4.648  0.1094E-01  0.1590E+00
      4.739  0.9422E-02  0.1599E+00
      4.831  0.1044E-01  0.1608E+00
      4.922  0.1269E-01  0.1619E+00
      5.014  0.1473E-01  0.1631E+00
      5.105  0.1762E-01  0.1646E+00
      5.197  0.1790E-01  0.1663E+00
      5.288  0.1808E-01  0.1679E+00
      5.380  0.1895E-01  0.1696E+00
      5.471  0.1957E-01  0.1714E+00
      5.563  0.1959E-01  0.1732E+00
      5.654  0.1872E-01  0.1750E+00
      5.746  0.1491E-01  0.1765E+00
      5.837  0.1290E-01  0.1778E+00
      5.929  0.1106E-01  0.1789E+00
      6.020  0.9226E-02  0.1799E+00
      6.111  0.1143E-01  0.1808E+00
      6.203  0.1334E-01  0.1820E+00
      6.294  0.1470E-01  0.1832E+00
      6.386  0.1633E-01  0.1847E+00
      6.477  0.1686E-01  0.1862E+00
      6.569  0.2117E-01  0.1878E+00
      6.660  0.2333E-01  0.1900E+00
      6.752  0.2273E-01  0.1922E+00
      6.843  0.1895E-01  0.1940E+00
      6.935  0.1810E-01  0.1957E+00
      7.026  0.1230E-01  0.1971E+00
      7.118  0.8912E-02  0.1981E+00
      7.209  0.6487E-02  0.1987E+00
      7.301  0.4699E-02  0.1993E+00
      7.392  0.3549E-02  0.1996E+00
      7.484  0.1937E-02  0.1999E+00
      7.575  0.3005E-04  0.2000E+00
      7.667  0.0000E+00  0.2000E+00
      7.758  0.0000E+00  0.2000E+00
      7.850  0.0000E+00  0.2000E+00
      7.941  0.0000E+00  0.2000E+00
      8.033  0.0000E+00  0.2000E+00
      8.124  0.0000E+00  0.2000E+00
      8.216  0.0000E+00  0.2000E+00
      8.307  0.0000E+00  0.2000E+00
      8.399  0.0000E+00  0.2000E+00
      8.490  0.0000E+00  0.2000E+00
      8.582  0.0000E+00  0.2000E+00
      8.673  0.0000E+00  0.2000E+00
      8.765  0.0000E+00  0.2000E+00
      8.856  0.0000E+00  0.2000E+00
      8.948  0.0000E+00  0.2000E+00
      9.039  0.0000E+00  0.2000E+00
      9.131  0.0000E+00  0.2000E+00
      9.222  0.0000E+00  0.2000E+00
      9.314  0.0000E+00  0.2000E+00
      9.405  0.0000E+00  0.2000E+00
      9.497  0.0000E+00  0.2000E+00
      9.588  0.0000E+00  0.2000E+00
