   12   12  200    1
  0.1107084E+02  0.4902252E-09  0.6502783E-09  0.4167418E-09  0.5000000E-15
  1.000000000000000E-004
  CAR 
 ethylene                                
     24    350     20
 
  0.0000000E+00  0.0000000E+00  0.0000000E+00  0.8680556E-03
    1      -15.860034
    2      -15.618630
    3      -11.074864
    4      -11.066371
    5       -8.119281
    6       -8.058865
    7       -7.395168
    8       -7.059855
    9       -5.358798
   10       -4.978130
   11       -3.700900
   12       -3.441271
   13        1.112396
   14        2.390267
   15        2.938969
   16        4.377726
   17        5.406110
   18        6.553923
   19        6.767714
   20        6.971748
 
  0.8333333E-01  0.0000000E+00  0.0000000E+00  0.1736111E-02
    1      -15.853438
    2      -15.619828
    3      -11.087145
    4      -11.077050
    5       -8.121605
    6       -8.057462
    7       -7.374092
    8       -7.050736
    9       -5.361392
   10       -4.991888
   11       -3.699000
   12       -3.453466
   13        1.160064
   14        2.407675
   15        2.946556
   16        4.389932
   17        5.436352
   18        6.228540
   19        6.668017
   20        6.919305
 
  0.1666667E+00  0.0000000E+00  0.0000000E+00  0.1736111E-02
    1      -15.834491
    2      -15.623968
    3      -11.120056
    4      -11.106477
    5       -8.124979
    6       -8.054258
    7       -7.317522
    8       -7.027970
    9       -5.366600
   10       -5.030751
   11       -3.694130
   12       -3.486673
   13        1.296618
   14        2.447300
   15        2.981961
   16        4.425160
   17        5.520840
   18        5.691654
   19        6.393148
   20        6.757142
 
  0.2500000E+00  0.0000000E+00  0.0000000E+00  0.1736111E-02
    1      -15.805603
    2      -15.632496
    3      -11.163382
    4      -11.147403
    5       -8.122889
    6       -8.051849
    7       -7.240497
    8       -7.003041
    9       -5.367699
   10       -5.088165
   11       -3.687745
   12       -3.532235
   13        1.503566
   14        2.475442
   15        3.075160
   16        4.473878
   17        5.175061
   18        5.640303
   19        6.023515
   20        6.572449
 
  0.3333333E+00  0.0000000E+00  0.0000000E+00  0.1736111E-02
    1      -15.770422
    2      -15.647142
    3      -11.204335
    4      -11.189705
    5       -8.112315
    6       -8.053526
    7       -7.158788
    8       -6.989322
    9       -5.356882
   10       -5.155326
   11       -3.680082
   12       -3.579714
   13        1.752025
   14        2.458232
   15        3.245688
   16        4.448102
   17        4.810761
   18        5.592226
   19        5.832046
   20        6.413535
 
  0.4166667E+00  0.0000000E+00  0.0000000E+00  0.1736111E-02
    1      -15.733294
    2      -15.669140
    3      -11.231600
    4      -11.222803
    5       -8.095219
    6       -8.061756
    7       -7.085296
    8       -6.996787
    9       -5.328874
   10       -5.223042
   11       -3.668879
   12       -3.620501
   13        2.005043
   14        2.377076
   15        3.488097
   16        4.141161
   17        4.826380
   18        5.265680
   19        5.974680
   20        6.270936
 
  0.5000000E+00  0.0000000E+00  0.0000000E+00  0.8680556E-03
    1      -15.698441
    2      -15.698440
    3      -11.238193
    4      -11.238193
    5       -8.076650
    6       -8.076649
    7       -7.029356
    8       -7.029355
    9       -5.283057
   10       -5.283056
   11       -3.650160
   12       -3.650160
   13        2.223247
   14        2.223248
   15        3.790986
   16        3.790986
   17        5.002955
   18        5.002956
   19        6.126810
   20        6.126810
 
  0.0000000E+00  0.8333333E-01  0.0000000E+00  0.1736111E-02
    1      -15.856119
    2      -15.622956
    3      -11.074218
    4      -11.065984
    5       -8.120747
    6       -8.062985
    7       -7.387561
    8       -7.064219
    9       -5.352544
   10       -4.984951
   11       -3.694456
   12       -3.443188
   13        1.130996
   14        2.369841
   15        2.944564
   16        4.337261
   17        5.424449
   18        6.564026
   19        6.760714
   20        7.001654
 
  0.8333333E-01  0.8333333E-01  0.0000000E+00  0.3472222E-02
    1      -15.849632
    2      -15.623994
    3      -11.086933
    4      -11.076499
    5       -8.123069
    6       -8.060618
    7       -7.367122
    8       -7.055092
    9       -5.355096
   10       -4.998102
   11       -3.693658
   12       -3.455436
   13        1.178147
   14        2.388618
   15        2.951679
   16        4.351488
   17        5.452909
   18        6.236098
   19        6.672077
   20        6.930073
 
  0.1666667E+00  0.8333333E-01  0.0000000E+00  0.3472222E-02
    1      -15.831019
    2      -15.627676
    3      -11.120510
    4      -11.105988
    5       -8.125944
    6       -8.055566
    7       -7.312059
    8       -7.032219
    9       -5.360225
   10       -5.035330
   11       -3.691723
   12       -3.488862
   13        1.313247
   14        2.432907
   15        2.985133
   16        4.392076
   17        5.531698
   18        5.704086
   19        6.377747
   20        6.788447
 
  0.2500000E+00  0.8333333E-01  0.0000000E+00  0.3472222E-02
    1      -15.802683
    2      -15.635469
    3      -11.164330
    4      -11.147377
    5       -8.122765
    6       -8.051574
    7       -7.236720
    8       -7.006894
    9       -5.361391
   10       -5.090529
   11       -3.689096
   12       -3.534940
   13        1.518038
   14        2.468850
   15        3.075011
   16        4.450614
   17        5.176462
   18        5.663319
   19        5.988235
   20        6.631311
 
  0.3333333E+00  0.8333333E-01  0.0000000E+00  0.3472222E-02
    1      -15.768261
    2      -15.649171
    3      -11.205607
    4      -11.190280
    5       -8.111041
    6       -8.052148
    7       -7.156579
    8       -6.992409
    9       -5.350977
   10       -5.155366
   11       -3.684719
   12       -3.583422
   13        1.763950
   14        2.458942
   15        3.244275
   16        4.457172
   17        4.782349
   18        5.590039
   19        5.822241
   20        6.480366
 
  0.4166667E+00  0.8333333E-01  0.0000000E+00  0.3472222E-02
    1      -15.732069
    2      -15.670092
    3      -11.233022
    4      -11.223883
    5       -8.093181
    6       -8.059711
    7       -7.084541
    8       -6.998746
    9       -5.323810
   10       -5.220983
   11       -3.675282
   12       -3.625623
   13        2.014452
   14        2.382015
   15        3.490094
   16        4.158908
   17        4.789084
   18        5.244377
   19        5.993317
   20        6.329073
 
  0.5000000E+00  0.8333333E-01  0.0000000E+00  0.1736111E-02
    1      -15.698278
    2      -15.698277
    3      -11.239561
    4      -11.239560
    5       -8.074359
    6       -8.074358
    7       -7.029985
    8       -7.029985
    9       -5.279273
   10       -5.279273
   11       -3.656500
   12       -3.656500
   13        2.230497
   14        2.230498
   15        3.800158
   16        3.800158
   17        4.973595
   18        4.973595
   19        6.166391
   20        6.166391
 
  0.0000000E+00  0.1666667E+00  0.0000000E+00  0.1736111E-02
    1      -15.844589
    2      -15.635581
    3      -11.072406
    4      -11.064951
    5       -8.124560
    6       -8.074177
    7       -7.365879
    8       -7.077254
    9       -5.334160
   10       -5.004836
   11       -3.675883
   12       -3.449426
   13        1.186171
   14        2.305291
   15        2.969493
   16        4.221955
   17        5.483554
   18        6.583890
   19        6.757287
   20        7.077383
 
  0.8333333E-01  0.1666667E+00  0.0000000E+00  0.3472222E-02
    1      -15.838439
    2      -15.636167
    3      -11.086096
    4      -11.075248
    5       -8.126670
    6       -8.069497
    7       -7.347118
    8       -7.068087
    9       -5.336611
   10       -5.016366
   11       -3.678003
   12       -3.461870
   13        1.231815
   14        2.327162
   15        2.976266
   16        4.240594
   17        5.506926
   18        6.254266
   19        6.690595
   20        6.955834
 
  0.1666667E+00  0.1666667E+00  0.0000000E+00  0.3472222E-02
    1      -15.820816
    2      -15.638512
    3      -11.121186
    4      -11.105218
    5       -8.127772
    6       -8.059970
    7       -7.296074
    8       -7.044822
    9       -5.341609
   10       -5.049139
   11       -3.683826
   12       -3.496035
   13        1.362703
   14        2.382511
   15        3.006948
   16        4.293181
   17        5.568949
   18        5.734015
   19        6.365558
   20        6.853551
 
  0.2500000E+00  0.1666667E+00  0.0000000E+00  0.3472222E-02
    1      -15.794112
    2      -15.644178
    3      -11.166319
    4      -11.147909
    5       -8.121506
    6       -8.051821
    7       -7.225436
    8       -7.018295
    9       -5.343100
   10       -5.098144
   11       -3.691265
   12       -3.543778
   13        1.561259
   14        2.439183
   15        3.089512
   16        4.372622
   17        5.193681
   18        5.678034
   19        5.979575
   20        6.755411
 
  0.3333333E+00  0.1666667E+00  0.0000000E+00  0.3472222E-02
    1      -15.761936
    2      -15.655137
    3      -11.208621
    4      -11.192315
    5       -8.106851
    6       -8.049190
    7       -7.149857
    8       -7.001489
    9       -5.333990
   10       -5.156304
   11       -3.695954
   12       -3.595087
   13        1.799714
   14        2.452376
   15        3.253356
   16        4.453798
   17        4.733252
   18        5.509148
   19        5.905494
   20        6.630484
 
  0.4166667E+00  0.1666667E+00  0.0000000E+00  0.3472222E-02
    1      -15.728504
    2      -15.672915
    3      -11.236661
    4      -11.227071
    5       -8.087217
    6       -8.054538
    7       -7.082109
    8       -7.004461
    9       -5.309400
   10       -5.215692
   11       -3.691875
   12       -3.640708
   13        2.042321
   14        2.391689
   15        3.504345
   16        4.208294
   17        4.688439
   18        5.170429
   19        6.080390
   20        6.469744
 
  0.5000000E+00  0.1666667E+00  0.0000000E+00  0.1736111E-02
    1      -15.697834
    2      -15.697834
    3      -11.243292
    4      -11.243292
    5       -8.068108
    6       -8.068108
    7       -7.031733
    8       -7.031733
    9       -5.268790
   10       -5.268790
   11       -3.673962
   12       -3.673962
   13        2.250261
   14        2.250262
   15        3.829337
   16        3.829337
   17        4.890190
   18        4.890191
   19        6.279388
   20        6.279388
 
  0.0000000E+00  0.2500000E+00  0.0000000E+00  0.1736111E-02
    1      -15.826141
    2      -15.655534
    3      -11.069821
    4      -11.063652
    5       -8.129210
    6       -8.089517
    7       -7.333125
    8       -7.098772
    9       -5.304771
   10       -5.036161
   11       -3.647401
   12       -3.461200
   13        1.275891
   14        2.195004
   15        3.028056
   16        4.050098
   17        5.588866
   18        6.580711
   19        6.777272
   20        7.180601
 
  0.8333333E-01  0.2500000E+00  0.0000000E+00  0.3472222E-02
    1      -15.820527
    2      -15.655407
    3      -11.084390
    4      -11.074090
    5       -8.130420
    6       -8.082486
    7       -7.316487
    8       -7.089421
    9       -5.307157
   10       -5.045508
   11       -3.653250
   12       -3.474016
   13        1.319222
   14        2.220088
   15        3.036282
   16        4.072515
   17        5.603877
   18        6.270641
   19        6.727572
   20        6.973938
 
  0.1666667E+00  0.2500000E+00  0.0000000E+00  0.3472222E-02
    1      -15.804515
    2      -15.655671
    3      -11.121009
    4      -11.105270
    5       -8.128210
    6       -8.068132
    7       -7.270835
    8       -7.065335
    9       -5.312245
   10       -5.072169
   11       -3.669176
   12       -3.509516
   13        1.443596
   14        2.287287
   15        3.068761
   16        4.135872
   17        5.633993
   18        5.770039
   19        6.394199
   20        6.915034
 
  0.2500000E+00  0.2500000E+00  0.0000000E+00  0.3472222E-02
    1      -15.780464
    2      -15.658023
    3      -11.167843
    4      -11.149852
    5       -8.117490
    6       -8.054706
    7       -7.206991
    8       -7.036685
    9       -5.314650
   10       -5.112285
   11       -3.690049
   12       -3.559879
   13        1.632427
   14        2.369507
   15        3.147272
   16        4.233192
   17        5.238011
   18        5.625470
   19        6.098391
   20        6.883162
 
  0.3333333E+00  0.2500000E+00  0.0000000E+00  0.3472222E-02
    1      -15.751902
    2      -15.664674
    3      -11.211763
    4      -11.196055
    5       -8.099231
    6       -8.047186
    7       -7.138406
    8       -7.015981
    9       -5.308018
   10       -5.160253
   11       -3.707542
   12       -3.614863
   13        1.858828
   14        2.419814
   15        3.301450
   16        4.361901
   17        4.744826
   18        5.376099
   19        6.092302
   20        6.803348
 
  0.4166667E+00  0.2500000E+00  0.0000000E+00  0.3472222E-02
    1      -15.722907
    2      -15.677500
    3      -11.241088
    4      -11.231942
    5       -8.078009
    6       -8.048568
    7       -7.077641
    8       -7.013420
    9       -5.287976
   10       -5.209659
   11       -3.712395
   12       -3.663931
   13        2.087128
   14        2.393652
   15        3.549068
   16        4.280950
   17        4.542374
   18        5.050092
   19        6.248937
   20        6.650723
 
  0.5000000E+00  0.2500000E+00  0.0000000E+00  0.1736111E-02
    1      -15.697226
    2      -15.697226
    3      -11.248368
    4      -11.248367
    5       -8.059553
    6       -8.059553
    7       -7.034143
    8       -7.034142
    9       -5.254079
   10       -5.254079
   11       -3.698111
   12       -3.698111
   13        2.277138
   14        2.277138
   15        3.882360
   16        3.882360
   17        4.764621
   18        4.764622
   19        6.451110
   20        6.451110
 
  0.0000000E+00  0.3333333E+00  0.0000000E+00  0.1736111E-02
    1      -15.801894
    2      -15.681286
    3      -11.067000
    4      -11.062583
    5       -8.132670
    6       -8.105527
    7       -7.293060
    8       -7.128182
    9       -5.266240
   10       -5.076501
   11       -3.612308
   12       -3.479724
   13        1.396612
   14        2.048079
   15        3.127193
   16        3.847051
   17        5.739568
   18        6.506698
   19        6.826304
   20        7.239987
 
  0.8333333E-01  0.3333333E+00  0.0000000E+00  0.3472222E-02
    1      -15.797004
    2      -15.680273
    3      -11.081906
    4      -11.073726
    5       -8.132048
    6       -8.097310
    7       -7.278521
    8       -7.118463
    9       -5.268753
   10       -5.083633
   11       -3.621677
   12       -3.493038
   13        1.437043
   14        2.076048
   15        3.138779
   16        3.870915
   17        5.741081
   18        6.263399
   19        6.772464
   20        6.951717
 
  0.1666667E+00  0.3333333E+00  0.0000000E+00  0.3472222E-02
    1      -15.783145
    2      -15.677905
    3      -11.119464
    4      -11.106711
    5       -8.125239
    6       -8.079774
    7       -7.238451
    8       -7.092918
    9       -5.274501
   10       -5.103870
   11       -3.647251
   12       -3.530078
   13        1.553230
   14        2.153734
   15        3.178635
   16        3.939064
   17        5.713113
   18        5.804268
   19        6.470537
   20        6.937958
 
  0.2500000E+00  0.3333333E+00  0.0000000E+00  0.3472222E-02
    1      -15.762635
    2      -15.676044
    3      -11.167838
    4      -11.153331
    5       -8.109720
    6       -8.061568
    7       -7.182276
    8       -7.061057
    9       -5.278847
   10       -5.134072
   11       -3.681546
   12       -3.583014
   13        1.729554
   14        2.259555
   15        3.260714
   16        4.045127
   17        5.300662
   18        5.557538
   19        6.296224
   20        6.970920
 
  0.3333333E+00  0.3333333E+00  0.0000000E+00  0.3472222E-02
    1      -15.738892
    2      -15.677190
    3      -11.213628
    4      -11.201068
    5       -8.088499
    6       -8.048469
    7       -7.122380
    8       -7.034893
    9       -5.276315
   10       -5.169851
   11       -3.713097
   12       -3.640767
   13        1.939398
   14        2.351417
   15        3.406743
   16        4.186594
   17        4.815903
   18        5.244526
   19        6.333146
   20        6.953850
 
  0.4166667E+00  0.3333333E+00  0.0000000E+00  0.3472222E-02
    1      -15.715755
    2      -15.683632
    3      -11.244780
    4      -11.237511
    5       -8.067040
    6       -8.044392
    7       -7.070770
    8       -7.024776
    9       -5.263134
   10       -5.206385
   11       -3.729626
   12       -3.690980
   13        2.145458
   14        2.376229
   15        3.639214
   16        4.328685
   17        4.407156
   18        4.908193
   19        6.474607
   20        6.838161
 
  0.5000000E+00  0.3333333E+00  0.0000000E+00  0.1736111E-02
    1      -15.696621
    2      -15.696620
    3      -11.253427
    4      -11.253427
    5       -8.050989
    6       -8.050989
    7       -7.036609
    8       -7.036609
    9       -5.238912
   10       -5.238912
   11       -3.722667
   12       -3.722667
   13        2.303797
   14        2.303798
   15        3.961706
   16        3.961706
   17        4.613835
   18        4.613835
   19        6.658374
   20        6.658375
 
  0.0000000E+00  0.4166667E+00  0.0000000E+00  0.1736111E-02
    1      -15.773352
    2      -15.710932
    3      -11.064521
    4      -11.062213
    5       -8.132942
    6       -8.119212
    7       -7.249425
    8       -7.164356
    9       -5.221054
   10       -5.122918
   11       -3.574485
   12       -3.505509
   13        1.543027
   14        1.880348
   15        3.265910
   16        3.637003
   17        5.927992
   18        6.346470
   19        6.902608
   20        7.113782
 
  0.8333333E-01  0.4166667E+00  0.0000000E+00  0.3472222E-02
    1      -15.769334
    2      -15.708918
    3      -11.079045
    4      -11.074498
    5       -8.129752
    6       -8.111464
    7       -7.236659
    8       -7.153983
    9       -5.224020
   10       -5.128163
   11       -3.586405
   12       -3.519109
   13        1.580250
   14        1.911215
   15        3.281763
   16        3.659852
   17        5.905635
   18        6.201331
   19        6.811921
   20        6.896488
 
  0.1666667E+00  0.4166667E+00  0.0000000E+00  0.3472222E-02
    1      -15.758075
    2      -15.703606
    3      -11.116634
    4      -11.109475
    5       -8.117982
    6       -8.093416
    7       -7.201612
    8       -7.126208
    9       -5.231388
   10       -5.142744
   11       -3.619214
   12       -3.556996
   13        1.687202
   14        1.998708
   15        3.331747
   16        3.726291
   17        5.782555
   18        5.826293
   19        6.589895
   20        6.876772
 
  0.2500000E+00  0.4166667E+00  0.0000000E+00  0.3472222E-02
    1      -15.741826
    2      -15.697001
    3      -11.165921
    4      -11.157805
    5       -8.098517
    6       -8.072275
    7       -7.152991
    8       -7.089960
    9       -5.239244
   10       -5.163659
   11       -3.664245
   12       -3.610891
   13        1.848766
   14        2.125163
   15        3.422466
   16        3.832396
   17        5.368258
   18        5.494967
   19        6.531944
   20        6.945487
 
  0.3333333E+00  0.4166667E+00  0.0000000E+00  0.3472222E-02
    1      -15.723835
    2      -15.691886
    3      -11.213362
    4      -11.206366
    5       -8.076024
    6       -8.054150
    7       -7.102457
    8       -7.056827
    9       -5.242926
   10       -5.187034
   11       -3.708416
   12       -3.668525
   13        2.037323
   14        2.255036
   15        3.565451
   16        3.976315
   17        4.909588
   18        5.124245
   19        6.600280
   20        6.997867
 
  0.4166667E+00  0.4166667E+00  0.0000000E+00  0.3472222E-02
    1      -15.707642
    2      -15.691004
    3      -11.246548
    4      -11.242511
    5       -8.056381
    6       -8.043995
    7       -7.061447
    8       -7.037414
    9       -5.239226
   10       -5.209296
   11       -3.737501
   12       -3.715914
   13        2.211685
   14        2.336028
   15        3.777300
   16        4.150115
   17        4.497806
   18        4.762792
   19        6.721168
   20        6.966505
 
  0.5000000E+00  0.4166667E+00  0.0000000E+00  0.1736111E-02
    1      -15.696176
    2      -15.696176
    3      -11.257120
    4      -11.257119
    5       -8.044718
    6       -8.044718
    7       -7.038450
    8       -7.038450
    9       -5.227500
   10       -5.227500
   11       -3.740917
   12       -3.740916
   13        2.323125
   14        2.323125
   15        4.060481
   16        4.060481
   17        4.463281
   18        4.463281
   19        6.856832
   20        6.856833
 
  0.0000000E+00  0.5000000E+00  0.0000000E+00  0.8680556E-03
    1      -15.742344
    2      -15.742344
    3      -11.062846
    4      -11.062846
    5       -8.128601
    6       -8.128601
    7       -7.205563
    8       -7.205563
    9       -5.172208
   10       -5.172208
   11       -3.537803
   12       -3.537803
   13        1.707632
   14        1.707632
   15        3.438828
   16        3.438828
   17        6.139149
   18        6.139149
   19        7.000733
   20        7.000733
 
  0.8333333E-01  0.5000000E+00  0.0000000E+00  0.1736111E-02
    1      -15.739303
    2      -15.739303
    3      -11.076390
    4      -11.076389
    5       -8.122758
    6       -8.122758
    7       -7.194186
    8       -7.194185
    9       -5.176057
   10       -5.176057
   11       -3.551078
   12       -3.551078
   13        1.741601
   14        1.741601
   15        3.458747
   16        3.458747
   17        6.072100
   18        6.072101
   19        6.848478
   20        6.848478
 
  0.1666667E+00  0.5000000E+00  0.0000000E+00  0.1736111E-02
    1      -15.730954
    2      -15.730953
    3      -11.113041
    4      -11.113041
    5       -8.106868
    6       -8.106868
    7       -7.163248
    8       -7.163248
    9       -5.186303
   10       -5.186303
   11       -3.587880
   12       -3.587879
   13        1.838865
   14        1.838865
   15        3.518445
   16        3.518445
   17        5.822084
   18        5.822085
   19        6.739014
   20        6.739014
 
  0.2500000E+00  0.5000000E+00  0.0000000E+00  0.1736111E-02
    1      -15.719440
    2      -15.719439
    3      -11.162330
    4      -11.162329
    5       -8.085316
    6       -8.085316
    7       -7.121387
    8       -7.121386
    9       -5.199636
   10       -5.199636
   11       -3.639480
   12       -3.639480
   13        1.983781
   14        1.983781
   15        3.618416
   16        3.618416
   17        5.433358
   18        5.433358
   19        6.771062
   20        6.771063
 
  0.3333333E+00  0.5000000E+00  0.0000000E+00  0.1736111E-02
    1      -15.707797
    2      -15.707796
    3      -11.210787
    4      -11.210787
    5       -8.063861
    6       -8.063861
    7       -7.080002
    8       -7.080002
    9       -5.212018
   10       -5.212018
   11       -3.692701
   12       -3.692701
   13        2.145841
   14        2.145841
   15        3.761749
   16        3.761750
   17        5.013175
   18        5.013176
   19        6.852740
   20        6.852740
 
  0.4166667E+00  0.5000000E+00  0.0000000E+00  0.1736111E-02
    1      -15.699186
    2      -15.699186
    3      -11.245767
    4      -11.245766
    5       -8.048172
    6       -8.048172
    7       -7.050029
    8       -7.050028
    9       -5.220369
   10       -5.220369
   11       -3.732758
   12       -3.732758
   13        2.278216
   14        2.278216
   15        3.953489
   16        3.953489
   17        4.623758
   18        4.623759
   19        6.923400
   20        6.923400
 
  0.5000000E+00  0.5000000E+00  0.0000000E+00  0.8680556E-03
    1      -15.696018
    2      -15.696018
    3      -11.258472
    4      -11.258472
    5       -8.042420
    6       -8.042420
    7       -7.039141
    8       -7.039140
    9       -5.223257
   10       -5.223257
   11       -3.747664
   12       -3.747664
   13        2.330149
   14        2.330150
   15        4.125012
   16        4.125012
   17        4.379887
   18        4.379887
   19        6.950495
   20        6.950495
 
  0.0000000E+00  0.0000000E+00  0.1250000E+00  0.1736111E-02
    1      -15.837870
    2      -15.613503
    3      -11.062269
    4      -11.053227
    5       -8.199298
    6       -8.130884
    7       -7.340188
    8       -7.052273
    9       -5.379587
   10       -5.026696
   11       -3.717029
   12       -3.451285
   13        1.130018
   14        2.344341
   15        3.035363
   16        4.474429
   17        5.343248
   18        6.325316
   19        6.581537
   20        6.913074
 
  0.8333333E-01  0.0000000E+00  0.1250000E+00  0.1736111E-02
    1      -15.830646
    2      -15.614991
    3      -11.072917
    4      -11.068832
    5       -8.216914
    6       -8.135378
    7       -7.284109
    8       -7.050152
    9       -5.338327
   10       -5.049329
   11       -3.708766
   12       -3.507358
   13        1.152223
   14        2.363406
   15        2.977543
   16        4.426434
   17        5.393946
   18        6.071196
   19        6.842028
   20        6.879858
 
  0.1666667E+00  0.0000000E+00  0.1250000E+00  0.1736111E-02
    1      -15.811724
    2      -15.618953
    3      -11.110112
    4      -11.095626
    5       -8.223253
    6       -8.134662
    7       -7.208238
    8       -7.035679
    9       -5.307975
   10       -5.099775
   11       -3.696994
   12       -3.579693
   13        1.260000
   14        2.416688
   15        2.955409
   16        4.426247
   17        5.483483
   18        5.735283
   19        6.682514
   20        6.726090
 
  0.2500000E+00  0.0000000E+00  0.1250000E+00  0.1736111E-02
    1      -15.783546
    2      -15.626830
    3      -11.156695
    4      -11.132890
    5       -8.214679
    6       -8.130175
    7       -7.126753
    8       -7.020656
    9       -5.287702
   10       -5.172808
   11       -3.680385
   12       -3.653650
   13        1.438048
   14        2.482645
   15        2.986944
   16        4.475337
   17        5.378337
   18        5.595318
   19        6.371454
   20        6.457792
 
  0.3333333E+00  0.0000000E+00  0.1250000E+00  0.1736111E-02
    1      -15.749736
    2      -15.640369
    3      -11.202101
    4      -11.168443
    5       -8.192721
    6       -8.124698
    7       -7.051763
    8       -7.018507
    9       -5.272254
   10       -5.259080
   11       -3.715625
   12       -3.657993
   13        1.663192
   14        2.514169
   15        3.101090
   16        4.565750
   17        5.009441
   18        5.684250
   19        6.126294
   20        6.238236
 
  0.4166667E+00  0.0000000E+00  0.1250000E+00  0.1736111E-02
    1      -15.714557
    2      -15.660811
    3      -11.235828
    4      -11.191528
    5       -8.163163
    6       -8.121215
    7       -7.038949
    8       -6.992137
    9       -5.346898
   10       -5.254632
   11       -3.756766
   12       -3.628438
   13        1.904733
   14        2.465696
   15        3.315233
   16        4.556555
   17        4.788666
   18        5.630363
   19        5.959724
   20        6.181746
 
  0.5000000E+00  0.0000000E+00  0.1250000E+00  0.1736111E-02
    1      -15.688160
    2      -15.682074
    3      -11.249820
    4      -11.195629
    5       -8.133791
    6       -8.121707
    7       -7.084619
    8       -6.953456
    9       -5.424091
   10       -5.229151
   11       -3.774863
   12       -3.590472
   13        2.126320
   14        2.324640
   15        3.618169
   16        4.232379
   17        4.959528
   18        5.452985
   19        5.831700
   20        6.285330
 
 -0.4166667E+00  0.0000000E+00  0.1250000E+00  0.1736111E-02
    1      -15.720788
    2      -15.655353
    3      -11.240445
    4      -11.179822
    5       -8.126475
    6       -8.111817
    7       -7.150717
    8       -6.938383
    9       -5.479714
   10       -5.193448
   11       -3.773961
   12       -3.544767
   13        2.105515
   14        2.293903
   15        3.909079
   16        3.989968
   17        5.235911
   18        5.275890
   19        5.717440
   20        6.409073
 
 -0.3333333E+00  0.0000000E+00  0.1250000E+00  0.1736111E-02
    1      -15.755566
    2      -15.635876
    3      -11.209593
    4      -11.148593
    5       -8.134489
    6       -8.101310
    7       -7.226576
    8       -6.946335
    9       -5.506121
   10       -5.149168
   11       -3.761814
   12       -3.495708
   13        1.842833
   14        2.388846
   15        3.627548
   16        4.397844
   17        5.139698
   18        5.534018
   19        5.675384
   20        6.500571
 
 -0.2500000E+00  0.0000000E+00  0.1250000E+00  0.1736111E-02
    1      -15.788444
    2      -15.623469
    3      -11.164664
    4      -11.110519
    5       -8.145011
    6       -8.102113
    7       -7.297658
    8       -6.972427
    9       -5.501641
   10       -5.101794
   11       -3.746523
   12       -3.451833
   13        1.579557
   14        2.414661
   15        3.402822
   16        4.691335
   17        5.174208
   18        5.470853
   19        6.074544
   20        6.571811
 
 -0.1666667E+00  0.0000000E+00  0.1250000E+00  0.1736111E-02
    1      -15.815249
    2      -15.616754
    3      -11.117130