ethylene                                
           1
     4.902252    0.000000    0.000000
     0.000000    6.502783    0.000000
     0.000000    0.000000    4.167418
   C    H 
   4   8
Direct configuration=     1
   0.88344002  0.05382000  0.95924997
   0.11656000  0.94617999  0.04075000
   0.61655998  0.55382001  0.54075003
   0.38344002  0.44617999  0.45925000
   0.81309998  0.16980000  0.11850000
   0.18690000  0.83020002  0.88150001
   0.68690002  0.66979998  0.38150001
   0.31309998  0.33020002  0.61849999
   0.75699997  0.02870000  0.73109996
   0.24300000  0.97130001  0.26890001
   0.74300003  0.52869999  0.76890004
   0.25700000  0.47130001  0.23109999
Direct configuration=     2
   0.89848720  0.04143531  0.95256381
   0.10151281  0.95856468  0.04743617
   0.60151280  0.54143532  0.54743619
   0.39848720  0.45856468  0.45256384
   0.80797387  0.17593197  0.12507642
   0.19202611  0.82406805  0.87492359
   0.69202613  0.67593195  0.37492359
   0.30797387  0.32406805  0.62507641
   0.76764891  0.02890894  0.74602766
   0.23235106  0.97109107  0.25397231
   0.73235109  0.52890893  0.75397234
   0.26764894  0.47109107  0.24602769
Direct configuration=     3
   0.88716307  0.05075572  0.95759565
   0.11283695  0.94924427  0.04240433
   0.61283693  0.55075573  0.54240435
   0.38716307  0.44924427  0.45759568
   0.81183165  0.17131720  0.12012717
   0.18816833  0.82868281  0.87987284
   0.68816835  0.67131719  0.37987284
   0.31183165  0.32868281  0.62012716
   0.75963478  0.02875170  0.73479345
   0.24036519  0.97124831  0.26520652
   0.74036522  0.52875169  0.76520655
   0.25963481  0.47124831  0.23479348
Direct configuration=     4
   0.88585955  0.05202265  0.95861237
   0.11414046  0.94797734  0.04138760
   0.61414045  0.55202266  0.54138763
   0.38585955  0.44797734  0.45861240
   0.80978351  0.17232298  0.11963632
   0.19021648  0.82767704  0.88036369
   0.69021649  0.67232296  0.38036369
   0.30978351  0.32767704  0.61963631
   0.76967583  0.02789865  0.74654573
   0.23032414  0.97210136  0.25345424
   0.73032417  0.52789864  0.75345427
   0.26967586  0.47210136  0.24654576
Direct configuration=     5
   0.88628202  0.05161204  0.95828286
   0.11371800  0.94838795  0.04171712
   0.61371798  0.55161205  0.54171714
   0.38628202  0.44838795  0.45828289
   0.81044730  0.17199701  0.11979540
   0.18955268  0.82800300  0.88020461
   0.68955270  0.67199700  0.38020461
   0.31044730  0.32800300  0.61979539
   0.76642157  0.02817512  0.74273687
   0.23357840  0.97182489  0.25726310
   0.73357843  0.52817511  0.75726313
   0.26642160  0.47182489  0.24273690
Direct configuration=     6
   0.88936928  0.05374259  0.96718834
   0.11063074  0.94625740  0.03281164
   0.61063072  0.55374260  0.53281166
   0.38936928  0.44625740  0.46718837
   0.80884038  0.17241133  0.11862055
   0.19115961  0.82758868  0.88137945
   0.69115962  0.67241132  0.38137945
   0.30884038  0.32758868  0.61862055
   0.77284361  0.02651903  0.74777333
   0.22715636  0.97348098  0.25222664
   0.72715639  0.52651902  0.75222667
   0.27284364  0.47348098  0.24777336
Direct configuration=     7
   0.88808458  0.05285600  0.96348251
   0.11191544  0.94714398  0.03651747
   0.61191542  0.55285602  0.53651749
   0.38808458  0.44714398  0.46348254
   0.80950906  0.17223892  0.11910944
   0.19049092  0.82776109  0.88089056
   0.69049094  0.67223891  0.38089056
   0.30950906  0.32776109  0.61910944
   0.77017121  0.02720818  0.74567751
   0.22982876  0.97279183  0.25432246
   0.72982879  0.52720817  0.75432249
   0.27017124  0.47279183  0.24567754
Direct configuration=     8
   0.88780285  0.05336136  0.96420962
   0.11219716  0.94663863  0.03579036
   0.61219715  0.55336137  0.53579038
   0.38780285  0.44663863  0.46420965
   0.80886310  0.17329696  0.12061491
   0.19113689  0.82670306  0.87938510
   0.69113690  0.67329694  0.37938510
   0.30886310  0.32670306  0.62061490
   0.77113274  0.02651329  0.74543028
   0.22886723  0.97348671  0.25456969
   0.72886726  0.52651329  0.75456972
   0.27113277  0.47348671  0.24543031
Direct configuration=     9
   0.88760634  0.05371386  0.96471681
   0.11239368  0.94628612  0.03528316
   0.61239366  0.55371388  0.53528319
   0.38760634  0.44628612  0.46471684
   0.80841251  0.17403498  0.12166504
   0.19158747  0.82596504  0.87833497
   0.69158749  0.67403496  0.37833497
   0.30841251  0.32596504  0.62166503
   0.77180344  0.02602858  0.74525783
   0.22819653  0.97397143  0.25474214
   0.72819656  0.52602857  0.75474217
   0.27180347  0.47397143  0.24525786
Direct configuration=    10
   0.88825960  0.05331181  0.96472156
   0.11174041  0.94668817  0.03527841
   0.61174040  0.55331183  0.53527844
   0.38825960  0.44668817  0.46472159
   0.80850027  0.17426289  0.12235217
   0.19149971  0.82573712  0.87764784
   0.69149973  0.67426288  0.37764784
   0.30850027  0.32573712  0.62235216
   0.77211135  0.02576704  0.74508811
   0.22788862  0.97423297  0.25491186
   0.72788865  0.52576703  0.75491189
   0.27211138  0.47423297  0.24508814
Direct configuration=    11
   0.88781574  0.05358498  0.96471833
   0.11218427  0.94641500  0.03528164
   0.61218426  0.55358500  0.53528167
   0.38781574  0.44641500  0.46471836
   0.80844064  0.17410804  0.12188530
   0.19155934  0.82589198  0.87811471
   0.69155936  0.67410802  0.37811471
   0.30844064  0.32589198  0.62188529
   0.77190214  0.02594474  0.74520342
   0.22809783  0.97405526  0.25479655
   0.72809786  0.52594474  0.75479658
   0.27190217  0.47405526  0.24520345
