   12   12  200    1
  0.1150500E+02  0.4965514E-09  0.6586699E-09  0.4221197E-09  0.5000000E-15
  1.000000000000000E-004
  CAR 
 ethylene                                
     24    350     19
 
  0.0000000E+00  0.0000000E+00  0.0000000E+00  0.8680556E-03
    1      -15.952812
    2      -15.740923
    3      -11.204347
    4      -11.194305
    5       -8.242152
    6       -8.188253
    7       -7.501200
    8       -7.188820
    9       -5.471535
   10       -5.128818
   11       -3.822456
   12       -3.578959
   13        1.022861
   14        2.243693
   15        2.709813
   16        4.227200
   17        5.135263
   18        6.322782
   19        6.579476
 
  0.8333333E-01  0.0000000E+00  0.0000000E+00  0.1736111E-02
    1      -15.947006
    2      -15.742007
    3      -11.215132
    4      -11.203967
    5       -8.243522
    6       -8.186979
    7       -7.482428
    8       -7.180917
    9       -5.473620
   10       -5.141051
   11       -3.821237
   12       -3.590500
   13        1.067617
   14        2.259096
   15        2.719556
   16        4.238455
   17        5.165980
   18        5.991181
   19        6.479983
 
  0.1666667E+00  0.0000000E+00  0.0000000E+00  0.1736111E-02
    1      -15.930336
    2      -15.745705
    3      -11.244059
    4      -11.230559
    5       -8.245019
    6       -8.183974
    7       -7.431547
    8       -7.161106
    9       -5.477639
   10       -5.175606
   11       -3.818070
   12       -3.622001
   13        1.195979
   14        2.292951
   15        2.760978
   16        4.270638
   17        5.252528
   18        5.461780
   19        6.207232
 
  0.2500000E+00  0.0000000E+00  0.0000000E+00  0.1736111E-02
    1      -15.904952
    2      -15.753263
    3      -11.282260
    4      -11.267461
    5       -8.241905
    6       -8.181538
    7       -7.361424
    8       -7.139457
    9       -5.477874
   10       -5.226802
   11       -3.813740
   12       -3.665508
   13        1.390737
   14        2.313877
   15        2.861401
   16        4.311655
   17        4.958086
   18        5.379133
   19        5.839755
 
  0.3333333E+00  0.0000000E+00  0.0000000E+00  0.1736111E-02
    1      -15.874095
    2      -15.766160
    3      -11.318523
    4      -11.305480
    5       -8.232023
    6       -8.182518
    7       -7.286238
    8       -7.127822
    9       -5.467606
   10       -5.286819
   11       -3.807797
   12       -3.711215
   13        1.624798
   14        2.293212
   15        3.035717
   16        4.252040
   17        4.631451
   18        5.417891
   19        5.574558
 
  0.4166667E+00  0.0000000E+00  0.0000000E+00  0.1736111E-02
    1      -15.841576
    2      -15.785440
    3      -11.342790
    4      -11.335091
    5       -8.217119
    6       -8.189068
    7       -7.218069
    8       -7.135332
    9       -5.442253
   10       -5.347420
   11       -3.797725
   12       -3.750805
   13        1.863303
   14        2.214721
   15        3.277815
   16        3.927088
   17        4.667688
   18        5.103260
   19        5.720687
 
  0.5000000E+00  0.0000000E+00  0.0000000E+00  0.8680556E-03
    1      -15.811081
    2      -15.811080
    3      -11.348755
    4      -11.348755
    5       -8.201393
    6       -8.201393
    7       -7.165903
    8       -7.165903
    9       -5.401160
   10       -5.401160
   11       -3.779718
   12       -3.779717
   13        2.069109
   14        2.069110
   15        3.578544
   16        3.578544
   17        4.843876
   18        4.843877
   19        5.886461
 
  0.0000000E+00  0.8333333E-01  0.0000000E+00  0.1736111E-02
    1      -15.949354
    2      -15.744696
    3      -11.203788
    4      -11.194065
    5       -8.243301
    6       -8.191702
    7       -7.494354
    8       -7.193055
    9       -5.465836
   10       -5.134889
   11       -3.816647
   12       -3.581056
   13        1.040819
   14        2.225272
   15        2.715583
   16        4.177301
   17        5.165727
   18        6.333604
   19        6.565750
 
  0.8333333E-01  0.8333333E-01  0.0000000E+00  0.3472222E-02
    1      -15.943649
    2      -15.745639
    3      -11.214844
    4      -11.203670
    5       -8.244651
    6       -8.189681
    7       -7.476095
    8       -7.185106
    9       -5.467895
   10       -5.146616
   11       -3.816349
   12       -3.592642
   13        1.085098
   14        2.242156
   15        2.724697
   16        4.190995
   17        5.194026
   18        5.999799
   19        6.481630
 
  0.1666667E+00  0.8333333E-01  0.0000000E+00  0.3472222E-02
    1      -15.927276
    2      -15.748940
    3      -11.244278
    4      -11.230333
    5       -8.245751
    6       -8.185209
    7       -7.426452
    8       -7.165140
    9       -5.471895
   10       -5.179797
   11       -3.815647
   12       -3.624345
   13        1.212104
   14        2.280951
   15        2.763763
   16        4.229830
   17        5.270936
   18        5.476679
   19        6.188995
 
  0.2500000E+00  0.8333333E-01  0.0000000E+00  0.3472222E-02
    1      -15.902388
    2      -15.755863
    3      -11.282909
    4      -11.267568
    5       -8.241797
    6       -8.181457
    7       -7.357802
    8       -7.143070
    9       -5.472261
   10       -5.229091
   11       -3.814518
   12       -3.668307
   13        1.404840
   14        2.309537
   15        2.860728
   16        4.283703
   17        4.953824
   18        5.410861
   19        5.804792
 
  0.3333333E+00  0.8333333E-01  0.0000000E+00  0.3472222E-02
    1      -15.872208
    2      -15.767941
    3      -11.319474
    4      -11.306020
    5       -8.231007
    6       -8.181482
    7       -7.284052
    8       -7.130688
    9       -5.462410
   10       -5.287063
   11       -3.811437
   12       -3.714825
   13        1.636522
   14        2.295393
   15        3.034174
   16        4.262876
   17        4.593059
   18        5.416067
   19        5.570229
 
  0.4166667E+00  0.8333333E-01  0.0000000E+00  0.3472222E-02
    1      -15.840515
    2      -15.786286
    3      -11.343898
    4      -11.335995
    5       -8.215478
    6       -8.187445
    7       -7.217251
    8       -7.137123
    9       -5.437850
   10       -5.345777
   11       -3.803012
   12       -3.755467
   13        1.872706
   14        2.220389
   15        3.279921
   16        3.944200
   17        4.624013
   18        5.075594
   19        5.748252
 
  0.5000000E+00  0.8333333E-01  0.0000000E+00  0.1736111E-02
    1      -15.810949
    2      -15.810948
    3      -11.349850
    4      -11.349849
    5       -8.199549
    6       -8.199549
    7       -7.166411
    8       -7.166410
    9       -5.397940
   10       -5.397940
   11       -3.785183
   12       -3.785183
   13        2.076639
   14        2.076640
   15        3.587627
   16        3.587627
   17        4.808242
   18        4.808243
   19        5.931089
 
  0.0000000E+00  0.1666667E+00  0.0000000E+00  0.1736111E-02
    1      -15.939184
    2      -15.755717
    3      -11.202213
    4      -11.193450
    5       -8.246292
    6       -8.201101
    7       -7.474785
    8       -7.205657
    9       -5.449101
   10       -5.152620
   11       -3.799902
   12       -3.587697
   13        1.094049
   14        2.165556
   15        2.741718
   16        4.042574
   17        5.250803
   18        6.356685
   19        6.553170
 
  0.8333333E-01  0.1666667E+00  0.0000000E+00  0.3472222E-02
    1      -15.933773
    2      -15.756261
    3      -11.213917
    4      -11.202992
    5       -8.247421
    6       -8.197289
    7       -7.457867
    8       -7.197582
    9       -5.451114
   10       -5.162973
   11       -3.802045
   12       -3.599450
   13        1.136943
   14        2.185776
   15        2.750142
   16        4.061134
   17        5.273098
   18        6.021028
   19        6.493585
 
  0.1666667E+00  0.1666667E+00  0.0000000E+00  0.3472222E-02
    1      -15.918286
    2      -15.758402
    3      -11.244536
    4      -11.230046
    5       -8.247139
    6       -8.189222
    7       -7.411567
    8       -7.177094
    9       -5.455149
   10       -5.192378
   11       -3.807919
   12       -3.631795
   13        1.260027
   14        2.236263
   15        2.785332
   16        4.113636
   17        5.325488
   18        5.512930
   19        6.168808
 
  0.2500000E+00  0.1666667E+00  0.0000000E+00  0.3472222E-02
    1      -15.894863
    2      -15.763482
    3      -11.284284
    4      -11.268247
    5       -8.240758
    6       -8.182002
    7       -7.347035
    8       -7.153743
    9       -5.455969
   10       -5.236346
   11       -3.815393
   12       -3.677129
   13        1.446935
   14        2.285701
   15        2.873988
   16        4.192814
   17        4.963522
   18        5.450406
   19        5.787494
 
  0.3333333E+00  0.1666667E+00  0.0000000E+00  0.3472222E-02
    1      -15.866677
    2      -15.773175
    3      -11.321744
    4      -11.307809
    5       -8.227620
    6       -8.179281
    7       -7.277442
    8       -7.139081
    9       -5.447449
   10       -5.288457
   11       -3.820228
   12       -3.725852
   13        1.671636
   14        2.293044
   15        3.042454
   16        4.265517
   17        4.520296
   18        5.315123
   19        5.683934
 
  0.4166667E+00  0.1666667E+00  0.0000000E+00  0.3472222E-02
    1      -15.837423
    2      -15.788789
    3      -11.346749
    4      -11.338626
    5       -8.210670
    6       -8.183347
    7       -7.214701
    8       -7.142324
    9       -5.425334
   10       -5.341608
   11       -3.816785
   12       -3.769033
   13        1.900499
   14        2.232233
   15        3.294004
   16        3.992156
   17        4.509295
   18        4.987117
   19        5.853804
 
  0.5000000E+00  0.1666667E+00  0.0000000E+00  0.1736111E-02
    1      -15.810600
    2      -15.810599
    3      -11.352846
    4      -11.352846
    5       -8.194521
    6       -8.194521
    7       -7.167842
    8       -7.167842
    9       -5.389047
   10       -5.389047
   11       -3.800231
   12       -3.800231
   13        2.097174
   14        2.097175
   15        3.616410
   16        3.616410
   17        4.710965
   18        4.710966
   19        6.054909
 
  0.0000000E+00  0.2500000E+00  0.0000000E+00  0.1736111E-02
    1      -15.922909
    2      -15.773138
    3      -11.199930
    4      -11.192725
    5       -8.249852
    6       -8.214080
    7       -7.444992
    8       -7.226286
    9       -5.422405
   10       -5.180596
   11       -3.774096
   12       -3.599755
   13        1.180536
   14        2.061365
   15        2.802916
   16        3.853765
   17        5.380309
   18        6.362082
   19        6.565104
 
  0.8333333E-01  0.2500000E+00  0.0000000E+00  0.3472222E-02
    1      -15.917984
    2      -15.773067
    3      -11.212281
    4      -11.202435
    5       -8.250263
    6       -8.208418
    7       -7.429839
    8       -7.217963
    9       -5.424442
   10       -5.189077
   11       -3.779447
   12       -3.611810
   13        1.221285
   14        2.084883
   15        2.812435
   16        3.876142
   17        5.393633
   18        6.042389
   19        6.522309
 
  0.1666667E+00  0.2500000E+00  0.0000000E+00  0.3472222E-02
    1      -15.903941
    2      -15.773399
    3      -11.244150
    4      -11.230408
    5       -8.247386
    6       -8.196411
    7       -7.388137
    8       -7.196487
    9       -5.428754
   10       -5.213254
   11       -3.793996
   12       -3.645221
   13        1.338307
   14        2.147578
   15        2.848215
   16        3.939775
   17        5.407775
   18        5.555115
   19        6.187764
 
  0.2500000E+00  0.2500000E+00  0.0000000E+00  0.3472222E-02
    1      -15.882883
    2      -15.775594
    3      -11.285310
    4      -11.270041
    5       -8.237477
    6       -8.184781
    7       -7.329594
    8       -7.170925
    9       -5.430643
   10       -5.249522
   11       -3.813093
   12       -3.692578
   13        1.516113
   14        2.222979
   15        2.930987
   16        4.038227
   17        5.005817
   18        5.418324
   19        5.896687
 
  0.3333333E+00  0.2500000E+00  0.0000000E+00  0.3472222E-02
    1      -15.857905
    2      -15.781542
    3      -11.324135
    4      -11.310960
    5       -8.221455
    6       -8.177947
    7       -7.266400
    8       -7.152475
    9       -5.424592
   10       -5.292722
   11       -3.829200
   12       -3.744057
   13        1.729500
   14        2.266353
   15        3.088989
   16        4.168640
   17        4.519967
   18        5.174152
   19        5.885774
 
  0.4166667E+00  0.2500000E+00  0.0000000E+00  0.3472222E-02
    1      -15.832563
    2      -15.792838
    3      -11.350234
    4      -11.342604
    5       -8.203224
    6       -8.178652
    7       -7.210161
    8       -7.150465
    9       -5.406752
   10       -5.337003
   11       -3.833871
   12       -3.789620
   13        1.945008
   14        2.237551
   15        3.337626
   16        4.063085
   17        4.349277
   18        4.854263
   19        6.037136
 
  0.5000000E+00  0.2500000E+00  0.0000000E+00  0.1736111E-02
    1      -15.810121
    2      -15.810121
    3      -11.356924
    4      -11.356924
    5       -8.187657
    6       -8.187657
    7       -7.169820
    8       -7.169819
    9       -5.376632
   10       -5.376632
   11       -3.821027
   12       -3.821027
   13        2.125181
   14        2.125181
   15        3.668478
   16        3.668478
   17        4.571835
   18        4.571835
   19        6.236812
 
  0.0000000E+00  0.3333333E+00  0.0000000E+00  0.1736111E-02
    1      -15.901542
    2      -15.795655
    3      -11.197383
    4      -11.192259
    5       -8.252329
    6       -8.227775
    7       -7.408234
    8       -7.254261
    9       -5.387490
   10       -5.216683
   11       -3.742112
   12       -3.618067
   13        1.296770
   14        1.921332
   15        2.905187
   16        3.640021
   17        5.546826
   18        6.302383
   19        6.606197
 
  0.8333333E-01  0.3333333E+00  0.0000000E+00  0.3472222E-02
    1      -15.897262
    2      -15.794806
    3      -11.210040
    4      -11.202479
    5       -8.251313
    6       -8.221108
    7       -7.394887
    8       -7.245500
    9       -5.389728
   10       -5.223244
   11       -3.750553
   12       -3.630484
   13        1.334831
   14        1.947677
   15        2.917722
   16        3.663813
   17        5.545685
   18        6.043356
   19        6.560083
 
  0.1666667E+00  0.3333333E+00  0.0000000E+00  0.3472222E-02
    1      -15.885148
    2      -15.792846
    3      -11.242721
    4      -11.231820
    5       -8.244828
    6       -8.206428
    7       -7.358090
    8       -7.222453
    9       -5.394856
   10       -5.241821
   11       -3.773586
   12       -3.665005
   13        1.444213
   14        2.020724
   15        2.959846
   16        3.732100
   17        5.497699
   18        5.591847
   19        6.258750
 
  0.2500000E+00  0.3333333E+00  0.0000000E+00  0.3472222E-02
    1      -15.867238
    2      -15.791366
    3      -11.285152
    4      -11.273021
    5       -8.231092
    6       -8.190804
    7       -7.306410
    8       -7.193641
    9       -5.398781
   10       -5.269430
   11       -3.804484
   12       -3.714157
   13        1.610289
   14        2.119604
   15        3.044519
   16        3.838993
   17        5.070775
   18        5.352645
   19        6.094404
 
  0.3333333E+00  0.3333333E+00  0.0000000E+00  0.3472222E-02
    1      -15.846524
    2      -15.792512
    3      -11.325523
    4      -11.315102
    5       -8.212699
    6       -8.179312
    7       -7.251159
    8       -7.169926
    9       -5.396698
   10       -5.301949
   11       -3.833023
   12       -3.767452
   13        1.808076
   14        2.203877
   15        3.192796
   16        3.981644
   17        4.592079
   18        5.038004
   19        6.132372
 
  0.4166667E+00  0.3333333E+00  0.0000000E+00  0.3472222E-02
    1      -15.826350
    2      -15.798247
    3      -11.353149
    4      -11.347140
    5       -8.194315
    6       -8.175452
    7       -7.203452
    8       -7.160798
    9       -5.385230
   10       -5.334876
   11       -3.848161
   12       -3.813413
   13        2.002633
   14        2.223929
   15        3.425941
   16        4.110630
   17        4.203171
   18        4.704345
   19        6.270629
 
  0.5000000E+00  0.3333333E+00  0.0000000E+00  0.1736111E-02
    1      -15.809644
    2      -15.809643
    3      -11.360992
    4      -11.360992
    5       -8.180771
    6       -8.180770
    7       -7.171829
    8       -7.171828
    9       -5.363880
   10       -5.363880
   11       -3.842096
   12       -3.842096
   13        2.153059
   14        2.153059
   15        3.746125
   16        3.746125
   17        4.411918
   18        4.411919
   19        6.451192
 
  0.0000000E+00  0.4166667E+00  0.0000000E+00  0.1736111E-02
    1      -15.876419
    2      -15.821616
    3      -11.195051
    4      -11.192386
    5       -8.252092
    6       -8.239645
    7       -7.367879
    8       -7.288423
    9       -5.346675
   10       -5.258317
   11       -3.707382
   12       -3.642884
   13        1.437513
   14        1.760950
   15        3.046768
   16        3.424040
   17        5.742459
   18        6.154699
   19        6.674015
 
  0.8333333E-01  0.4166667E+00  0.0000000E+00  0.3472222E-02
    1      -15.872919
    2      -15.819891
    3      -11.207520
    4      -11.203395
    5       -8.249109
    6       -8.233253
    7       -7.356135
    8       -7.278969
    9       -5.349395
   10       -5.263189
   11       -3.718146
   12       -3.655431
   13        1.472585
   14        1.790058
   15        3.063215
   16        3.446919
   17        5.715135
   18        5.994035
   19        6.593633
 
  0.1666667E+00  0.4166667E+00  0.0000000E+00  0.3472222E-02
    1      -15.863122
    2      -15.815345
    3      -11.240293
    4      -11.234241
    5       -8.238722
    6       -8.218015
    7       -7.323879
    8       -7.253635
    9       -5.356178
   10       -5.276720
   11       -3.747739
   12       -3.690294
   13        1.573346
   14        1.872504
   15        3.114572
   16        3.513583
   17        5.570542
   18        5.613756
   19        6.379376
 
  0.2500000E+00  0.4166667E+00  0.0000000E+00  0.3472222E-02
    1      -15.848987
    2      -15.809713
    3      -11.283493
    4      -11.276751
    5       -8.221827
    6       -8.199909
    7       -7.279094
    8       -7.220514
    9       -5.363530
   10       -5.296086
   11       -3.788325
   12       -3.739702
   13        1.725554
   14        1.991384
   15        3.206699
   16        3.620206
   17        5.143427
   18        5.284452
   19        6.331113
 
  0.3333333E+00  0.4166667E+00  0.0000000E+00  0.3472222E-02
    1      -15.833352
    2      -15.805389
    3      -11.325225
    4      -11.319449
    5       -8.202442
    6       -8.184227
    7       -7.232467
    8       -7.190165
    9       -5.367294
   10       -5.317658
   11       -3.828159
   12       -3.792278
   13        1.903179
   14        2.112740
   15        3.350653
   16        3.764508
   17        4.688964
   18        4.912798
   19        6.400473
 
  0.4166667E+00  0.4166667E+00  0.0000000E+00  0.3472222E-02
    1      -15.819279
    2      -15.804727
    3      -11.354523
    4      -11.351203
    5       -8.185598
    6       -8.175299
    7       -7.194575
    8       -7.172321
    9       -5.364477
   10       -5.337995
   11       -3.854467
   12       -3.835227
   13        2.067593
   14        2.187213
   15        3.562332
   16        3.935647
   17        4.285028
   18        4.553914
   19        6.520148
 
  0.5000000E+00  0.4166667E+00  0.0000000E+00  0.1736111E-02
    1      -15.809294
    2      -15.809293
    3      -11.363961
    4      -11.363961
    5       -8.175729
    6       -8.175729
    7       -7.173324
    8       -7.173323
    9       -5.354330
   10       -5.354330
   11       -3.857711
   12       -3.857710
   13        2.173344
   14        2.173344
   15        3.842170
   16        3.842170
   17        4.257777
   18        4.257777
   19        6.654408
 
  0.0000000E+00  0.5000000E+00  0.0000000E+00  0.8680556E-03
    1      -15.849174
    2      -15.849174
    3      -11.193318
    4      -11.193318
    5       -8.247988
    6       -8.247988
    7       -7.327053
    8       -7.327053
    9       -5.302648
   10       -5.302648
   11       -3.673335
   12       -3.673334
   13        1.595482
   14        1.595482
   15        3.222390
   16        3.222390
   17        5.953649
   18        5.953650
   19        6.762526
 
  0.8333333E-01  0.5000000E+00  0.0000000E+00  0.1736111E-02
    1      -15.846538
    2      -15.846538
    3      -11.205163
    4      -11.205163
    5       -8.242985
    6       -8.242985
    7       -7.316595
    8       -7.316594
    9       -5.306219
   10       -5.306219
   11       -3.685420
   12       -3.685420
   13        1.627517
   14        1.627518
   15        3.242583
   16        3.242583
   17        5.876965
   18        5.876965
   19        6.624072
 
  0.1666667E+00  0.5000000E+00  0.0000000E+00  0.1736111E-02
    1      -15.839320
    2      -15.839320
    3      -11.237267
    4      -11.237267
    5       -8.229377
    6       -8.229376
    7       -7.288202
    8       -7.288201
    9       -5.315770
   10       -5.315769
   11       -3.718910
   12       -3.718909
   13        1.719181
   14        1.719181
   15        3.302935
   16        3.302936
   17        5.609692
   18        5.609692
   19        6.532768
 
  0.2500000E+00  0.5000000E+00  0.0000000E+00  0.1736111E-02
    1      -15.829368
    2      -15.829367
    3      -11.280501
    4      -11.280501
    5       -8.210851
    6       -8.210850
    7       -7.249712
    8       -7.249712
    9       -5.328252
   10       -5.328252
   11       -3.765724
   12       -3.765723
   13        1.855662
   14        1.855662
   15        3.403612
   16        3.403612
   17        5.215347
   18        5.215348
   19        6.569684
 
  0.3333333E+00  0.5000000E+00  0.0000000E+00  0.1736111E-02
    1      -15.819319
    2      -15.819319
    3      -11.323080
    4      -11.323080
    5       -8.192366
    6       -8.192365
    7       -7.211600
    8       -7.211599
    9       -5.339967
   10       -5.339967
   11       -3.813875
   12       -3.813874
   13        2.008024
   14        2.008024
   15        3.547270
   16        3.547270
   17        4.796800
   18        4.796800
   19        6.651122
 
  0.4166667E+00  0.5000000E+00  0.0000000E+00  0.1736111E-02
    1      -15.811896
    2      -15.811895
    3      -11.353857
    4      -11.353856
    5       -8.178831
    6       -8.178831
    7       -7.183932
    8       -7.183931
    9       -5.347974
   10       -5.347974
   11       -3.850024
   12       -3.850024
   13        2.132151
   14        2.132151
   15        3.737875
   16        3.737875
   17        4.411918
   18        4.411918
   19        6.722528
 
  0.5000000E+00  0.5000000E+00  0.0000000E+00  0.8680556E-03
    1      -15.809162
    2      -15.809161
    3      -11.365040
    4      -11.365040
    5       -8.173862
    6       -8.173862
    7       -7.173857
    8       -7.173856
    9       -5.350765
   10       -5.350765
   11       -3.863444
   12       -3.863444
   13        2.180751
   14        2.180751
   15        3.903657
   16        3.903657
   17        4.175408
   18        4.175409
   19        6.750532
 
  0.0000000E+00  0.0000000E+00  0.1250000E+00  0.1736111E-02
    1      -15.933149
    2      -15.736338
    3      -11.193045
    4      -11.182796
    5       -8.313738
    6       -8.253161
    7       -7.452431
    8       -7.182331
    9       -5.490793
   10       -5.172764
   11       -3.836879
   12       -3.589330
   13        1.041271
   14        2.200791
   15        2.805475
   16        4.315097
   17        5.085327
   18        6.115440
   19        6.364018
 
  0.8333333E-01  0.0000000E+00  0.1250000E+00  0.1736111E-02
    1      -15.926773
    2      -15.737700
    3      -11.200551
    4      -11.198598
    5       -8.327956
    6       -8.256951
    7       -7.403419
    8       -7.180837
    9       -5.454266
   10       -5.193425
   11       -3.828461
   12       -3.639477
   13        1.061134
   14        2.218512
   15        2.753229
   16        4.268886
   17        5.135860
   18        5.852693
   19        6.641801
 
  0.1666667E+00  0.0000000E+00  0.1250000E+00  0.1736111E-02
    1      -15.910113
    2      -15.741259
    3      -11.234097
    4      -11.221985
    5       -8.332396
    6       -8.256121
    7       -7.335281
    8       -7.168477
    9       -5.427076
   10       -5.238728
   11       -3.817827
   12       -3.705411
   13        1.161933
   14        2.267897
   15        2.737379
   16        4.268442
   17        5.229118
   18        5.510794
   19        6.477706
 
  0.2500000E+00  0.0000000E+00  0.1250000E+00  0.1736111E-02
    1      -15.885356
    2      -15.748253
    3      -11.276063
    4      -11.254729
    5       -8.324172
    6       -8.251967
    7       -7.260723
    8       -7.155539
    9       -5.408477
   10       -5.304041
   11       -3.803524
   12       -3.774128
   13        1.329517
   14        2.328289
   15        2.774989
   16        4.315184
   17        5.147858
   18        5.350997
   19        6.172458
 
  0.3333333E+00  0.0000000E+00  0.1250000E+00  0.1736111E-02
    1      -15.855710
    2      -15.760173
    3      -11.316885
    4      -11.286140
    5       -8.304741
    6       -8.246942
    7       -7.191055
    8       -7.153887
    9       -5.393927
   10       -5.381048
   11       -3.833059
   12       -3.784158
   13        1.541976
   14        2.354248
   15        2.894587
   16        4.398361
   17        4.780690
   18        5.464858
   19        5.928836
 
  0.4166667E+00  0.0000000E+00  0.1250000E+00  0.1736111E-02
    1      -15.824916
    2      -15.778087
    3      -11.347112
    4      -11.306676
    5       -8.279132
    6       -8.243714
    7       -7.172343
    8       -7.134926
    9       -5.459358
   10       -5.377371
   11       -3.873604
   12       -3.757961
   13        1.770028
   14        2.304909
   15        3.111179
   16        4.329286
   17        4.618169
   18        5.445936
   19        5.754708
 
  0.5000000E+00  0.0000000E+00  0.1250000E+00  0.1736111E-02
    1      -15.802005
    2      -15.796506
    3      -11.359585
    4      -11.310428
    5       -8.254026
    6       -8.244095
    7       -7.213642
    8       -7.097928
    9       -5.528114
   10       -5.353836
   11       -3.892943
   12       -3.723491
   13        1.979275
   14        2.170072
   15        3.413395
   16        3.998258
   17        4.796417
   18        5.274896
   19        5.614217
 
 -0.4166667E+00  0.0000000E+00  0.1250000E+00  0.1736111E-02
    1      -15.830539
    2      -15.773137
    3      -11.351183
    4      -11.296432
    5       -8.248459
    6       -8.235497
    7       -7.273771
    8       -7.082799
    9       -5.577615
   10       -5.321316
   11       -3.894091
   12       -3.681344
   13        1.962852
   14        2.138061
   15        3.677355
   16        3.783377
   17        5.070297
   18        5.097652
   19        5.486619
 
 -0.3333333E+00  0.0000000E+00  0.1250000E+00  0.1736111E-02
    1      -15.860969
    2      -15.756070
    3      -11.323697
    4      -11.268561
    5       -8.256018
    6       -8.226870
    7       -7.343076
    8       -7.088917
    9       -5.601220
   10       -5.281330
   11       -3.883706
   12       -3.635653
   13        1.715092
   14        2.229865
   15        3.397364
   16        4.191588
   17        4.960352
   18        5.323368
   19        5.472368
 
 -0.2500000E+00  0.0000000E+00  0.1250000E+00  0.1736111E-02
    1      -15.889776
    2      -15.745160
    3      -11.283814
    4      -11.234431
    5       -8.266111
    6       -8.227920
    7       -7.408341
    8       -7.111604
    9       -5.597632
   10       -5.238835
   11       -3.869134
   12       -3.594369
   13        1.466833
   14        2.258342
   15        3.171886
   16        4.502848
   17        4.979229
   18        5.226831
   19        5.887096
 
 -0.1666667E+00  0.0000000E+00  0.1250000E+00  0.1736111E-02
    1      -15.913299
    2      -15.739218
    3      -11.241716
    4      -11.203403
    5       -8.279132
    6       -8.235489
    7       -7.455049
    8       -7.141792
    9       -5.571695
   10       -5.201225
   11       -3.855644
   12       -3.567608
   13        1.255043
   14        2.243315
   15        3.005238
   16        4.495014
   17        5.136101
   18        5.354350
   19        6.323793
 
 -0.8333333E-01  0.0000000E+00  0.1250000E+00  0.1736111E-02
    1      -15.928437
    2      -15.736698
    3      -11.208549
    4      -11.184231
    5       -8.295662
    6       -8.245212
    7       -7.471256
    8       -7.168358
    9       -5.532656
   10       -5.176791
   11       -3.845195
   12       -3.564465
   13        1.107634
   14        2.214548
   15        2.887794
   16        4.398149
   17        5.085382
   18        5.822424
   19        6.434537
 
  0.0000000E+00  0.8333333E-01  0.1250000E+00  0.3472222E-02
    1      -15.929914
    2      -15.739817
    3      -11.192680
    4      -11.182648
    5       -8.314391
    6       -8.255312
    7       -7.447451
    8       -7.186356
    9       -5.485278
   10       -5.178012
   11       -3.831561
   12       -3.591948
   13        1.058308
   14        2.181665
   15        2.815330
   16        4.268436
   17        5.106320
   18        6.154740