       N       E                     dE             d eps       ncg     rms          rms(c)
DAV:   1     0.887543006116E+02    0.88754E+02   -0.12361E+04 13300   0.143E+03
DAV:   2    -0.566760768057E+02   -0.14543E+03   -0.14233E+03 16988   0.219E+02
DAV:   3    -0.694559420160E+02   -0.12780E+02   -0.12731E+02 17227   0.661E+01
DAV:   4    -0.696566454431E+02   -0.20070E+00   -0.20057E+00 17134   0.976E+00
DAV:   5    -0.696600402099E+02   -0.33948E-02   -0.33944E-02 18012   0.117E+00    0.121E+01
DAV:   6    -0.644427650088E+02    0.52173E+01   -0.89935E+00 14140   0.153E+01    0.575E+00
DAV:   7    -0.635567255909E+02    0.88604E+00   -0.23868E+00 17500   0.833E+00    0.243E+00
DAV:   8    -0.634722498671E+02    0.84476E-01   -0.26869E-01 16281   0.316E+00    0.368E-01
DAV:   9    -0.634676216073E+02    0.46283E-02   -0.40041E-02 15790   0.112E+00    0.144E-01
DAV:  10    -0.634697236114E+02   -0.21020E-02   -0.26626E-03 14994   0.398E-01    0.447E-02
DAV:  11    -0.634700958074E+02   -0.37220E-03   -0.35406E-04 15757   0.166E-01    0.166E-02
DAV:  12    -0.634701099981E+02   -0.14191E-04   -0.25755E-05 17377   0.363E-02    0.367E-03
DAV:  13    -0.634701152999E+02   -0.53018E-05   -0.10017E-05 15418   0.237E-02    0.187E-03
DAV:  14    -0.634701155062E+02   -0.20631E-06   -0.68570E-07 16537   0.581E-03    0.515E-04
DAV:  15    -0.634701155771E+02   -0.70888E-07   -0.77228E-08 16023   0.218E-03    0.189E-04
DAV:  16    -0.634701155654E+02    0.11646E-07   -0.66825E-09 14415   0.689E-04    0.536E-05
DAV:  17    -0.634701155704E+02   -0.49486E-08   -0.70361E-10  9284   0.234E-04
   1 F= -.63470116E+02 E0= -.63470116E+02  d E =-.634701E+02
       N       E                     dE             d eps       ncg     rms          rms(c)
DAV:   1    -0.616227960164E+02    0.18473E+01   -0.18294E+02 13612   0.954E+01    0.371E+00
DAV:   2    -0.616103495187E+02    0.12446E-01   -0.42086E+00 17904   0.150E+01    0.274E+00
DAV:   3    -0.615154371189E+02    0.94912E-01   -0.15908E+00 15186   0.791E+00    0.110E+00
DAV:   4    -0.614638171858E+02    0.51620E-01   -0.32950E-01 14958   0.363E+00    0.521E-01
DAV:   5    -0.614637766529E+02    0.40533E-04   -0.21268E-02 16502   0.108E+00    0.127E-01
DAV:   6    -0.614637197629E+02    0.56890E-04   -0.13773E-03 17216   0.235E-01    0.590E-02
DAV:   7    -0.614637526050E+02   -0.32842E-04   -0.75284E-04 17067   0.164E-01    0.321E-02
DAV:   8    -0.614637222531E+02    0.30352E-04   -0.95218E-05 15331   0.566E-02    0.110E-02
DAV:   9    -0.614637221300E+02    0.12309E-06   -0.27772E-05 17340   0.323E-02    0.329E-03
DAV:  10    -0.614637221264E+02    0.35374E-08   -0.14207E-06 16015   0.893E-03    0.194E-03
DAV:  11    -0.614637220550E+02    0.71460E-07   -0.33841E-07 16984   0.368E-03    0.544E-04
DAV:  12    -0.614637220486E+02    0.63726E-08   -0.73026E-08 16396   0.176E-03
   2 F= -.61971956E+02 E0= -.61971956E+02  d E =0.149816E+01
       N       E                     dE             d eps       ncg     rms          rms(c)
DAV:   1    -0.638697500238E+02   -0.24060E+01   -0.74204E+01 13300   0.637E+01    0.261E+00
DAV:   2    -0.637916355322E+02    0.78114E-01   -0.15026E+00 17732   0.876E+00    0.167E+00
DAV:   3    -0.637460683935E+02    0.45567E-01   -0.29856E-01 16414   0.339E+00    0.453E-01
DAV:   4    -0.637448127128E+02    0.12557E-02   -0.38842E-02 15196   0.118E+00    0.303E-01
DAV:   5    -0.637437609709E+02    0.10517E-02   -0.44175E-03 16454   0.531E-01    0.451E-02
DAV:   6    -0.637437820692E+02   -0.21098E-04   -0.67409E-04 16718   0.171E-01    0.302E-02
DAV:   7    -0.637437650948E+02    0.16974E-04   -0.78932E-05 15323   0.661E-02    0.735E-03
DAV:   8    -0.637437660010E+02   -0.90625E-06   -0.21345E-05 18032   0.272E-02    0.252E-03
DAV:   9    -0.637437666090E+02   -0.60794E-06   -0.95223E-07 14910   0.759E-03    0.120E-03
DAV:  10    -0.637437666454E+02   -0.36464E-07   -0.69154E-08 18792   0.178E-03    0.542E-04
DAV:  11    -0.637437666808E+02   -0.35374E-07   -0.32950E-08 14905   0.138E-03    0.157E-04
DAV:  12    -0.637437666836E+02   -0.28410E-08   -0.27536E-09 10023   0.360E-04
   3 F= -.64254328E+02 E0= -.64254328E+02  d E =-.784213E+00
       N       E                     dE             d eps       ncg     rms          rms(c)
DAV:   1    -0.637792876166E+02   -0.35521E-01   -0.18291E+00 13558   0.976E+00    0.352E-01
DAV:   2    -0.637783727628E+02    0.91485E-03   -0.30665E-02 18058   0.124E+00    0.245E-01
DAV:   3    -0.637774138195E+02    0.95894E-03   -0.79592E-03 16097   0.562E-01    0.647E-02
DAV:   4    -0.637773523014E+02    0.61518E-04   -0.17169E-03 15009   0.252E-01    0.561E-02
DAV:   5    -0.637773045781E+02    0.47723E-04   -0.20339E-04 15372   0.111E-01    0.709E-03
DAV:   6    -0.637773049888E+02   -0.41074E-06   -0.20303E-05 17439   0.335E-02    0.405E-03
DAV:   7    -0.637773046362E+02    0.35261E-06   -0.15156E-06 15817   0.880E-03    0.167E-03
DAV:   8    -0.637773045737E+02    0.62559E-07   -0.52426E-07 16943   0.445E-03    0.464E-04
DAV:   9    -0.637773045807E+02   -0.70133E-08   -0.47104E-08 15064   0.160E-03
   4 F= -.64288404E+02 E0= -.64288404E+02  d E =-.818289E+00
       N       E                     dE             d eps       ncg     rms          rms(c)
DAV:   1    -0.639674633495E+02   -0.19016E+00   -0.12955E+01 14323   0.261E+01    0.159E+00
DAV:   2    -0.639499551839E+02    0.17508E-01   -0.31000E-01 15680   0.373E+00    0.104E+00
DAV:   3    -0.639368159539E+02    0.13139E-01   -0.10002E-01 16111   0.180E+00    0.257E-01
DAV:   4    -0.639343573759E+02    0.24586E-02   -0.11015E-02 15097   0.607E-01    0.132E-01
DAV:   5    -0.639343844668E+02   -0.27091E-04   -0.13852E-03 16513   0.235E-01    0.234E-02
DAV:   6    -0.639343812960E+02    0.31708E-05   -0.90773E-05 16650   0.608E-02    0.127E-02
DAV:   7    -0.639343888763E+02   -0.75802E-05   -0.16792E-05 15157   0.281E-02    0.336E-03
DAV:   8    -0.639343894185E+02   -0.54224E-06   -0.34089E-06 17509   0.106E-02    0.160E-03
DAV:   9    -0.639343895105E+02   -0.91992E-07   -0.31507E-07 14739   0.489E-03    0.403E-04
DAV:  10    -0.639343895447E+02   -0.34233E-07   -0.37447E-08 16525   0.169E-03    0.157E-04
DAV:  11    -0.639343895363E+02    0.84532E-08   -0.28802E-09 13003   0.466E-04
   5 F= -.64442463E+02 E0= -.64442463E+02  d E =-.154059E+00
       N       E                     dE             d eps       ncg     rms          rms(c)
DAV:   1    -0.640035751898E+02   -0.69186E-01   -0.15151E+00 14587   0.898E+00    0.598E-01
DAV:   2    -0.639997339214E+02    0.38413E-02   -0.33382E-02 14915   0.124E+00    0.356E-01
DAV:   3    -0.639981288506E+02    0.16051E-02   -0.93508E-03 16709   0.556E-01    0.770E-02
DAV:   4    -0.639979894174E+02    0.13943E-03   -0.10789E-03 15135   0.189E-01    0.480E-02
DAV:   5    -0.639979833170E+02    0.61004E-05   -0.88195E-05 15722   0.643E-02    0.741E-03
DAV:   6    -0.639979833020E+02    0.14938E-07   -0.83311E-06 17497   0.190E-02    0.381E-03
DAV:   7    -0.639979831849E+02    0.11715E-06   -0.11874E-06 15402   0.817E-03    0.104E-03
DAV:   8    -0.639979832088E+02   -0.23902E-07   -0.45651E-07 17340   0.388E-03    0.628E-04
DAV:   9    -0.639979832724E+02   -0.63591E-07   -0.57226E-08 14809   0.176E-03    0.195E-04
DAV:  10    -0.639979832759E+02   -0.34740E-08   -0.62735E-09 14346   0.673E-04
   6 F= -.64507007E+02 E0= -.64507007E+02  d E =-.218603E+00
       N       E                     dE             d eps       ncg     rms          rms(c)
DAV:   1    -0.639099779323E+02    0.88005E-01   -0.25855E+01 13300   0.385E+01    0.940E-01
DAV:   2    -0.639244247557E+02   -0.14447E-01   -0.35645E-01 17332   0.449E+00    0.741E-01
DAV:   3    -0.639176852748E+02    0.67395E-02   -0.80772E-02 15489   0.166E+00    0.215E-01
DAV:   4    -0.639164556841E+02    0.12296E-02   -0.11543E-02 14833   0.629E-01    0.156E-01
DAV:   5    -0.639166386416E+02   -0.18296E-03   -0.86848E-04 16866   0.240E-01    0.162E-02
DAV:   6    -0.639166389968E+02   -0.35520E-06   -0.86852E-05 16570   0.669E-02    0.106E-02
DAV:   7    -0.639166409762E+02   -0.19794E-05   -0.22840E-05 14815   0.372E-02    0.450E-03
DAV:   8    -0.639166411965E+02   -0.22033E-06   -0.46822E-06 18440   0.147E-02    0.147E-03
DAV:   9    -0.639166413688E+02   -0.17228E-06   -0.75962E-07 14630   0.604E-03    0.143E-03
DAV:  10    -0.639166413191E+02    0.49723E-07   -0.20950E-07 17980   0.281E-03    0.342E-04
DAV:  11    -0.639166413285E+02   -0.94557E-08   -0.36788E-08 15146   0.128E-03
   7 F= -.64423505E+02 E0= -.64423505E+02  d E =0.835014E-01
       N       E                     dE             d eps       ncg     rms          rms(c)
DAV:   1    -0.640598551733E+02   -0.14321E+00   -0.96748E+00 13300   0.235E+01    0.621E-01
DAV:   2    -0.640600068680E+02   -0.15169E-03   -0.10803E-01 17771   0.242E+00    0.416E-01
DAV:   3    -0.640583606782E+02    0.16462E-02   -0.17947E-02 16544   0.811E-01    0.129E-01
DAV:   4    -0.640583312812E+02    0.29397E-04   -0.22347E-03 15290   0.284E-01    0.897E-02
DAV:   5    -0.640583487024E+02   -0.17421E-04   -0.29321E-04 17042   0.140E-01    0.126E-02
DAV:   6    -0.640583506736E+02   -0.19712E-05   -0.46488E-05 16254   0.469E-02    0.965E-03
DAV:   7    -0.640583493540E+02    0.13196E-05   -0.69533E-06 14998   0.206E-02    0.294E-03
DAV:   8    -0.640583496192E+02   -0.26522E-06   -0.37231E-06 16285   0.120E-02    0.117E-03
DAV:   9    -0.640583497782E+02   -0.15900E-06   -0.22640E-07 14876   0.362E-03    0.545E-04
DAV:  10    -0.640583497726E+02    0.56357E-08   -0.18269E-08 15992   0.950E-04
   8 F= -.64566495E+02 E0= -.64566495E+02  d E =-.594888E-01
       N       E                     dE             d eps       ncg     rms          rms(c)
DAV:   1    -0.640821511206E+02   -0.23801E-01   -0.79254E-01 13531   0.711E+00    0.232E-01
DAV:   2    -0.640818634569E+02    0.28766E-03   -0.72949E-03 17715   0.618E-01    0.142E-01
DAV:   3    -0.640817352785E+02    0.12818E-03   -0.15794E-03 15481   0.227E-01    0.385E-02
DAV:   4    -0.640817204822E+02    0.14796E-04   -0.16612E-04 15277   0.723E-02    0.232E-02
DAV:   5    -0.640817267197E+02   -0.62376E-05   -0.17295E-05 15401   0.290E-02    0.363E-03
DAV:   6    -0.640817269002E+02   -0.18052E-06   -0.11509E-06 17831   0.674E-03    0.194E-03
DAV:   7    -0.640817270038E+02   -0.10355E-06   -0.30966E-07 14988   0.425E-03    0.417E-04
DAV:   8    -0.640817270156E+02   -0.11823E-07   -0.34537E-08 18300   0.112E-03    0.182E-04
DAV:   9    -0.640817270392E+02   -0.23583E-07   -0.57305E-09 11892   0.630E-04    0.301E-05
DAV:  10    -0.640817270382E+02    0.95133E-09   -0.36151E-10  8414   0.169E-04
   9 F= -.64590260E+02 E0= -.64590260E+02  d E =-.237644E-01
       N       E                     dE             d eps       ncg     rms          rms(c)
DAV:   1    -0.640840261759E+02   -0.22991E-02   -0.14878E-01 13564   0.308E+00    0.995E-02
DAV:   2    -0.640839754568E+02    0.50719E-04   -0.13731E-03 17695   0.270E-01    0.613E-02
DAV:   3    -0.640839488281E+02    0.26629E-04   -0.30992E-04 15491   0.100E-01    0.166E-02
DAV:   4    -0.640839453795E+02    0.34485E-05   -0.32377E-05 15219   0.319E-02    0.102E-02
DAV:   5    -0.640839461327E+02   -0.75320E-06   -0.35398E-06 15430   0.130E-02    0.159E-03
DAV:   6    -0.640839461230E+02    0.97258E-08   -0.19964E-07 17862   0.283E-03    0.838E-04
DAV:   7    -0.640839461152E+02    0.77974E-08   -0.58363E-08 15030   0.187E-03
  10 F= -.64592648E+02 E0= -.64592648E+02  d E =-.261526E-01
       N       E                     dE             d eps       ncg     rms          rms(c)
DAV:   1    -0.640608915489E+02    0.23055E-01   -0.20678E+00 14275   0.100E+01    0.430E-01
DAV:   2    -0.640612775261E+02   -0.38598E-03   -0.42925E-02 17791   0.135E+00    0.304E-01
DAV:   3    -0.640598012312E+02    0.14763E-02   -0.85273E-03 15374   0.642E-01    0.497E-02
DAV:   4    -0.640597454056E+02    0.55826E-04   -0.13547E-03 15030   0.251E-01    0.323E-02
DAV:   5    -0.640597496936E+02   -0.42879E-05   -0.71250E-05 17282   0.619E-02    0.681E-03
DAV:   6    -0.640597491568E+02    0.53679E-06   -0.53686E-06 15822   0.143E-02    0.364E-03
DAV:   7    -0.640597490324E+02    0.12438E-06   -0.98817E-07 15210   0.685E-03    0.123E-03
DAV:   8    -0.640597490368E+02   -0.43910E-08   -0.16436E-07 17865   0.242E-03    0.491E-04
DAV:   9    -0.640597491048E+02   -0.68042E-07   -0.34279E-08 14731   0.139E-03    0.205E-04
DAV:  10    -0.640597490936E+02    0.11210E-07   -0.25141E-09  9776   0.356E-04    0.104E-04
DAV:  11    -0.640597490894E+02    0.42089E-08   -0.13898E-09  8419   0.261E-04
  11 F= -.64568468E+02 E0= -.64568468E+02  d E =0.241804E-01
       N       E                     dE             d eps       ncg     rms          rms(c)
DAV:   1    -0.640878979572E+02   -0.28149E-01   -0.11363E+00 14272   0.744E+00    0.318E-01
DAV:   2    -0.640881243134E+02   -0.22636E-03   -0.23778E-02 17825   0.101E+00    0.225E-01
DAV:   3    -0.640873193977E+02    0.80492E-03   -0.42531E-03 15450   0.456E-01    0.317E-02
DAV:   4    -0.640873116210E+02    0.77767E-05   -0.65055E-04 15065   0.168E-01    0.232E-02
DAV:   5    -0.640873179423E+02   -0.63213E-05   -0.33129E-05 17077   0.419E-02    0.515E-03
DAV:   6    -0.640873173460E+02    0.59628E-06   -0.27067E-06 15857   0.101E-02    0.290E-03
DAV:   7    -0.640873172290E+02    0.11700E-06   -0.79745E-07 15251   0.596E-03    0.787E-04
DAV:   8    -0.640873172116E+02    0.17376E-07   -0.12000E-07 17491   0.202E-03    0.324E-04
DAV:   9    -0.640873171814E+02    0.30206E-07   -0.15565E-08 11877   0.972E-04    0.163E-04
DAV:  10    -0.640873171901E+02   -0.87252E-08   -0.18824E-09  8584   0.343E-04
  12 F= -.64596020E+02 E0= -.64596020E+02  d E =-.337153E-02
