ethylene                                
           1
     4.965514    0.000000    0.000000
     0.000000    6.586699    0.000000
     0.000000    0.000000    4.221197
   C    H 
   4   8
Direct configuration=     1
   0.88344002  0.05382000  0.95924997
   0.11656000  0.94617999  0.04075000
   0.61655998  0.55382001  0.54075003
   0.38344002  0.44617999  0.45925000
   0.81309998  0.16980000  0.11850000
   0.18690000  0.83020002  0.88150001
   0.68690002  0.66979998  0.38150001
   0.31309998  0.33020002  0.61849999
   0.75699997  0.02870000  0.73109996
   0.24300000  0.97130001  0.26890001
   0.74300003  0.52869999  0.76890004
   0.25700000  0.47130001  0.23109999
Direct configuration=     2
   0.90084581  0.04103709  0.95490459
   0.09915420  0.95896290  0.04509539
   0.59915419  0.54103710  0.54509541
   0.40084581  0.45896290  0.45490462
   0.80987138  0.17306466  0.12136267
   0.19012860  0.82693536  0.87863734
   0.69012862  0.67306464  0.37863734
   0.30987138  0.32693536  0.62136266
   0.76941433  0.02924516  0.74919029
   0.23058564  0.97075484  0.25080968
   0.73058567  0.52924516  0.75080971
   0.26941436  0.47075484  0.24919032
Direct configuration=     3
   0.89000595  0.04899794  0.95761078
   0.10999406  0.95100204  0.04238920
   0.60999405  0.54899796  0.54238922
   0.39000595  0.45100204  0.45761081
   0.81188207  0.17103151  0.11957988
   0.18811792  0.82896850  0.88042013
   0.68811793  0.67103150  0.38042013
   0.31188207  0.32896850  0.61957987
   0.76168300  0.02890565  0.73792412
   0.23831697  0.97109436  0.26207585
   0.73831700  0.52890564  0.76207588
   0.26168303  0.47109436  0.23792415
