ethylene                                
           1
     4.965514    0.000000    0.000000
     0.000000    6.586699    0.000000
     0.000000    0.000000    4.221197
   C    H 
   4   8
Direct configuration=     1
   0.88344002  0.05382000  0.95924997
   0.11656000  0.94617999  0.04075000
   0.61655998  0.55382001  0.54075003
   0.38344002  0.44617999  0.45925000
   0.81309998  0.16980000  0.11850000
   0.18690000  0.83020002  0.88150001
   0.68690002  0.66979998  0.38150001
   0.31309998  0.33020002  0.61849999
   0.75699997  0.02870000  0.73109996
   0.24300000  0.97130001  0.26890001
   0.74300003  0.52869999  0.76890004
   0.25700000  0.47130001  0.23109999
Direct configuration=     2
   0.90084581  0.04103709  0.95490459
   0.09915420  0.95896290  0.04509539
   0.59915419  0.54103710  0.54509541
   0.40084581  0.45896290  0.45490462
   0.80987138  0.17306466  0.12136267
   0.19012860  0.82693536  0.87863734
   0.69012862  0.67306464  0.37863734
   0.30987138  0.32693536  0.62136266
   0.76941433  0.02924516  0.74919029
   0.23058564  0.97075484  0.25080968
   0.73058567  0.52924516  0.75080971
   0.26941436  0.47075484  0.24919032
Direct configuration=     3
   0.89000595  0.04899794  0.95761078
   0.10999406  0.95100204  0.04238920
   0.60999405  0.54899796  0.54238922
   0.39000595  0.45100204  0.45761081
   0.81188207  0.17103151  0.11957988
   0.18811792  0.82896850  0.88042013
   0.68811793  0.67103150  0.38042013
   0.31188207  0.32896850  0.61957987
   0.76168300  0.02890565  0.73792412
   0.23831697  0.97109436  0.26207585
   0.73831700  0.52890564  0.76207588
   0.26168303  0.47109436  0.23792415
Direct configuration=     4
   0.88828701  0.05026034  0.95803991
   0.11171300  0.94973964  0.04196006
   0.61171299  0.55026036  0.54196009
   0.38828701  0.44973964  0.45803994
   0.81220091  0.17070911  0.11929717
   0.18779907  0.82929091  0.88070284
   0.68779909  0.67070909  0.38070284
   0.31220091  0.32929091  0.61929716
   0.76045700  0.02885181  0.73613758
   0.23954297  0.97114819  0.26386239
   0.73954300  0.52885181  0.76386242
   0.26045703  0.47114819  0.23613761
Direct configuration=     5
   0.88740005  0.05142039  0.95938513
   0.11259997  0.94857960  0.04061484
   0.61259995  0.55142040  0.54061487
   0.38740005  0.44857960  0.45938516
   0.81170826  0.16959748  0.11627503
   0.18829172  0.83040254  0.88372498
   0.68829174  0.66959746  0.38372498
   0.31170826  0.33040254  0.61627502
   0.77294648  0.02821248  0.75169684
   0.22705349  0.97178753  0.24830313
   0.72705352  0.52821247  0.74830316
   0.27294651  0.47178753  0.25169687
Direct configuration=     6
   0.88769915  0.05102919  0.95893149
   0.11230086  0.94897079  0.04106848
   0.61230085  0.55102921  0.54106851
   0.38769915  0.44897079  0.45893152
   0.81187440  0.16997234  0.11729417
   0.18812559  0.83002767  0.88270584
   0.68812560  0.66997233  0.38270584
   0.31187440  0.33002767  0.61729416
   0.76873473  0.02842808  0.74644989
   0.23126524  0.97157193  0.25355008
   0.73126527  0.52842807  0.75355011
   0.26873476  0.47157193  0.24644992
Direct configuration=     7
   0.89219840  0.05326613  0.96999534
   0.10780162  0.94673385  0.03000463
   0.60780160  0.55326615  0.53000466
   0.39219840  0.44673385  0.46999537
   0.81128959  0.16929731  0.11512534
   0.18871039  0.83070270  0.88487467
   0.68871041  0.66929730  0.38487467
   0.31128959  0.33070270  0.61512533
   0.77584557  0.02644887  0.75169909
   0.22415440  0.97355113  0.24830088
   0.72415443  0.52644887  0.74830091
   0.27584560  0.47355113  0.25169912
Direct configuration=     8
   0.88946432  0.05190680  0.96327212
   0.11053569  0.94809318  0.03672785
   0.61053568  0.55190682  0.53672788
   0.38946432  0.44809318  0.46327215
   0.81164496  0.16970751  0.11644328
   0.18835502  0.83029250  0.88355673
   0.68835504  0.66970750  0.38355673
   0.31164496  0.33029250  0.61644327
   0.77152449  0.02765158  0.74850929
   0.22847548  0.97234842  0.25149068
   0.72847551  0.52765158  0.75149071
   0.27152452  0.47234842  0.24850932
Direct configuration=     9
   0.88898405  0.05280211  0.96458533
   0.11101596  0.94719787  0.03541465
   0.61101595  0.55280213  0.53541467
   0.38898405  0.44719787  0.46458536
   0.81089546  0.17107803  0.11850823
   0.18910452  0.82892198  0.88149178
   0.68910454  0.67107802  0.38149178
   0.31089546  0.32892198  0.61850822
   0.77340957  0.02652240  0.74854505
   0.22659040  0.97347761  0.25145492
   0.72659043  0.52652239  0.75145495
   0.27340960  0.47347761  0.24854508
Direct configuration=    10
   0.88877588  0.05319018  0.96515452
   0.11122413  0.94680981  0.03484545
   0.61122412  0.55319019  0.53484548
   0.38877588  0.44680981  0.46515455
   0.81057060  0.17167207  0.11940326
   0.18942939  0.82832794  0.88059674
   0.68942940  0.67167206  0.38059674
   0.31057060  0.32832794  0.61940326
   0.77422664  0.02603296  0.74856056
   0.22577333  0.97396705  0.25143941
   0.72577336  0.52603295  0.75143944
   0.27422667  0.47396705  0.24856059
Direct configuration=    11
   0.89049527  0.05235367  0.96565320
   0.10950474  0.94764632  0.03434677
   0.60950473  0.55235368  0.53434680
   0.39049527  0.44764632  0.46565323
   0.81010111  0.17310362  0.12202574
   0.18989887  0.82689639  0.87797426
   0.68989889  0.67310361  0.37797426
   0.31010111  0.32689639  0.62202574
   0.77580830  0.02500062  0.74839287
   0.22419167  0.97499939  0.25160710
   0.72419170  0.52500061  0.75160713
   0.27580833  0.47499939  0.24839290
Direct configuration=    12
   0.88922136  0.05297345  0.96528373
   0.11077865  0.94702654  0.03471625
   0.61077864  0.55297346  0.53471627
   0.38922136  0.44702654  0.46528376
   0.81044896  0.17204297  0.12008273
   0.18955103  0.82795704  0.87991728
   0.68955104  0.67204296  0.37991728
   0.31044896  0.32795704  0.62008272
   0.77463644  0.02576549  0.74851711
   0.22536353  0.97423452  0.25148286
   0.72536356  0.52576548  0.75148289
   0.27463647  0.47423452  0.24851714
