   32   32    1    1
  0.9306161E+01  0.4934311E-09  0.4934311E-09  0.1412406E-08  0.5000000E-15
  1.000000000000000E-004
  CAR 
 graphite                                
    128    163     84
 
  0.0000000E+00  0.0000000E+00  0.0000000E+00  0.3086420E-02
    1      -15.346213
    2      -15.248901
    3      -15.248160
    4      -15.146252
    5      -10.051905
    6      -10.049416
    7      -10.047349
    8      -10.015209
    9      -10.011195
   10      -10.010963
   11      -10.010168
   12      -10.010165
   13      -10.007061
   14       -9.978235
   15       -9.976442
   16       -9.974124
   17       -8.987839
   18       -8.986358
   19       -8.985285
   20       -8.966150
   21       -8.963412
   22       -8.962927
   23       -8.961899
   24       -8.961894
   25       -8.959974
   26       -8.931915
   27       -8.930693
   28       -8.928845
   29       -4.061668
   30       -3.375333
   31       -3.373880
   32       -2.557999
   33       -2.161925
   34       -2.159552
   35       -2.158511
   36       -2.146579
   37       -2.143792
   38       -2.143789
   39       -2.143071
   40       -2.140676
   41       -2.140637
   42       -2.128050
   43       -2.125600
   44       -2.124415
   45        1.219102
   46        1.224159
   47        1.228668
   48        1.229576
   49        1.231371
   50        1.233466
   51        1.237109
   52        1.241881
   53        1.587684
   54        1.589633
   55        1.591367
   56        1.877559
   57        1.881165
   58        1.881628
   59        1.881654
   60        1.881789
   61        1.884687
   62        2.104196
   63        2.105746
   64        2.107283
   65        5.739357
   66        5.740722
   67        5.742000
   68        5.890298
   69        5.894428
   70        5.895652
   71        5.896383
   72        5.896800
   73        5.900471
   74        6.288768
   75        6.290616
   76        6.292604
   77        8.159907
   78       10.418056
   79       10.420729
   80       11.480688
   81       11.484387
   82       11.487754
   83       11.613463
   84       11.617933
 
  0.1111111E+00  0.0000000E+00  0.0000000E+00  0.6172840E-02
    1      -15.272777
    2      -15.175929
    3      -15.175186
    4      -15.073786
    5      -10.830721
    6      -10.763063
    7      -10.762500
    8      -10.693043
    9      -10.291017
   10      -10.288580
   11      -10.234385
   12      -10.231454
   13      -10.230721
   14      -10.229824
   15      -10.174186
   16      -10.171783
   17       -8.670020
   18       -8.668657
   19       -8.623289
   20       -8.623074
   21       -8.621521
   22       -8.620376
   23       -8.572294
   24       -8.570731
   25       -8.155541
   26       -8.103935
   27       -8.101453
   28       -8.047751
   29       -3.972700
   30       -3.288343
   31       -3.286897
   32       -2.473508
   33       -2.386994
   34       -2.384178
   35       -2.369444
   36       -2.367204
   37       -2.365579
   38       -2.364120
   39       -2.348905
   40       -2.346247
   41       -2.087401
   42       -2.071556
   43       -2.069862
   44       -2.053692
   45        0.920746
   46        0.929931
   47        0.934372
   48        0.940219
   49        1.026629
   50        1.067624
   51        1.073796
   52        1.076534
   53        1.085660
   54        1.455961
   55        1.457414
   56        1.482358
   57        1.484689
   58        1.826053
   59        1.829971
   60        1.830125
   61        1.830577
   62        1.889655
   63        2.130703
   64        2.132703
   65        5.836131
   66        5.837539
   67        6.024236
   68        6.025417
   69        6.026730
   70        6.030367
   71        6.164781
   72        6.422521
   73        6.424335
   74        6.431968
   75        6.436240
   76        6.872377
   77        8.250471
   78       10.500718
   79       10.503381
   80       11.522722
   81       11.652176
   82       11.652490
   83       11.787091
   84       11.820379
 
  0.2222222E+00 -0.1387779E-16  0.0000000E+00  0.6172840E-02
    1      -15.052903
    2      -14.957442
    3      -14.956689
    4      -14.856781
    5      -11.836835
    6      -11.760967
    7      -11.760188
    8      -11.681754
    9      -10.634381
   10      -10.632420
   11      -10.569164
   12      -10.566763
   13      -10.566206
   14      -10.565364
   15      -10.499403
   16      -10.497414
   17       -7.987138
   18       -7.985546
   19       -7.936471
   20       -7.936181
   21       -7.934488
   22       -7.933542
   23       -7.882966
   24       -7.881251
   25       -6.833584
   26       -6.785649
   27       -6.783246
   28       -6.734315
   29       -3.706815
   30       -3.028403
   31       -3.026976
   32       -2.990995
   33       -2.988408
   34       -2.968772
   35       -2.966524
   36       -2.965187
   37       -2.963636
   38       -2.943160
   39       -2.940675
   40       -2.221724
   41       -1.872966
   42       -1.857311
   43       -1.855544
   44       -1.839778
   45        0.028843
   46        0.099750
   47        0.111621
   48        0.116123
   49        0.127470
   50        0.567946
   51        0.569093
   52        0.650144
   53        0.658969
   54        0.661974
   55        0.672114
   56        1.171940
   57        1.278507
   58        1.280669
   59        1.705055
   60        1.708924
   61        1.709068
   62        1.709623
   63        2.139663
   64        2.141794
   65        6.116763
   66        6.118532
   67        6.356522
   68        6.357557
   69        6.358849
   70        6.362344
   71        6.733128
   72        6.735449
   73        7.331126
   74        7.651744
   75        7.655722
   76        8.083727
   77        8.522749
   78       10.748169
   79       10.750811
   80       11.633778
   81       11.759722
   82       11.760237
   83       11.863036
   84       12.614215
 
  0.3333333E+00  0.5551115E-16  0.0000000E+00  0.6172840E-02
    1      -14.687728
    2      -14.594496
    3      -14.593727
    4      -14.496260
    5      -12.746250
    6      -12.664758
    7      -12.663953
    8      -12.579530
    9      -10.889776
   10      -10.888025
   11      -10.821100
   12      -10.818843
   13      -10.818501
   14      -10.817609
   15      -10.748075
   16      -10.746286
   17       -7.181922
   18       -7.180118
   19       -7.135614
   20       -7.135397
   21       -7.133634
   22       -7.132382
   23       -7.087403
   24       -7.085444
   25       -5.404870
   26       -5.363819
   27       -5.361183
   28       -5.319492
   29       -3.803818
   30       -3.801538
   31       -3.777269
   32       -3.774792
   33       -3.774080
   34       -3.772273
   35       -3.746814
   36       -3.744623
   37       -3.266445
   38       -2.598580
   39       -2.597192
   40       -1.806411
   41       -1.524866
   42       -1.509849
   43       -1.507931
   44       -1.492676
   45       -1.081251
   46       -1.062913
   47       -1.058557
   48       -1.040427
   49       -0.979035
   50       -0.384621
   51       -0.383507
   52        0.089539
   53        0.100496
   54        0.103354
   55        0.115133
   56        0.303307
   57        1.098591
   58        1.100645
   59        1.581145
   60        1.584956
   61        1.585098
   62        1.585751
   63        2.108651
   64        2.110851
   65        6.495446
   66        6.497568
   67        6.745163
   68        6.746007
   69        6.747096
   70        6.750517
   71        7.055832
   72        7.058268
   73        8.837421
   74        8.976387
   75        9.126804
   76        9.130239
   77        9.504275
   78       11.152120
   79       11.154840
   80       11.361179
   81       11.854721
   82       11.920100
   83       11.920861
   84       12.131374
 
  0.4444444E+00 -0.2775558E-16  0.0000000E+00  0.6172840E-02
    1      -14.179126
    2      -14.089004
    3      -14.088201
    4      -13.994198
    5      -13.530200
    6      -13.443961
    7      -13.443182
    8      -13.353412
    9      -11.021644
   10      -11.019980
   11      -10.951876
   12      -10.949602
   13      -10.949486
   14      -10.948504
   15      -10.877601
   16      -10.875896
   17       -6.440643
   18       -6.438854
   19       -6.407703
   20       -6.407608
   21       -6.406488
   22       -6.403942
   23       -6.374136
   24       -6.371861
   25       -4.555623
   26       -4.553806
   27       -4.533697
   28       -4.531040
   29       -4.530173
   30       -4.528735
   31       -4.505893
   32       -4.504399
   33       -3.929101
   34       -3.895879
   35       -3.892876
   36       -3.859017
   37       -2.657157
   38       -2.462251
   39       -2.436784
   40       -2.433233
   41       -2.407151
   42       -2.004800
   43       -2.003550
   44       -1.888459
   45       -1.259456
   46       -1.258253
   47       -1.234993
   48       -1.059553
   49       -1.045452
   50       -1.043326
   51       -1.029097
   52       -0.522160
   53       -0.505677
   54       -0.492934
   55       -0.490353
   56       -0.477026
   57        0.997959
   58        0.999961
   59        1.506557
   60        1.510328
   61        1.510474
   62        1.511183
   63        2.078097
   64        2.080321
   65        6.785783
   66        6.788131
   67        7.010197
   68        7.011061
   69        7.011536
   70        7.015123
   71        7.244550
   72        7.247009
   73        9.610315
   74       10.416448
   75       10.448378
   76       10.657646
   77       10.661958
   78       10.977781
   79       11.625246
   80       11.631962
   81       12.022094
   82       12.062930
   83       12.065009
   84       12.077010
 
  0.8470329E-21  0.1111111E+00  0.0000000E+00  0.6172840E-02
    1      -15.272776
    2      -15.175926
    3      -15.175185
    4      -15.073784
    5      -10.830828
    6      -10.763292
    7      -10.762505
    8      -10.693172
    9      -10.290928
   10      -10.288338
   11      -10.234154
   12      -10.231454
   13      -10.230722
   14      -10.229348
   15      -10.174081
   16      -10.171508
   17       -8.671168
   18       -8.668848
   19       -8.625723
   20       -8.623087
   21       -8.621517
   22       -8.620260
   23       -8.573273
   24       -8.570768
   25       -8.154570
   26       -8.102088
   27       -8.101447
   28       -8.046862
   29       -3.972704
   30       -3.288350
   31       -3.286900
   32       -2.473514
   33       -2.385535
   34       -2.384398
   35       -2.367526
   36       -2.367203
   37       -2.365273
   38       -2.364119
   39       -2.347529
   40       -2.346423
   41       -2.088358
   42       -2.072185
   43       -2.071555
   44       -2.055148
   45        0.925971
   46        0.932995
   47        0.934372
   48        0.941298
   49        1.025824
   50        1.066610
   51        1.073285
   52        1.073797
   53        1.080377
   54        1.455257
   55        1.456161
   56        1.482878
   57        1.485416
   58        1.826939
   59        1.829980
   60        1.830124
   61        1.832075
   62        1.888648
   63        2.131122
   64        2.133458
   65        5.835063
   66        5.836728
   67        6.021690
   68        6.024940
   69        6.026870
   70        6.029229
   71        6.166524
   72        6.421120
   73        6.423758
   74        6.434590
   75        6.436868
   76        6.874095
   77        8.250467
   78       10.500704
   79       10.503367
   80       11.522114
   81       11.651143
   82       11.652189
   83       11.783823
   84       11.819849
 
  0.1111111E+00  0.1111111E+00  0.0000000E+00  0.6172840E-02
    1      -15.126129
    2      -15.030204
    3      -15.029454
    4      -14.929043
    5      -11.292676
    6      -11.289813
    7      -11.222081
    8      -11.218549
    9      -11.218530
   10      -11.216327
   11      -11.145587
   12      -11.142667
   13       -9.862278
   14       -9.825472
   15       -9.823394
   16       -9.790632
   17       -8.803089
   18       -8.781235
   19       -8.778894
   20       -8.749322
   21       -7.475157
   22       -7.471965
   23       -7.425972
   24       -7.421422
   25       -7.421403
   26       -7.419812
   27       -7.370579
   28       -7.367545
   29       -3.795264
   30       -3.114854
   31       -3.113420
   32       -3.063906
   33       -3.041684
   34       -3.038787
   35       -3.015906
   36       -2.305498
   37       -2.241766
   38       -2.239580
   39       -2.224347
   40       -2.222232
   41       -2.222229
   42       -2.219369
   43       -2.204640
   44       -2.201567
   45        0.390755
   46        0.399686
   47        0.404072
   48        0.409871
   49        0.604294
   50        0.606098
   51        0.754869
   52        0.760095
   53        0.762738
   54        0.771731
   55        1.096514
   56        1.098524
   57        1.098670
   58        1.101156
   59        1.630929
   60        1.633181
   61        1.855121
   62        2.144351
   63        2.147428
   64        2.367019
   65        5.711069
   66        5.819280
   67        5.823187
   68        6.140280
   69        6.670233
   70        6.672678
   71        6.971368
   72        6.976299
   73        6.976533
   74        6.977820
   75        7.400975
   76        7.403658
   77        8.432032
   78       10.666323
   79       10.668971
   80       11.891897
   81       11.895798
   82       12.020745
   83       12.024564
   84       12.027193
 
  0.2222222E+00  0.1111111E+00  0.0000000E+00  0.6172840E-02
    1      -14.833590
    2      -14.739458
    3      -14.738693
    4      -14.640281
    5      -12.254132
    6      -12.175700
    7      -12.174900
    8      -12.093604
    9      -11.631277
   10      -11.556683
   11      -11.556025
   12      -11.478792
   13       -9.906406
   14       -9.851134
   15       -9.849691
   16       -9.794290
   17       -8.325211
   18       -8.282374
   19       -8.280580
   20       -8.234616
   21       -6.693028
   22       -6.646445
   23       -6.645985
   24       -6.598350
   25       -6.096654
   26       -6.052629
   27       -6.050222
   28       -6.005438
   29       -3.967450
   30       -3.939501
   31       -3.936662
   32       -3.907915
   33       -3.442058
   34       -2.769901
   35       -2.768513
   36       -2.765636
   37       -2.743628
   38       -2.742570
   39       -2.719992
   40       -1.971752
   41       -1.954221
   42       -1.937091
   43       -1.935377
   44       -1.917938
   45       -0.557907
   46       -0.545261
   47       -0.540143
   48       -0.528799
   49       -0.420221
   50        0.148573
   51        0.149619
   52        0.211986
   53        0.220272
   54        0.223533
   55        0.233860
   56        0.278992
   57        0.798778
   58        0.811308
   59        0.812438
   60        1.408758
   61        2.002121
   62        2.346374
   63        2.349372
   64        2.649775
   65        5.705878
   66        5.825300
   67        5.828818
   68        6.093612
   69        7.252789
   70        7.543497
   71        7.545262
   72        7.907931
   73        8.037266
   74        8.340873
   75        8.344409
   76        8.730101
   77        8.796278
   78       10.996153
   79       10.998803
   80       11.909063
   81       12.109753
   82       12.159128
   83       12.159559
   84       12.416905
 
  0.3333333E+00  0.1111111E+00  0.0000000E+00  0.6172840E-02
    1      -14.396681
    2      -14.305218
    3      -14.304429
    4      -14.208972
    5      -13.101418
    6      -13.017777
    7      -13.016991
    8      -12.930055
    9      -11.838469
   10      -11.762496
   11      -11.761847
   12      -11.683198
   13      -10.048034
   14       -9.985714
   15       -9.984726
   16       -9.920987
   17       -7.560819
   18       -7.518376
   19       -7.516748
   20       -7.473187
   21       -5.898556
   22       -5.860360
   23       -5.860087
   24       -5.821182
   25       -4.901653
   26       -4.872157
   27       -4.869150
   28       -4.838727
   29       -4.652028
   30       -4.615625
   31       -4.612989
   32       -4.575869
   33       -3.463924
   34       -3.439955
   35       -3.438122
   36       -3.413455
   37       -2.916962
   38       -2.258041
   39       -2.256659
   40       -1.797506
   41       -1.777341
   42       -1.772896
   43       -1.753166
   44       -1.538895
   45       -1.522633
   46       -1.520819
   47       -1.504398
   48       -1.478001
   49       -1.386057
   50       -0.774152
   51       -0.772995
   52       -0.410404
   53       -0.398528
   54       -0.395350
   55       -0.382579
   56       -0.061132
   57        0.073910
   58        0.628108
   59        0.629534
   60        1.260162
   61        2.015372
   62        2.436360
   63        2.438950
   64        2.868978
   65        5.749119
   66        5.941750
   67        5.944355
   68        6.189988
   69        7.755638
   70        7.997617
   71        7.998840
   72        8.263736
   73        9.340714
   74        9.594249
   75        9.843784
   76        9.847139
   77       10.168420
   78       10.956367
   79       11.471434
   80       11.474681
   81       12.277166
   82       12.307974
   83       12.308867
   84       12.523218
 
  0.4444444E+00  0.1111111E+00  0.0000000E+00  0.6172840E-02
    1      -13.819349
    2      -13.816663
    3      -13.732715
    4      -13.729339
    5      -13.729215
    6      -13.727316
    7      -13.638913
    8      -13.636180
    9      -11.908144
   10      -11.831621
   11      -11.830982
   12      -11.751789
   13      -10.103260
   14      -10.039735
   15      -10.038922
   16       -9.973513
   17       -7.063107
   18       -7.036824
   19       -7.035382
   20       -7.009954
   21       -5.429432
   22       -5.424548
   23       -5.409291
   24       -5.407977
   25       -5.406061
   26       -5.405686
   27       -5.387334
   28       -5.385103
   29       -3.889207
   30       -3.875173
   31       -3.871608
   32       -3.855722
   33       -3.197875
   34       -3.194332
   35       -3.170166
   36       -3.164562
   37       -3.164195
   38       -3.164142
   39       -3.136431
   40       -3.134029
   41       -2.228332
   42       -2.226148
   43       -1.589304
   44       -1.586708
   45       -1.586479
   46       -1.584105
   47       -1.015125
   48       -1.012141
   49       -1.000739
   50       -0.998615
   51       -0.998545
   52       -0.993010
   53       -0.984063
   54       -0.976385
   55       -0.835732
   56       -0.833263
   57        0.004303
   58        0.565225
   59        0.566820
   60        1.208265
   61        2.009120
   62        2.458883
   63        2.460935
   64        2.944376
   65        5.782252
   66        6.007637
   67        6.009157
   68        6.244925
   69        7.970719
   70        8.175803
   71        8.176994
   72        8.382146
   73       10.063697
   74       10.064514
   75       11.169399
   76       11.172631
   77       11.312782
   78       11.320694
   79       11.320952
   80       11.325897
   81       11.601579
   82       11.604952
   83       12.133052
   84       12.139364
 
 -0.4444444E+00  0.1111111E+00  0.0000000E+00  0.6172840E-02
    1      -14.396768
    2      -14.305302
    3      -14.304532
    4      -14.209057
    5      -13.101279
    6      -13.017650
    7      -13.016842
    8      -12.929917
    9      -11.838677
   10      -11.762701
   11      -11.762059
   12      -11.683406
   13      -10.047677
   14       -9.985229
   15       -9.984484
   16       -9.920614
   17       -7.560034
   18       -7.516911
   19       -7.516784
   20       -7.472551
   21       -5.899719
   22       -5.862145
   23       -5.860444
   24       -5.822147
   25       -4.902743
   26       -4.872552
   27       -4.871153
   28       -4.840008
   29       -4.652355
   30       -4.616095
   31       -4.613124
   32       -4.576153
   33       -3.462674
   34       -3.439355
   35       -3.435817
   36       -3.411873
   37       -2.917059
   38       -2.258152
   39       -2.256746
   40       -1.797057
   41       -1.776580
   42       -1.773391
   43       -1.753189
   44       -1.538658
   45       -1.522539
   46       -1.520320
   47       -1.503983
   48       -1.478094
   49       -1.385913
   50       -0.774007
   51       -0.772859
   52       -0.410270
   53       -0.398028
   54       -0.396074
   55       -0.383464
   56       -0.060990
   57        0.073654
   58        0.627687
   59        0.629444
   60        1.259892
   61        2.015770
   62        2.437356
   63        2.438853
   64        2.869528
   65        5.749144
   66        5.942546
   67        5.943681
   68        6.190005
   69        7.755160
   70        7.996870
   71        7.998835
   72        8.263529
   73        9.340588
   74        9.594112
   75        9.843475
   76        9.847206
   77       10.168333
   78       10.956561
   79       11.471323
   80       11.474572
   81       12.276831
   82       12.307432
   83       12.309035
   84       12.523868
 
 -0.3333333E+00  0.1111111E+00  0.0000000E+00  0.6172840E-02
    1      -14.833651
    2      -14.739512
    3      -14.738761
    4      -14.640342
    5      -12.253964
    6      -12.175521
    7      -12.174712
    8      -12.093434
    9      -11.631704
   10      -11.557115
   11      -11.556445
   12      -11.479217
   13       -9.905591
   14       -9.849937
   15       -9.849217
   16       -9.793430
   17       -8.324661
   18       -8.281271
   19       -8.280712
   20       -8.234194
   21       -6.694159
   22       -6.647912
   23       -6.646666
   24       -6.599362
   25       -6.096967
   26       -6.053021
   27       -6.050428
   28       -6.005732
   29       -3.968904
   30       -3.940050
   31       -3.939211
   32       -3.909535
   33       -3.442128
   34       -2.769981
   35       -2.768555
   36       -2.764013
   37       -2.742886
   38       -2.739676
   39       -2.718053
   40       -1.971819
   41       -1.954026
   42       -1.936936
   43       -1.935034
   44       -1.917675
   45       -0.556905
   46       -0.544529
   47       -0.541594
   48       -0.529532
   49       -0.420053
   50        0.148722
   51        0.149784
   52        0.212932
   53        0.221760
   54        0.223041
   55        0.232222
   56        0.278459
   57        0.799101
   58        0.810309
   59        0.812240
   60        1.408222
   61        2.002896
   62        2.348219
   63        2.349195
   64        2.650705
   65        5.706017
   66        5.826280
   67        5.827989
   68        6.093572
   69        7.252135
   70        7.542483
   71        7.545140
   72        7.907556
   73        8.037090
   74        8.340529
   75        8.344442
   76        8.729969
   77        8.796186
   78       10.996058
   79       10.998708
   80       11.909164
   81       12.109598
   82       12.158694
   83       12.159636
   84       12.416733
 
 -0.2222222E+00  0.1111111E+00  0.0000000E+00  0.6172840E-02
    1      -15.126165
    2      -15.030236
    3      -15.029495
    4      -14.929080
    5      -11.291816
    6      -11.290991
    7      -11.219895
    8      -11.219181
    9      -11.219012
   10      -11.218328
   11      -11.144846
   12      -11.144013
   13       -9.860835
   14       -9.823363
   15       -9.822655
   16       -9.789232
   17       -8.802856
   18       -8.780414
   19       -8.779740
   20       -8.749538
   21       -7.474170
   22       -7.473932
   23       -7.424070
   24       -7.423152
   25       -7.422060
   26       -7.421621
   27       -7.369849
   28       -7.369586
   29       -3.795307
   30       -3.114902
   31       -3.113457
   32       -3.065526
   33       -3.042330
   34       -3.041632
   35       -3.017740
   36       -2.305540
   37       -2.239881
   38       -2.239314
   39       -2.222202
   40       -2.222087
   41       -2.220366
   42       -2.219068
   43       -2.202411
   44       -2.201945
   45        0.392573
   46        0.399926
   47        0.400928
   48        0.407952
   49        0.604119
   50        0.605721
   51        0.757106
   52        0.762663
   53        0.763299
   54        0.769286
   55        1.096455
   56        1.098517
   57        1.098688
   58        1.100014
   59        1.630832
   60        1.632598
   61        1.856172
   62        2.146644
   63        2.147249
   64        2.368086
   65        5.711354
   66        5.820249
   67        5.822458
   68        6.140225
   69        6.670512
   70        6.671649
   71        6.972026
   72        6.974533
   73        6.976101
   74        6.977924
   75        7.401412
   76        7.402650
   77        8.431975
   78       10.666262
   79       10.668911
   80       11.894110
   81       11.897486
   82       12.024459
   83       12.025945
   84       12.027864
 
 -0.1111111E+00  0.1111111E+00  0.0000000E+00  0.6172840E-02
    1      -15.272788
    2      -15.175937
    3      -15.175199
    4      -15.073796
    5      -10.831707
    6      -10.764256
    7      -10.763306
    8      -10.694059
    9      -10.290037
   10      -10.287870
   11      -10.233122
   12      -10.230557
   13      -10.230551
   14      -10.228720
   15      -10.173224
   16      -10.170985
   17       -8.670837
   18       -8.668954
   19       -8.625301
   20       -8.621779
   21       -8.621694
   22       -8.621643
   23       -8.572912
   24       -8.571197
   25       -8.155244
   26       -8.103001
   27       -8.101797
   28       -8.047452
   29       -3.972718
   30       -3.288366
   31       -3.286912
   32       -2.473528
   33       -2.386854
   34       -2.384889
   35       -2.369009
   36       -2.367172
   37       -2.367169
   38       -2.364480
   39       -2.349208
   40       -2.346415
   41       -2.086651
   42       -2.071463
   43       -2.068403
   44       -2.053072
   45        0.923959
   46        0.930885
   47        0.933639
   48        0.942590
   49        1.024950
   50        1.064598
   51        1.073169
   52        1.077315
   53        1.082493
   54        1.453554
   55        1.456069
   56        1.483646
   57        1.485730
   58        1.828512
   59        1.829986
   60        1.830038
   61        1.832882
   62        1.887636
   63        2.131845
   64        2.133851
   65        5.834848
   66        5.837245
   67        6.021124
   68        6.026554
   69        6.027155
   70        6.028299
   71        6.166027
   72        6.421031
   73        6.423973
   74        6.433400
   75        6.437081
   76        6.873782
   77        8.250448
   78       10.500682
   79       10.503346
   80       11.526020
   81       11.654716
   82       11.656632
   83       11.789258
   84       11.815839
 
 -0.3388132E-20  0.2222222E+00  0.0000000E+00  0.6172840E-02
    1      -15.052896
    2      -14.957428
    3      -14.956688
    4      -14.856774
    5      -11.836818
    6      -11.760937
    7      -11.760187
    8      -11.681740
    9      -10.634727
   10      -10.632037
   11      -10.569791
   12      -10.566764
   13      -10.566205
   14      -10.564520
   15      -10.499682
   16      -10.496959
   17       -7.988377
   18       -7.985532
   19       -7.939068
   20       -7.936195
   21       -7.934485
   22       -7.932997
   23       -7.884013
   24       -7.881064
   25       -6.832683
   26       -6.783917
   27       -6.783242
   28       -6.733474
   29       -3.706833
   30       -3.028432
   31       -3.026986
   32       -2.989922
   33       -2.988294
   34       -2.967400
   35       -2.966524
   36       -2.964176
   37       -2.963635
   38       -2.942079
   39       -2.940441
   40       -2.221749
   41       -1.873974
   42       -1.857989
   43       -1.857310
   44       -1.841327
   45        0.028418
   46        0.102794
   47        0.115488
   48        0.116123
   49        0.129007
   50        0.567447
   51        0.568494
   52        0.648859
   53        0.658250
   54        0.658968
   55        0.668164
   56        1.171271
   57        1.278738
   58        1.281466
   59        1.705650
   60        1.708928
   61        1.709040
   62        1.711281
   63        2.140025
   64        2.142635
   65        6.115463
   66        6.117833
   67        6.353647
   68        6.357227
   69        6.358943
   70        6.361441
   71        6.731546
   72        6.734999
   73        7.332508
   74        7.653851
   75        7.656162
   76        8.084982
   77        8.522738
   78       10.748118
   79       10.750762
   80       11.633150
   81       11.758893
   82       11.759762
   83       11.862380
   84       12.613434
 
  0.1111111E+00  0.2222222E+00  0.0000000E+00  0.6172840E-02
    1      -14.833585
    2      -14.739447
    3      -14.738692
    4      -14.640275
    5      -12.254095
    6      -12.175627
    7      -12.174898
    8      -12.093566
    9      -11.631303
   10      -11.556733
   11      -11.556026
   12      -11.478816
   13       -9.906395
   14       -9.851113
   15       -9.849691
   16       -9.794280
   17       -8.325276
   18       -8.282374
   19       -8.280738
   20       -8.234711
   21       -6.694014
   22       -6.648352
   23       -6.645993
   24       -6.599285
   25       -6.095669
   26       -6.050727
   27       -6.050216
   28       -6.004510
   29       -3.967357
   30       -3.939351
   31       -3.936662
   32       -3.907852
   33       -3.442072
   34       -2.769915
   35       -2.768503
   36       -2.764536
   37       -2.742572
   38       -2.741125
   39       -2.718583
   40       -1.971772
   41       -1.955330
   42       -1.937985
   43       -1.937090
   44       -1.919516
   45       -0.555904
   46       -0.543649
   47       -0.540143
   48       -0.528287
   49       -0.420600