  48  48   0   0
  0.8658540E+01  0.7101175E-09  0.9047601E-09  0.6468779E-09  0.5000000E-15
  1.000000000000000E-004
  CAR 
 benzene                                 
     11.24793208    -18.33004748  301     -0.82974291      1.00000000
    -18.330  0.0000E+00  0.0000E+00
    -18.231  0.0000E+00  0.0000E+00
    -18.133  0.0000E+00  0.0000E+00
    -18.034  0.0000E+00  0.0000E+00
    -17.936  0.0000E+00  0.0000E+00
    -17.837  0.0000E+00  0.0000E+00
    -17.738  0.0000E+00  0.0000E+00
    -17.640  0.0000E+00  0.0000E+00
    -17.541  0.0000E+00  0.0000E+00
    -17.443  0.0000E+00  0.0000E+00
    -17.344  0.0000E+00  0.0000E+00
    -17.246  0.0000E+00  0.0000E+00
    -17.147  0.0000E+00  0.0000E+00
    -17.048  0.0000E+00  0.0000E+00
    -16.950  0.0000E+00  0.0000E+00
    -16.851  0.0000E+00  0.0000E+00
    -16.753  0.0000E+00  0.0000E+00
    -16.654  0.0000E+00  0.0000E+00
    -16.555  0.0000E+00  0.0000E+00
    -16.457  0.0000E+00  0.0000E+00
    -16.358  0.0000E+00  0.0000E+00
    -16.260  0.5101E-01  0.1667E-02
    -16.161  0.3096E+00  0.1381E-01
    -16.062  0.1189E+00  0.3842E-01
    -15.964  0.0000E+00  0.4000E-01
    -15.865  0.0000E+00  0.4000E-01
    -15.767  0.0000E+00  0.4000E-01
    -15.668  0.0000E+00  0.4000E-01
    -15.569  0.0000E+00  0.4000E-01
    -15.471  0.0000E+00  0.4000E-01
    -15.372  0.0000E+00  0.4000E-01
    -15.274  0.0000E+00  0.4000E-01
    -15.175  0.0000E+00  0.4000E-01
    -15.076  0.0000E+00  0.4000E-01
    -14.978  0.0000E+00  0.4000E-01
    -14.879  0.0000E+00  0.4000E-01
    -14.781  0.0000E+00  0.4000E-01
    -14.682  0.0000E+00  0.4000E-01
    -14.584  0.0000E+00  0.4000E-01
    -14.485  0.0000E+00  0.4000E-01
    -14.386  0.0000E+00  0.4000E-01
    -14.288  0.0000E+00  0.4000E-01
    -14.189  0.0000E+00  0.4000E-01
    -14.091  0.0000E+00  0.4000E-01
    -13.992  0.0000E+00  0.4000E-01
    -13.893  0.0000E+00  0.4000E-01
    -13.795  0.0000E+00  0.4000E-01
    -13.696  0.0000E+00  0.4000E-01
    -13.598  0.1146E-01  0.4019E-01
    -13.499  0.6487E-01  0.4367E-01
    -13.400  0.1586E+00  0.6359E-01
    -13.302  0.2234E+00  0.8192E-01
    -13.203  0.1569E+00  0.1187E+00
    -13.105  0.0000E+00  0.1200E+00
    -13.006  0.0000E+00  0.1200E+00
    -12.907  0.0000E+00  0.1200E+00
    -12.809  0.0000E+00  0.1200E+00
    -12.710  0.0000E+00  0.1200E+00
    -12.612  0.0000E+00  0.1200E+00
    -12.513  0.0000E+00  0.1200E+00
    -12.414  0.0000E+00  0.1200E+00
    -12.316  0.0000E+00  0.1200E+00
    -12.217  0.0000E+00  0.1200E+00
    -12.119  0.0000E+00  0.1200E+00
    -12.020  0.0000E+00  0.1200E+00
    -11.921  0.0000E+00  0.1200E+00
    -11.823  0.0000E+00  0.1200E+00
    -11.724  0.0000E+00  0.1200E+00
    -11.626  0.0000E+00  0.1200E+00
    -11.527  0.0000E+00  0.1200E+00
    -11.429  0.0000E+00  0.1200E+00
    -11.330  0.0000E+00  0.1200E+00
    -11.231  0.0000E+00  0.1200E+00
    -11.133  0.0000E+00  0.1200E+00
    -11.034  0.0000E+00  0.1200E+00
    -10.936  0.0000E+00  0.1200E+00
    -10.837  0.0000E+00  0.1200E+00
    -10.738  0.0000E+00  0.1200E+00
    -10.640  0.0000E+00  0.1200E+00
    -10.541  0.0000E+00  0.1200E+00
    -10.443  0.0000E+00  0.1200E+00
    -10.344  0.0000E+00  0.1200E+00
    -10.245  0.0000E+00  0.1200E+00
    -10.147  0.0000E+00  0.1200E+00
    -10.048  0.0000E+00  0.1200E+00
     -9.950  0.0000E+00  0.1200E+00
     -9.851  0.2499E+00  0.1290E+00
     -9.752  0.2197E+00  0.1542E+00
     -9.654  0.3082E+00  0.1689E+00
     -9.555  0.1667E+00  0.1901E+00
     -9.457  0.3316E-01  0.1987E+00
     -9.358  0.4458E-03  0.2000E+00
     -9.259  0.0000E+00  0.2000E+00
     -9.161  0.0000E+00  0.2000E+00
     -9.062  0.0000E+00  0.2000E+00
     -8.964  0.0000E+00  0.2000E+00
     -8.865  0.0000E+00  0.2000E+00
     -8.767  0.0000E+00  0.2000E+00
     -8.668  0.0000E+00  0.2000E+00
     -8.569  0.0000E+00  0.2000E+00
     -8.471  0.0000E+00  0.2000E+00
     -8.372  0.0000E+00  0.2000E+00
     -8.274  0.0000E+00  0.2000E+00
     -8.175  0.1904E-01  0.2009E+00
     -8.076  0.2755E-01  0.2032E+00
     -7.978  0.3911E-01  0.2064E+00
     -7.879  0.5960E-01  0.2112E+00
     -7.781  0.5625E-01  0.2192E+00
     -7.682  0.9438E-01  0.2288E+00
     -7.583  0.4191E-01  0.2348E+00
     -7.485  0.2177E-01  0.2379E+00
     -7.386  0.9868E-02  0.2395E+00
     -7.288  0.1278E-02  0.2400E+00
     -7.189  0.0000E+00  0.2400E+00
     -7.090  0.0000E+00  0.2400E+00
     -6.992  0.0000E+00  0.2400E+00
     -6.893  0.0000E+00  0.2400E+00
     -6.795  0.0000E+00  0.2400E+00
     -6.696  0.0000E+00  0.2400E+00
     -6.597  0.0000E+00  0.2400E+00
     -6.499  0.2400E-02  0.2400E+00
     -6.400  0.1903E-01  0.2410E+00
     -6.302  0.3792E-01  0.2437E+00
     -6.203  0.1033E+00  0.2499E+00
     -6.104  0.6008E-01  0.2606E+00
     -6.006  0.9296E-01  0.2682E+00
     -5.907  0.5752E-01  0.2758E+00
     -5.809  0.1220E+00  0.2821E+00
     -5.710  0.1703E+00  0.3189E+00
     -5.612  0.0000E+00  0.3200E+00
     -5.513  0.1803E-01  0.3205E+00
     -5.414  0.2108E+00  0.3329E+00
     -5.316  0.9176E-01  0.3477E+00
     -5.217  0.4985E-01  0.3553E+00
     -5.119  0.2564E-01  0.3589E+00
     -5.020  0.8908E-01  0.3622E+00
     -4.921  0.1421E+00  0.3748E+00
     -4.823  0.1514E+00  0.3877E+00
     -4.724  0.2988E-01  0.3991E+00
     -4.626  0.3804E-03  0.4000E+00
     -4.527  0.0000E+00  0.4000E+00
     -4.428  0.0000E+00  0.4000E+00
     -4.330  0.0000E+00  0.4000E+00
     -4.231  0.6274E-03  0.4000E+00
     -4.133  0.4036E-01  0.4018E+00
     -4.034  0.7555E-01  0.4077E+00
     -3.935  0.8328E-01  0.4178E+00
     -3.837  0.1533E+00  0.4278E+00
     -3.738  0.4770E-01  0.4384E+00
     -3.640  0.2197E-02  0.4400E+00
     -3.541  0.0000E+00  0.4400E+00
     -3.442  0.1304E-02  0.4400E+00
     -3.344  0.8897E-02  0.4404E+00
     -3.245  0.9132E-01  0.4443E+00
     -3.147  0.2174E+00  0.4639E+00
     -3.048  0.4108E-01  0.4796E+00
     -2.949  0.2527E+00  0.4925E+00
     -2.851  0.1764E+00  0.5135E+00
     -2.752  0.1631E-01  0.5196E+00
     -2.654  0.0000E+00  0.5200E+00
     -2.555  0.0000E+00  0.5200E+00
     -2.457  0.0000E+00  0.5200E+00
     -2.358  0.0000E+00  0.5200E+00
     -2.259  0.0000E+00  0.5200E+00
     -2.161  0.0000E+00  0.5200E+00
     -2.062  0.0000E+00  0.5200E+00
     -1.964  0.0000E+00  0.5200E+00
     -1.865  0.0000E+00  0.5200E+00
     -1.766  0.0000E+00  0.5200E+00
     -1.668  0.8863E-02  0.5201E+00
     -1.569  0.6268E-01  0.5235E+00
     -1.471  0.9158E-01  0.5306E+00
     -1.372  0.1899E+00  0.5436E+00
     -1.273  0.2920E-01  0.5600E+00
     -1.175  0.1964E+00  0.5713E+00
     -1.076  0.1348E+00  0.5886E+00
     -0.978  0.5400E-01  0.5974E+00
     -0.879  0.4288E-02  0.5999E+00
     -0.780  0.0000E+00  0.6000E+00
     -0.682  0.0000E+00  0.6000E+00
     -0.583  0.0000E+00  0.6000E+00
     -0.485  0.0000E+00  0.6000E+00
     -0.386  0.0000E+00  0.6000E+00
     -0.287  0.0000E+00  0.6000E+00
     -0.189  0.0000E+00  0.6000E+00
     -0.090  0.0000E+00  0.6000E+00
      0.008  0.0000E+00  0.6000E+00
      0.107  0.0000E+00  0.6000E+00
      0.205  0.0000E+00  0.6000E+00
      0.304  0.0000E+00  0.6000E+00
      0.403  0.0000E+00  0.6000E+00
      0.501  0.0000E+00  0.6000E+00
      0.600  0.0000E+00  0.6000E+00
      0.698  0.0000E+00  0.6000E+00
      0.797  0.0000E+00  0.6000E+00
      0.896  0.0000E+00  0.6000E+00
      0.994  0.0000E+00  0.6000E+00
      1.093  0.0000E+00  0.6000E+00
      1.191  0.0000E+00  0.6000E+00
      1.290  0.0000E+00  0.6000E+00
      1.389  0.0000E+00  0.6000E+00
      1.487  0.0000E+00  0.6000E+00
      1.586  0.0000E+00  0.6000E+00
      1.684  0.0000E+00  0.6000E+00
      1.783  0.0000E+00  0.6000E+00
      1.882  0.0000E+00  0.6000E+00
      1.980  0.0000E+00  0.6000E+00
      2.079  0.0000E+00  0.6000E+00
      2.177  0.0000E+00  0.6000E+00
      2.276  0.0000E+00  0.6000E+00
      2.375  0.0000E+00  0.6000E+00
      2.473  0.0000E+00  0.6000E+00
      2.572  0.0000E+00  0.6000E+00
      2.670  0.0000E+00  0.6000E+00
      2.769  0.0000E+00  0.6000E+00
      2.868  0.0000E+00  0.6000E+00
      2.966  0.0000E+00  0.6000E+00
      3.065  0.0000E+00  0.6000E+00
      3.163  0.0000E+00  0.6000E+00
      3.262  0.0000E+00  0.6000E+00
      3.360  0.0000E+00  0.6000E+00
      3.459  0.4843E-01  0.6013E+00
      3.558  0.1683E+00  0.6175E+00
      3.656  0.8648E-01  0.6280E+00
      3.755  0.6481E-01  0.6374E+00
      3.853  0.1067E+00  0.6416E+00
      3.952  0.1047E+00  0.6536E+00
      4.051  0.1257E+00  0.6642E+00
      4.149  0.7180E-01  0.6758E+00
      4.248  0.1253E-01  0.6796E+00
      4.346  0.1945E-03  0.6800E+00
      4.445  0.0000E+00  0.6800E+00
      4.544  0.0000E+00  0.6800E+00
      4.642  0.0000E+00  0.6800E+00
      4.741  0.0000E+00  0.6800E+00
      4.839  0.0000E+00  0.6800E+00
      4.938  0.0000E+00  0.6800E+00
      5.037  0.0000E+00  0.6800E+00
      5.135  0.0000E+00  0.6800E+00
      5.234  0.2489E-03  0.6800E+00
      5.332  0.1490E-02  0.6801E+00
      5.431  0.3582E-02  0.6803E+00
      5.530  0.6119E-02  0.6808E+00
      5.628  0.7239E-02  0.6815E+00
      5.727  0.8079E-02  0.6822E+00
      5.825  0.1009E-01  0.6831E+00
      5.924  0.1257E-01  0.6842E+00
      6.022  0.1553E-01  0.6856E+00
      6.121  0.2404E-01  0.6874E+00
      6.220  0.4446E-01  0.6909E+00
      6.318  0.5694E-01  0.6959E+00
      6.417  0.4408E-01  0.7013E+00
      6.515  0.5481E-01  0.7066E+00
      6.614  0.4339E-01  0.7112E+00
      6.713  0.3186E-01  0.7150E+00
      6.811  0.1895E-01  0.7173E+00
      6.910  0.1434E-01  0.7189E+00
      7.008  0.1132E+00  0.7248E+00
      7.107  0.8226E-01  0.7363E+00
      7.206  0.8192E-01  0.7431E+00
      7.304  0.6498E-01  0.7506E+00
      7.403  0.6118E-01  0.7568E+00
      7.501  0.9582E-01  0.7641E+00
      7.600  0.1041E+00  0.7756E+00
      7.699  0.1056E+00  0.7869E+00
      7.797  0.5922E-01  0.7949E+00
      7.896  0.4416E-01  0.7994E+00
      7.994  0.4454E-01  0.8037E+00
      8.093  0.7398E-01  0.8099E+00
      8.192  0.5828E-01  0.8164E+00
      8.290  0.5755E-01  0.8227E+00
      8.389  0.8170E-01  0.8291E+00
      8.487  0.3838E-01  0.8354E+00
      8.586  0.2213E-01  0.8382E+00
      8.685  0.2218E-01  0.8400E+00
      8.783  0.4790E-01  0.8435E+00
      8.882  0.8705E-01  0.8501E+00
      8.980  0.4377E-01  0.8571E+00
      9.079  0.1141E-01  0.8595E+00
      9.177  0.9920E-03  0.8600E+00
      9.276  0.0000E+00  0.8600E+00
      9.375  0.0000E+00  0.8600E+00
      9.473  0.0000E+00  0.8600E+00
      9.572  0.0000E+00  0.8600E+00
      9.670  0.0000E+00  0.8600E+00
      9.769  0.0000E+00  0.8600E+00
      9.868  0.0000E+00  0.8600E+00
      9.966  0.0000E+00  0.8600E+00
     10.065  0.0000E+00  0.8600E+00
     10.163  0.0000E+00  0.8600E+00
     10.262  0.0000E+00  0.8600E+00
     10.361  0.0000E+00  0.8600E+00
     10.459  0.0000E+00  0.8600E+00
     10.558  0.0000E+00  0.8600E+00
     10.656  0.0000E+00  0.8600E+00
     10.755  0.0000E+00  0.8600E+00
     10.854  0.0000E+00  0.8600E+00
     10.952  0.0000E+00  0.8600E+00
     11.051  0.0000E+00  0.8600E+00
     11.149  0.0000E+00  0.8600E+00
     11.248  0.0000E+00  0.8600E+00
