   48   48  200    1
  0.8658540E+01  0.7101174E-09  0.9047601E-09  0.6468779E-09  0.5000000E-15
  1.000000000000000E-004
  CAR 
 benzene                                 
    120     27     86
 
  0.0000000E+00  0.0000000E+00  0.0000000E+00  0.1562500E-01
    1      -16.330047
    2      -16.149633
    3      -16.057669
    4      -16.026265
    5      -13.648586
    6      -13.430314
    7      -13.372740
    8      -13.316034
    9      -13.281038
   10      -13.221773
   11      -13.209726
   12      -13.168365
   13       -9.907863
   14       -9.889961
   15       -9.815185
   16       -9.745523
   17       -9.677229
   18       -9.643008
   19       -9.585863
   20       -9.344787
   21       -8.267870
   22       -7.751827
   23       -7.688519
   24       -7.236880
   25       -6.546340
   26       -6.287455
   27       -5.969098
   28       -5.905214
   29       -5.864392
   30       -5.851237
   31       -5.708141
   32       -5.703479
   33       -5.596851
   34       -5.593693
   35       -5.379149
   36       -5.006628
   37       -4.955278
   38       -4.912381
   39       -4.871414
   40       -4.610836
   41       -3.909644
   42       -3.749006
   43       -3.647106
   44       -3.588674
   45       -3.525311
   46       -3.414903
   47       -3.386125
   48       -3.224163
   49       -2.955977
   50       -2.948792
   51       -2.935970
   52       -2.684844
   53       -1.683627
   54       -1.645945
   55       -1.459182
   56       -1.405177
   57       -1.088358
   58       -1.014090
   59       -0.894479
   60       -0.844606
   61        3.490774
   62        3.520360
   63        3.651739
   64        3.794584
   65        3.845991
   66        3.933308
   67        4.163400
   68        4.362155
   69        5.165584
   70        6.219780
   71        6.279230
   72        7.052108
   73        7.217016
   74        7.378241
   75        7.394829
   76        7.538386
   77        7.664079
   78        7.671800
   79        7.858906
   80        7.881843
   81        7.902101
   82        8.208424
   83        8.569957
   84        8.661031
   85        8.676184
   86        9.143699
 
  0.2500000E+00  0.0000000E+00  0.0000000E+00  0.3125000E-01
    1      -16.293506
    2      -16.131918
    3      -16.101379
    4      -16.044696
    5      -13.604139
    6      -13.416379
    7      -13.360686
    8      -13.318562
    9      -13.318366
   10      -13.242652
   11      -13.208964
   12      -13.177772
   13       -9.849203
   14       -9.820839
   15       -9.814295
   16       -9.764024
   17       -9.670632
   18       -9.644909
   19       -9.633474
   20       -9.423524
   21       -8.241806
   22       -7.893053
   23       -7.634553
   24       -7.323124
   25       -6.495868
   26       -6.308377
   27       -5.844043
   28       -5.831007
   29       -5.829471
   30       -5.815582
   31       -5.698233
   32       -5.696884
   33       -5.459414
   34       -5.443919
   35       -5.398086
   36       -5.121746
   37       -4.944199
   38       -4.897860
   39       -4.892418
   40       -4.673835
   41       -4.145226
   42       -3.977008
   43       -3.788680
   44       -3.758520
   45       -3.338566
   46       -3.264207
   47       -3.225517
   48       -3.170799
   49       -2.949488
   50       -2.930445
   51       -2.895712
   52       -2.722407
   53       -1.579095
   54       -1.565393
   55       -1.466123
   56       -1.434441
   57       -1.094725
   58       -1.081167
   59       -0.984378
   60       -0.969121
   61        3.545560
   62        3.602045
   63        3.677307
   64        3.797781
   65        3.846827
   66        3.865101
   67        4.040086
   68        4.202408
   69        5.418803
   70        6.332309
   71        6.409474
   72        6.931876
   73        7.060711
   74        7.364578
   75        7.430448
   76        7.473706
   77        7.508420
   78        7.703229
   79        7.866630
   80        7.957935
   81        8.040684
   82        8.317427
   83        8.468836
   84        8.765686
   85        8.892380
   86        9.084209
 
  0.5000000E+00  0.0000000E+00  0.0000000E+00  0.1562500E-01
    1      -16.200959
    2      -16.200959
    3      -16.088691
    4      -16.088690
    5      -13.493858
    6      -13.493857
    7      -13.335042
    8      -13.335041
    9      -13.296820
   10      -13.296819
   11      -13.197464
   12      -13.197463
   13       -9.800385
   14       -9.800384
   15       -9.742198
   16       -9.742198
   17       -9.656012
   18       -9.656012
   19       -9.617664
   20       -9.617663
   21       -8.118748
   22       -8.118747
   23       -7.492836
   24       -7.492836
   25       -6.391083
   26       -6.391083
   27       -5.817711
   28       -5.817711
   29       -5.702979
   30       -5.702978
   31       -5.692460
   32       -5.692460
   33       -5.385724
   34       -5.385723
   35       -5.102976
   36       -5.102976
   37       -5.050239
   38       -5.050238
   39       -4.808865
   40       -4.808864
   41       -4.242654
   42       -4.242654
   43       -3.926497
   44       -3.926497
   45       -3.191597
   46       -3.191596
   47       -3.037845
   48       -3.037845
   49       -3.000880
   50       -3.000880
   51       -2.804736
   52       -2.804736
   53       -1.472642
   54       -1.472642
   55       -1.343887
   56       -1.343887
   57       -1.297161
   58       -1.297160
   59       -1.046216
   60       -1.046215
   61        3.681240
   62        3.681241
   63        3.757944
   64        3.757944
   65        3.843423
   66        3.843424
   67        3.921418
   68        3.921419
   69        6.082178
   70        6.082179
   71        6.480659
   72        6.480659
   73        7.188069
   74        7.188070
   75        7.585071
   76        7.585071
   77        7.641017
   78        7.641019
   79        7.895829
   80        7.895830
   81        8.472969
   82        8.472970
   83        8.525690
   84        8.525690
   85        8.764955
   86        8.764956
 
  0.0000000E+00  0.2500000E+00  0.0000000E+00  0.3125000E-01
    1      -16.306096
    2      -16.178865
    3      -16.053134
    4      -16.030910
    5      -13.581222
    6      -13.413612
    7      -13.357981
    8      -13.332615
    9      -13.271546
   10      -13.243342
   11      -13.234507
   12      -13.221363
   13       -9.875027
   14       -9.825880
   15       -9.807532
   16       -9.718178
   17       -9.683308
   18       -9.659301
   19       -9.621359
   20       -9.426586
   21       -8.159135
   22       -7.748454
   23       -7.701054
   24       -7.461145
   25       -6.446539
   26       -6.185063
   27       -5.997154
   28       -5.827513
   29       -5.826187
   30       -5.804254
   31       -5.728095
   32       -5.717672
   33       -5.587140
   34       -5.516828
   35       -5.369084
   36       -5.098711
   37       -5.017564
   38       -5.002341
   39       -4.954954
   40       -4.729615
   41       -3.890105
   42       -3.749975
   43       -3.728088
   44       -3.653551
   45       -3.339994
   46       -3.295029
   47       -3.281979
   48       -3.122018
   49       -2.997087
   50       -2.975698
   51       -2.953132
   52       -2.747137
   53       -1.690906
   54       -1.673494
   55       -1.390292
   56       -1.359379
   57       -1.139046
   58       -1.059396
   59       -0.909388
   60       -0.857778
   61        3.486630
   62        3.510174
   63        3.690365
   64        3.791093
   65        3.866669
   66        3.983295
   67        4.092907
   68        4.285634
   69        5.343339
   70        6.182119
   71        6.392734
   72        6.968896
   73        7.030330
   74        7.033631
   75        7.453418
   76        7.629869
   77        7.679966
   78        7.696555
   79        7.744509
   80        7.984374
   81        8.156847
   82        8.259411
   83        8.424184
   84        8.665437
   85        8.704672
   86        8.975286
 
  0.2500000E+00  0.2500000E+00  0.0000000E+00  0.6250000E-01
    1      -16.271782
    2      -16.157790
    3      -16.093265
    4      -16.053193
    5      -13.548478
    6      -13.407836
    7      -13.352521
    8      -13.344022
    9      -13.282641
   10      -13.282495
   11      -13.219089
   12      -13.212679
   13       -9.810495
   14       -9.803743
   15       -9.801254
   16       -9.739779
   17       -9.682620
   18       -9.659549
   19       -9.654304
   20       -9.490906
   21       -8.133147
   22       -7.847732
   23       -7.663777
   24       -7.496297
   25       -6.408839
   26       -6.213289
   27       -5.941409
   28       -5.872521
   29       -5.792744
   30       -5.754201
   31       -5.723599
   32       -5.715218
   33       -5.451011
   34       -5.417821
   35       -5.298978
   36       -5.237500
   37       -5.024826
   38       -4.903584
   39       -4.900269
   40       -4.735011
   41       -4.088646
   42       -3.954752
   43       -3.842542
   44       -3.802525
   45       -3.249110
   46       -3.182863
   47       -3.168778
   48       -3.103372
   49       -2.975251
   50       -2.960767
   51       -2.911589
   52       -2.784249
   53       -1.602229
   54       -1.566422
   55       -1.404780
   56       -1.378482
   57       -1.135928
   58       -1.104192
   59       -1.024049
   60       -0.985066
   61        3.529541
   62        3.601206
   63        3.685590
   64        3.791669
   65        3.865130
   66        3.924035
   67        4.007617
   68        4.156779
   69        5.582642
   70        6.324080
   71        6.493180
   72        7.004911
   73        7.041325
   74        7.075076
   75        7.216080
   76        7.446656
   77        7.522696
   78        7.812750
   79        7.885885
   80        7.914205
   81        8.115338
   82        8.257456
   83        8.351497
   84        8.657641
   85        8.889263
   86        8.974248
 
  0.5000000E+00  0.2500000E+00  0.0000000E+00  0.3125000E-01
    1      -16.185411
    2      -16.185411
    3      -16.106094
    4      -16.106094
    5      -13.468374
    6      -13.468374
    7      -13.332401
    8      -13.332401
    9      -13.310452
   10      -13.310451
   11      -13.210432
   12      -13.210431
   13       -9.780352
   14       -9.780351
   15       -9.741000
   16       -9.740999
   17       -9.667066
   18       -9.667066
   19       -9.645797
   20       -9.645796
   21       -8.024638
   22       -8.024638
   23       -7.578451
   24       -7.578451
   25       -6.310624
   26       -6.310623
   27       -5.889169
   28       -5.889168
   29       -5.740160
   30       -5.740160
   31       -5.713093
   32       -5.713092
   33       -5.380513
   34       -5.380512
   35       -5.154309
   36       -5.154309
   37       -4.995946
   38       -4.995945
   39       -4.773574
   40       -4.773573
   41       -4.188644
   42       -4.188643
   43       -3.984266
   44       -3.984265
   45       -3.137984
   46       -3.137983
   47       -3.018512
   48       -3.018512
   49       -3.007366
   50       -3.007365
   51       -2.850164
   52       -2.850163
   53       -1.436906
   54       -1.436906
   55       -1.318393
   56       -1.318392
   57       -1.300748
   58       -1.300747
   59       -1.107768
   60       -1.107767
   61        3.647472
   62        3.647473
   63        3.767413
   64        3.767413
   65        3.848183
   66        3.848184
   67        3.950118
   68        3.950119
   69        6.206185
   70        6.206187
   71        6.560158
   72        6.560158
   73        7.099593
   74        7.099594
   75        7.411407
   76        7.411408
   77        7.534229
   78        7.534230
   79        7.951948
   80        7.951949
   81        8.333407
   82        8.333408
   83        8.390932
   84        8.390933
   85        8.964010
   86        8.964010
 
  0.0000000E+00  0.5000000E+00  0.0000000E+00  0.1562500E-01
    1      -16.245101
    2      -16.245099
    3      -16.042091
    4      -16.042089
    5      -13.422540
    6      -13.422539
    7      -13.373070
    8      -13.373069
    9      -13.288738
   10      -13.288736
   11      -13.247527
   12      -13.247526
   13       -9.815164
   14       -9.815163
   15       -9.713901
   16       -9.713899
   17       -9.679000
   18       -9.678999
   19       -9.604484
   20       -9.604482
   21       -7.856245
   22       -7.856241
   23       -7.729060
   24       -7.729059
   25       -6.208048
   26       -6.208047
   27       -5.948025
   28       -5.948025
   29       -5.772003
   30       -5.772002
   31       -5.765210
   32       -5.765209
   33       -5.392131
   34       -5.392129
   35       -5.289022
   36       -5.289020
   37       -5.048393
   38       -5.048389
   39       -5.010536
   40       -5.010535
   41       -3.823962
   42       -3.823960
   43       -3.722688
   44       -3.722686
   45       -3.118820
   46       -3.118820
   47       -3.117705
   48       -3.117704
   49       -3.054351
   50       -3.054350
   51       -2.916083
   52       -2.916080
   53       -1.702397
   54       -1.702396
   55       -1.250439
   56       -1.250438
   57       -1.221237
   58       -1.221236
   59       -0.889462
   60       -0.889460
   61        3.489069
   62        3.489069
   63        3.758063
   64        3.758064
   65        3.958153
   66        3.958154
   67        4.121745
   68        4.121746
   69        5.803841
   70        5.803847
   71        6.645378
   72        6.645383
   73        6.921921
   74        6.921924
   75        7.575837
   76        7.575838
   77        7.728371
   78        7.728372
   79        7.835959
   80        7.835964
   81        8.273240
   82        8.273241
   83        8.478483
   84        8.478489
   85        8.901306
   86        8.901310
 
  0.2500000E+00  0.5000000E+00  0.0000000E+00  0.3125000E-01
    1      -16.216873
    2      -16.216871
    3      -16.073430
    4      -16.073429
    5      -13.418213
    6      -13.418212
    7      -13.384333
    8      -13.384332
    9      -13.277031
   10      -13.277029
   11      -13.246459
   12      -13.246458
   13       -9.791195
   14       -9.791194
   15       -9.720178
   16       -9.720177
   17       -9.687817
   18       -9.687816
   19       -9.633115
   20       -9.633113
   21       -7.843211
   22       -7.843208
   23       -7.747924
   24       -7.747923
   25       -6.183034
   26       -6.183033
   27       -5.991759
   28       -5.991759
   29       -5.760915
   30       -5.760914
   31       -5.756161
   32       -5.756160
   33       -5.376748
   34       -5.376747
   35       -5.274897
   36       -5.274894
   37       -4.977143
   38       -4.977140
   39       -4.898687
   40       -4.898687
   41       -3.965723
   42       -3.965721
   43       -3.884465
   44       -3.884464
   45       -3.099359
   46       -3.099358
   47       -3.051388
   48       -3.051387
   49       -3.000447
   50       -3.000446
   51       -2.939870
   52       -2.939868
   53       -1.595545
   54       -1.595543
   55       -1.257502
   56       -1.257502
   57       -1.247366
   58       -1.247365
   59       -1.013280
   60       -1.013279
   61        3.552073
   62        3.552074
   63        3.737160
   64        3.737161
   65        3.934757
   66        3.934758
   67        4.049756
   68        4.049757
   69        6.003338
   70        6.003344
   71        6.705637
   72        6.705640
   73        7.005310
   74        7.005314
   75        7.366997
   76        7.367001
   77        7.722149
   78        7.722150
   79        7.790150
   80        7.790151
   81        8.136429
   82        8.136430
   83        8.344935
   84        8.344941
   85        9.071981
   86        9.072756
 
  0.5000000E+00  0.5000000E+00  0.0000000E+00  0.1562500E-01
    1      -16.146675
    2      -16.146674
    3      -16.146673
    4      -16.146672
    5      -13.404319
    6      -13.404318
    7      -13.404318
    8      -13.404317
    9      -13.255734
   10      -13.255734
   11      -13.255733
   12      -13.255733
   13       -9.739440
   14       -9.739440
   15       -9.739439
   16       -9.739438
   17       -9.686550
   18       -9.686549
   19       -9.686549
   20       -9.686549
   21       -7.798293
   22       -7.798293
   23       -7.798291
   24       -7.798291
   25       -6.101909
   26       -6.101908
   27       -6.101908
   28       -6.101908
   29       -5.745931
   30       -5.745931
   31       -5.745930
   32       -5.745930
   33       -5.302928
   34       -5.302927
   35       -5.302926
   36       -5.302926
   37       -4.829404
   38       -4.829403
   39       -4.829402
   40       -4.829401
   41       -4.086659
   42       -4.086659
   43       -4.086658
   44       -4.086658
   45       -3.043767
   46       -3.043766
   47       -3.043766
   48       -3.043765
   49       -2.955054
   50       -2.955054
   51       -2.955053
   52       -2.955052
   53       -1.352262
   54       -1.352262
   55       -1.352261
   56       -1.352260
   57       -1.230986
   58       -1.230985
   59       -1.230985
   60       -1.230985
   61        3.675316
   62        3.675316
   63        3.675317
   64        3.675317
   65        3.936503
   66        3.936503
   67        3.936504
   68        3.936504
   69        6.480478
   70        6.480479
   71        6.480483
   72        6.480484
   73        7.115333
   74        7.115334
   75        7.115336
   76        7.115337
   77        7.750333
   78        7.750334
   79        7.750335
   80        7.750336
   81        8.173539
   82        8.173540
   83        8.173541
   84        8.173542
   85        9.164630
   86        9.164632
 
  0.0000000E+00  0.0000000E+00  0.2500000E+00  0.3125000E-01
    1      -16.288157
    2      -16.135181
    3      -16.073581
    4      -16.070071
    5      -13.590976
    6      -13.409954
    7      -13.370646
    8      -13.313819
    9      -13.274895
   10      -13.272118
   11      -13.238174
   12      -13.193813
   13       -9.892034
   14       -9.878816
   15       -9.769765
   16       -9.751827
   17       -9.704133
   18       -9.648654
   19       -9.568957
   20       -9.395157
   21       -8.246438
   22       -7.851222
   23       -7.674819
   24       -7.317043
   25       -6.409468
   26       -6.213856
   27       -5.968014
   28       -5.917139
   29       -5.845592
   30       -5.811397
   31       -5.737287
   32       -5.707628
   33       -5.486753
   34       -5.417947
   35       -5.417569
   36       -5.084718
   37       -4.941739
   38       -4.891546
   39       -4.877231
   40       -4.681685
   41       -4.097106
   42       -3.928593
   43       -3.828650
   44       -3.811422
   45       -3.346237
   46       -3.264029
   47       -3.210527
   48       -3.112427
   49       -2.941586
   50       -2.939767
   51       -2.853051
   52       -2.784103
   53       -1.563511
   54       -1.530162
   55       -1.444627
   56       -1.340840
   57       -1.170699
   58       -1.076441
   59       -0.997048
   60       -0.944764
   61        3.587785
   62        3.592671
   63        3.672227
   64        3.808374
   65        3.834166
   66        3.893498
   67        4.053310
   68        4.246879
   69        5.465402
   70        6.377220
   71        6.504275
   72        6.994071
   73        7.032870
   74        7.129180
   75        7.333079
   76        7.487977
   77        7.531167
   78        7.533786
   79        7.608872
   80        7.684676
   81        7.910661
   82        8.411133
   83        8.462346
   84        8.669104
   85        8.706337
   86        8.983262
 
  0.2500000E+00  0.0000000E+00  0.2500000E+00  0.6250000E-01
    1      -16.258010
    2      -16.125596
    3      -16.103941
    4      -16.081993
    5      -13.554424
    6      -13.394505
    7      -13.370917
    8      -13.319115
    9      -13.318768
   10      -13.265202
   11      -13.251441
   12      -13.200622
   13       -9.846446
   14       -9.821500
   15       -9.773764
   16       -9.747442
   17       -9.693307
   18       -9.647780
   19       -9.614195
   20       -9.465202
   21       -8.190321
   22       -7.796206
   23       -7.770679
   24       -7.391680
   25       -6.375791
   26       -6.237883
   27       -5.904387
   28       -5.848463
   29       -5.827690
   30       -5.803685
   31       -5.726712
   32       -5.717233
   33       -5.424854
   34       -5.411163
   35       -5.384206
   36       -5.050554
   37       -5.029154
   38       -4.966513
   39       -4.910447
   40       -4.743826
   41       -4.210485
   42       -3.980788
   43       -3.819584
   44       -3.680123
   45       -3.309098
   46       -3.186097
   47       -3.167547
   48       -3.106507
   49       -2.954926
   50       -2.945765
   51       -2.876219
   52       -2.805663
   53       -1.498392
   54       -1.472519
   55       -1.425553
   56       -1.354817
   57       -1.174362
   58       -1.116647
   59       -1.041868
   60       -1.032358
   61        3.563894
   62        3.565155
   63        3.694243
   64        3.733892
   65        3.864561
   66        3.906143
   67        3.946180
   68        4.180684
   69        5.609614
   70        6.421524
   71        6.431651
   72        6.792061
   73        7.022456
   74        7.190230
   75        7.289721
   76        7.424942
   77        7.428891
   78        7.595326
   79        7.596659
   80        7.924033
   81        7.939992
   82        8.259451
   83        8.425805
   84        8.533778
   85        8.845661
   86        8.903222
 
  0.5000000E+00  0.0000000E+00  0.2500000E+00  0.3125000E-01
    1      -16.182812
    2      -16.182812
    3      -16.103236
    4      -16.103235
    5      -13.460876
    6      -13.460876
    7      -13.352048
    8      -13.352048
    9      -13.301562
   10      -13.301562
   11      -13.228226
   12      -13.228225
   13       -9.790317
   14       -9.790316
   15       -9.706712
   16       -9.706711
   17       -9.689211
   18       -9.689211
   19       -9.618545
   20       -9.618545
   21       -8.023565
   22       -8.023564
   23       -7.579243
   24       -7.579243
   25       -6.297142
   26       -6.297141
   27       -5.821433
   28       -5.821433
   29       -5.802176
   30       -5.802176
   31       -5.714072
   32       -5.714072
   33       -5.327238
   34       -5.327238
   35       -5.242278
   36       -5.242278
   37       -5.120644
   38       -5.120644
   39       -4.872180
   40       -4.872179
   41       -4.027285
   42       -4.027285
   43       -3.826676
   44       -3.826675
   45       -3.152369
   46       -3.152368
   47       -3.046686
   48       -3.046686
   49       -3.030417
   50       -3.030417
   51       -2.864782
   52       -2.864782
   53       -1.410401
   54       -1.410400
   55       -1.320598
   56       -1.320597
   57       -1.261569
   58       -1.261568
   59       -1.087644
   60       -1.087644
   61        3.578402
   62        3.578403
   63        3.631272
   64        3.631272
   65        3.927519
   66        3.927519
   67        3.976882
   68        3.976883
   69        6.077231
   70        6.077232
   71        6.395562
   72        6.395562
   73        7.178188
   74        7.178189
   75        7.431171
   76        7.431171
   77        7.597930
   78        7.597930
   79        7.628373
   80        7.628374
   81        8.187921
   82        8.187922
   83        8.339032
   84        8.339032
   85        9.139114
   86        9.139114
 
  0.0000000E+00  0.2500000E+00  0.2500000E+00  0.6250000E-01
    1      -16.267495
    2      -16.159528
    3      -16.072957
    4      -16.070495
    5      -13.541602
    6      -13.415089
    7      -13.360772
    8      -13.334235
    9      -13.296608
   10      -13.271945
   11      -13.226284
   12      -13.218377
   13       -9.908010
   14       -9.840532
   15       -9.795735
   16       -9.715389
   17       -9.714167
   18       -9.646371
   19       -9.561439
   20       -9.440739
   21       -8.139684
   22       -7.819971
   23       -7.700595
   24       -7.502642
   25       -6.335071
   26       -6.156825
   27       -6.013104
   28       -5.860312
   29       -5.811245
   30       -5.801968
   31       -5.751072
   32       -5.721318
   33       -5.444803
   34       -5.392709
   35       -5.385836
   36       -5.221915
   37       -4.972086
   38       -4.933786
   39       -4.829008
   40       -4.792318
   41       -4.055455
   42       -3.941799
   43       -3.849373
   44       -3.825464
   45       -3.245894
   46       -3.234223
   47       -3.180730
   48       -3.032359
   49       -3.015113
   50       -2.953503
   51       -2.848932
   52       -2.783530
   53       -1.578216
   54       -1.574062
   55       -1.358793
   56       -1.336135
   57       -1.214446
   58       -1.101436
   59       -1.002624
   60       -0.946747
   61        3.521333
   62        3.528119
   63        3.754109
   64        3.809127
   65        3.816861
   66        3.861606
   67        4.112963
   68        4.232080
   69        5.633140
   70        6.376216
   71        6.614292
   72        6.864381
   73        6.965255
   74        7.175886
   75        7.273144
   76        7.418633
   77        7.441159
   78        7.549770
   79        7.668427
   80        7.681848
   81        8.114627
   82        8.286264
   83        8.425257
   84        8.565245
   85        8.653944
   86        8.846952
 
  0.2500000E+00  0.2500000E+00  0.2500000E+00  0.1250000E+00
    1      -16.239856
    2      -16.146357
    3      -16.100616
    4      -16.085094
    5      -13.521274
    6      -13.416728
    7      -13.384973
    8      -13.340981
    9      -13.308519
   10      -13.263895
   11      -13.231257
   12      -13.202107
   13       -9.873622
   14       -9.831624
   15       -9.801941
   16       -9.734353
   17       -9.686023
   18       -9.637515
   19       -9.578959
   20       -9.492276
   21       -8.086384
   22       -7.776656
   23       -7.752290
   24       -7.525061
   25       -6.318227
   26       -6.191193
   27       -6.005446
   28       -5.902667
   29       -5.793492
   30       -5.774449
   31       -5.739290
   32       -5.729617
   33       -5.458419
   34       -5.424296
   35       -5.396085
   36       -5.112345
   37       -5.008779
   38       -4.935632
   39       -4.844876
   40       -4.730320
   41       -4.201465
   42       -3.987622
   43       -3.797143
   44       -3.697969
   45       -3.275271
   46       -3.209746
   47       -3.138152
   48       -3.076850
   49       -2.984763
   50       -2.951449
   51       -2.867851
   52       -2.806604
   53       -1.528472
   54       -1.505815
   55       -1.347822
   56       -1.335467
   57       -1.215094
   58       -1.123717
   59       -1.070108
   60       -1.018449
   61        3.491515
   62        3.517701
   63        3.659688
   64        3.738433
   65        3.838839
   66        3.920819
   67        4.074852
   68        4.196783
   69        5.760994
   70        6.426735
   71        6.519004
   72        6.868979
   73        6.942162
   74        7.054104
   75        7.191795
   76        7.309644
   77        7.502831
   78        7.617905
   79        7.714523
   80        7.805929
   81        8.022006
   82        8.226311
   83        8.355684
   84        8.499007
   85        8.688926
   86        8.889486
 
  0.5000000E+00  0.2500000E+00  0.2500000E+00  0.6250000E-01
    1      -16.171474
    2      -16.171474
    3      -16.115213
    4      -16.115213
    5      -13.465761
    6      -13.465761
    7      -13.379925
    8      -13.379924
    9      -13.282540
   10      -13.282539
   11      -13.209068
   12      -13.209067
   13       -9.820904
   14       -9.820903
   15       -9.789640
   16       -9.789639
   17       -9.620190
   18       -9.620189
   19       -9.594183
   20       -9.594183
   21       -7.941570
   22       -7.941570
   23       -7.619272
   24       -7.619272
   25       -6.258557
   26       -6.258557
   27       -5.959785
   28       -5.959784
   29       -5.768251
   30       -5.768250
   31       -5.728213
   32       -5.728213
   33       -5.451093
   34       -5.451093
   35       -5.297856
   36       -5.297855
   37       -4.956032
   38       -4.956032
   39       -4.774998
   40       -4.774997
   41       -4.000892
   42       -4.000892
   43       -3.844240
   44       -3.844239
   45       -3.177086
   46       -3.177085
   47       -3.104792
   48       -3.104792
   49       -2.978227
   50       -2.978227
   51       -2.865876
   52       -2.865875
   53       -1.425232
   54       -1.425231
   55       -1.327737
   56       -1.327736
   57       -1.223619
   58       -1.223618
   59       -1.109693
   60       -1.109693
   61        3.506539
   62        3.506540
   63        3.587753
   64        3.587754
   65        3.977968
   66        3.977969
   67        4.050125
   68        4.050125
   69        6.187517
   70        6.187518
   71        6.458183
   72        6.458183
   73        7.065594
   74        7.065595
   75        7.337089
   76        7.337089
   77        7.527195
   78        7.527197
   79        7.750042
   80        7.750043
   81        8.045776
   82        8.045776
   83        8.467554
   84        8.467554
   85        8.827273
   86        8.827273
 
  0.0000000E+00  0.5000000E+00  0.2500000E+00  0.3125000E-01
    1      -16.215330
    2      -16.215328
    3      -16.071636
    4      -16.071634
    5      -13.442005
    6      -13.442004
    7      -13.358581
    8      -13.358581
    9      -13.312563
   10      -13.312562
   11      -13.219532
   12      -13.219532
   13       -9.867630
   14       -9.867630
   15       -9.786499
   16       -9.786498
   17       -9.625809
   18       -9.625809
   19       -9.537671