benzene                                 
           1
     7.101174    0.000000    0.000000
     0.000000    9.047601    0.000000
     0.000000    0.000000    6.468779
   C    H 
  24  24
Direct configuration=     1
   0.94599998  0.13760001  0.99980003
   0.05400000  0.86239999  0.00020000
   0.55400002  0.86239999  0.49980000
   0.44600001  0.13760001  0.50019997
   0.05400000  0.63760001  0.50019997
   0.94599998  0.36239999  0.49980000
   0.44600001  0.36239999  0.00020000
   0.55400002  0.63760001  0.99980003
   0.07680000  0.09030000  0.13240001
   0.92320001  0.90969998  0.86759996
   0.42320001  0.90969998  0.63240004
   0.57679999  0.09030000  0.36759999
   0.92320001  0.59030002  0.36759999
   0.07680000  0.40970001  0.63240004
   0.57679999  0.40970001  0.86759996
   0.42320001  0.59030002  0.13240001
   0.87000001  0.04540000  0.87180000
   0.12999999  0.95459998  0.12820000
   0.62999999  0.95459998  0.37180000
   0.37000001  0.04540000  0.62820000
   0.12999999  0.54540002  0.62820000
   0.87000001  0.45460001  0.37180000
   0.37000001  0.45460001  0.12820000
   0.62999999  0.54540002  0.87180000
   0.91119999  0.23160000  0.99910003
   0.08880000  0.76840001  0.00090000
   0.58880001  0.76840001  0.49910000
   0.41119999  0.23160000  0.50089997
   0.08880000  0.73159999  0.50089997
   0.91119999  0.26840001  0.49910000
   0.41119999  0.26840001  0.00090000
   0.58880001  0.73159999  0.99910003
   0.12650000  0.15199999  0.22240000
   0.87349999  0.84799999  0.77759999
   0.37349999  0.84799999  0.72240001
   0.62650001  0.15199999  0.27759999
   0.87349999  0.65200001  0.27759999
   0.12650000  0.34799999  0.72240001
   0.62650001  0.34799999  0.77759999
   0.37349999  0.65200001  0.22240000
   0.78079999  0.07640000  0.78670001
   0.21920000  0.92360002  0.21330001
   0.71920001  0.92360002  0.28670001
   0.28079999  0.07640000  0.71329999
   0.21920000  0.57639998  0.71329999
   0.78079999  0.42360002  0.28670001
   0.28079999  0.42360002  0.21330001
   0.71920001  0.57639998  0.78670001
Direct configuration=     2
   0.96925114  0.10291861  0.01361469
   0.03074884  0.89708139 -0.01361467
   0.53074886  0.89708139  0.51361466
   0.46925117  0.10291861  0.48638531
   0.03074884  0.60291861  0.48638531
   0.96925114  0.39708139  0.51361466
   0.46925117  0.39708139 -0.01361467
   0.53074886  0.60291861  0.01361469
   0.04619879  0.07668277  0.08748152
   0.95380123  0.92331721  0.91251845
   0.45380123  0.92331721  0.58748155
   0.54619877  0.07668277  0.41251848
   0.95380123  0.57668279  0.41251848
   0.04619879  0.42331724  0.58748155
   0.54619877  0.42331724  0.91251845
   0.45380123  0.57668279  0.08748152
   0.89916726  0.03842868  0.89971366
   0.10083274  0.96157130  0.10028634
   0.60083274  0.96157130  0.39971366
   0.39916726  0.03842868  0.60028634
   0.10083274  0.53842870  0.60028634
   0.89916726  0.46157133  0.39971366
   0.39916726  0.46157133  0.10028634
   0.60083274  0.53842870  0.89971366
   0.88702118  0.29687596  0.99981862
   0.11297880  0.70312405  0.00018141
   0.61297882  0.70312405  0.49981859
   0.38702118  0.29687596  0.50018138
   0.11297880  0.79687595  0.50018138
   0.88702118  0.20312405  0.49981859
   0.38702118  0.20312405  0.00018141
   0.61297882  0.79687595  0.99981862
   0.16278501  0.19731005  0.28720863
   0.83721497  0.80268994  0.71279136
   0.33721497  0.80268994  0.78720864
   0.66278503  0.19731005  0.21279136
   0.83721497  0.69731006  0.21279136
   0.16278501  0.30268994  0.78720864
   0.66278503  0.30268994  0.71279136
   0.33721497  0.69731006  0.28720863
   0.71862991  0.09802013  0.72635018
   0.28137007  0.90197989  0.27364984
   0.78137009  0.90197989  0.22635018
   0.21862991  0.09802013  0.77364982
   0.28137007  0.59802011  0.77364982
   0.71862991  0.40197989  0.22635018
   0.21862991  0.40197989  0.27364984
   0.78137009  0.59802011  0.72635018
Direct configuration=     3
   0.95120230  0.12984023  0.00289098
   0.04879768  0.87015977 -0.00289096
   0.54879770  0.87015977  0.50289096
   0.45120233  0.12984023  0.49710902
   0.04879768  0.62984023  0.49710902
   0.95120230  0.37015977  0.50289096
   0.45120233  0.37015977 -0.00289096
   0.54879770  0.62984023  0.00289098
   0.06995314  0.08725322  0.12234973
   0.93004687  0.91274676  0.87765024
   0.43004687  0.91274676  0.62234976
   0.56995313  0.08725322  0.37765027
   0.93004687  0.58725324  0.37765027
   0.06995314  0.41274679  0.62234976
   0.56995313  0.41274679  0.87765024
   0.43004687  0.58725324  0.12234973
   0.87652603  0.04384020  0.87804554
   0.12347397  0.95615977  0.12195446
   0.62347397  0.95615977  0.37804554
   0.37652603  0.04384020  0.62195446
   0.12347397  0.54384023  0.62195446
   0.87652603  0.45615980  0.37804554
   0.37652603  0.45615980  0.12195446
   0.62347397  0.54384023  0.87804554
   0.90579011  0.24620515  0.99926081
   0.09420988  0.75379486  0.00073922
   0.59420989  0.75379486  0.49926078
   0.40579011  0.24620515  0.50073919
   0.09420988  0.74620514  0.50073919
   0.90579011  0.25379486  0.49926078
   0.40579011  0.25379486  0.00073922
   0.59420989  0.74620514  0.99926081
   0.13461858  0.16213788  0.23690059
   0.86538141  0.83786210  0.76309940
   0.36538141  0.83786210  0.73690060
   0.63461859  0.16213788  0.26309940
   0.86538141  0.66213790  0.26309940
   0.13461858  0.33786210  0.73690060
   0.63461859  0.33786210  0.76309940
   0.36538141  0.66213790  0.23690059
   0.76688976  0.08123739  0.77319705
   0.23311023  0.91876263  0.22680296
   0.73311024  0.91876263  0.27319705
   0.26688976  0.08123739  0.72680295
   0.23311023  0.58123737  0.72680295
   0.76688976  0.41876263  0.27319705
   0.26688976  0.41876263  0.22680296
   0.73311024  0.58123737  0.77319705
Direct configuration=     4
   0.94964261  0.13216666  0.00196429
   0.05035737  0.86783334 -0.00196427
   0.55035739  0.86783334  0.50196426
   0.44964264  0.13216666  0.49803571
   0.05035737  0.63216666  0.49803571
   0.94964261  0.36783334  0.50196426
   0.44964264  0.36783334 -0.00196427
   0.55035739  0.63216666  0.00196429
   0.07200588  0.08816667  0.12536288
   0.92799413  0.91183331  0.87463709
   0.42799413  0.91183331  0.62536291
   0.57200587  0.08816667  0.37463712
   0.92799413  0.58816669  0.37463712
   0.07200588  0.41183334  0.62536291
   0.57200587  0.41183334  0.87463709
   0.42799413  0.58816669  0.12536288
   0.87456948  0.04430784  0.87617308
   0.12543052  0.95569214  0.12382692
   0.62543052  0.95569214  0.37617308
   0.37456948  0.04430784  0.62382692
   0.12543052  0.54430786  0.62382692
   0.87456948  0.45569216  0.37617308
   0.37456948  0.45569216  0.12382692
   0.62543052  0.54430786  0.87617308
   0.90741203  0.24182642  0.99921261
   0.09258796  0.75817359  0.00078742
   0.59258797  0.75817359  0.49921258
   0.40741203  0.24182642  0.50078739
   0.09258796  0.74182641  0.50078739
   0.90741203  0.25817359  0.49921258
   0.40741203  0.25817359  0.00078742
   0.59258797  0.74182641  0.99921261
   0.13218457  0.15909847  0.23255320
   0.86781542  0.84090152  0.76744678
   0.36781542  0.84090152  0.73255322
   0.63218458  0.15909847  0.26744678
   0.86781542  0.65909848  0.26744678
   0.13218457  0.34090152  0.73255322
   0.63218458  0.34090152  0.76744678
   0.36781542  0.65909848  0.23255320
   0.77106015  0.07978710  0.77724534
   0.22893984  0.92021291  0.22275468
   0.72893985  0.92021291  0.27724534
   0.27106015  0.07978710  0.72275466
   0.22893984  0.57978709  0.72275466
   0.77106015  0.42021291  0.27724534
   0.27106015  0.42021291  0.22275468
   0.72893985  0.57978709  0.77724534
Direct configuration=     5
   0.94908687  0.13299560  0.00163410
   0.05091311  0.86700440 -0.00163407
   0.55091313  0.86700440  0.50163407
   0.44908690  0.13299560  0.49836590
   0.05091311  0.63299560  0.49836590
   0.94908687  0.36700440  0.50163407
   0.44908690  0.36700440 -0.00163407
   0.55091313  0.63299560  0.00163410
   0.07273730  0.08849214  0.12643650
   0.92726272  0.91150784  0.87356347
   0.42726272  0.91150784  0.62643653
   0.57273728  0.08849214  0.37356350
   0.92726272  0.58849216  0.37356350
   0.07273730  0.41150787  0.62643653
   0.57273728  0.41150787  0.87356347
   0.42726272  0.58849216  0.12643650
   0.87387233  0.04447447  0.87550590
   0.12612767  0.95552551  0.12449410
   0.62612767  0.95552551  0.37550590
   0.37387233  0.04447447  0.62449410
   0.12612767  0.54447449  0.62449410
   0.87387233  0.45552554  0.37550590
   0.37387233  0.45552554  0.12449410
   0.62612767  0.54447449  0.87550590
   0.90798994  0.24026623  0.99919543
   0.09201005  0.75973379  0.00080460
   0.59201006  0.75973379  0.49919540
   0.40798994  0.24026623  0.50080457
   0.09201005  0.74026621  0.50080457
   0.90798994  0.25973379  0.49919540
   0.40798994  0.25973379  0.00080460
   0.59201006  0.74026621  0.99919543
   0.13131730  0.15801549  0.23100418
   0.86868269  0.84198450  0.76899581
   0.36868269  0.84198450  0.73100419
   0.63131731  0.15801549  0.26899581
   0.86868269  0.65801550  0.26899581
   0.13131730  0.34198450  0.73100419
   0.63131731  0.34198450  0.76899581
   0.36868269  0.65801550  0.23100418
   0.77254611  0.07927035  0.77868779
   0.22745388  0.92072967  0.22131222
   0.72745389  0.92072967  0.27868779
   0.27254611  0.07927035  0.72131221
   0.22745388  0.57927033  0.72131221
   0.77254611  0.42072967  0.27868779
   0.27254611  0.42072967  0.22131222
   0.72745389  0.57927033  0.77868779
Direct configuration=     6
   0.94193496  0.15421024  0.00402530
   0.05806502  0.84578976 -0.00402527
   0.55806504  0.84578976  0.50402527
   0.44193499  0.15421024  0.49597470
   0.05806502  0.65421024  0.49597470
   0.94193496  0.34578976  0.50402527
   0.44193499  0.34578976 -0.00402527
   0.55806504  0.65421024  0.00402530
   0.08303958  0.10423161  0.14469237
   0.91696044  0.89576836  0.85530760
   0.41696044  0.89576836  0.64469240
   0.58303956  0.10423161  0.35530763
   0.91696044  0.60423164  0.35530763
   0.08303958  0.39576839  0.64469240
   0.58303956  0.39576839  0.85530760
   0.41696044  0.60423164  0.14469237
   0.85694543  0.05142190  0.85828627
   0.14305457  0.94857808  0.14171373
   0.64305457  0.94857808  0.35828627
   0.35694543  0.05142190  0.64171373
   0.14305457  0.55142192  0.64171373
   0.85694543  0.44857811  0.35828627
   0.35694543  0.44857811  0.14171373
   0.64305457  0.55142192  0.85828627
   0.89810801  0.26733263  0.00029328
   0.10189198  0.73266738 -0.00029325
   0.60189199  0.73266738  0.50029325
   0.39810801  0.26733263  0.49970672
   0.10189198  0.76733262  0.49970672
   0.89810801  0.23266738  0.50029325
   0.39810801  0.23266738 -0.00029325
   0.60189199  0.76733262  0.00029328
   0.14597020  0.17671574  0.25685721
   0.85402978  0.82328424  0.74314277
   0.35402978  0.82328424  0.75685723
   0.64597022  0.17671574  0.24314277
   0.85402978  0.67671576  0.24314277
   0.14597020  0.32328424  0.75685723
   0.64597022  0.32328424  0.74314277
   0.35402978  0.67671576  0.25685721
   0.74544734  0.08870588  0.75193983
   0.25455265  0.91129414  0.24806019
   0.75455266  0.91129414  0.25193983
   0.24544734  0.08870588  0.74806017
   0.25455265  0.58870586  0.74806017
   0.74544734  0.41129414  0.25193983
   0.24544734  0.41129414  0.24806019
   0.75455266  0.58870586  0.75193983
Direct configuration=     7
   0.94382284  0.14861026  0.00339410
   0.05617714  0.85138974 -0.00339407
   0.55617716  0.85138974  0.50339407
   0.44382287  0.14861026  0.49660590
   0.05617714  0.64861026  0.49660590
   0.94382284  0.35138974  0.50339407
   0.44382287  0.35138974 -0.00339407
   0.55617716  0.64861026  0.00339410
   0.08032011  0.10007689  0.13987340
   0.91967991  0.89992308  0.86012657
   0.41967991  0.89992308  0.63987343
   0.58032009  0.10007689  0.36012660
   0.91967991  0.60007692  0.36012660
   0.08032011  0.39992311  0.63987343
   0.58032009  0.39992311  0.86012657
   0.41967991  0.60007692  0.13987340
   0.86141359  0.04958800  0.86283171
   0.13858641  0.95041198  0.13716829
   0.63858641  0.95041198  0.36283171
   0.36141359  0.04958800  0.63716829
   0.13858641  0.54958802  0.63716829
   0.86141359  0.45041201  0.36283171
   0.36141359  0.45041201  0.13716829
   0.63858641  0.54958802  0.86283171
   0.90071652  0.26018797  0.00000348
   0.09928346  0.73981205 -0.00000345
   0.59928348  0.73981205  0.50000345
   0.40071652  0.26018797  0.49999652
   0.09928346  0.76018795  0.49999652
   0.90071652  0.23981205  0.50000345
   0.40071652  0.23981205 -0.00000345
   0.59928348  0.76018795  0.00000348
   0.14210231  0.17177947  0.25003284
   0.85789768  0.82822051  0.74996715
   0.35789768  0.82822051  0.75003285
   0.64210232  0.17177947  0.24996715
   0.85789768  0.67177949  0.24996715
   0.14210231  0.32822051  0.75003285
   0.64210232  0.32822051  0.74996715
   0.35789768  0.67177949  0.25003284
   0.75260055  0.08621520  0.75900044
   0.24739944  0.91378482  0.24099958
   0.74739945  0.91378482  0.25900044
   0.25260055  0.08621520  0.74099956
   0.24739944  0.58621518  0.74099956
   0.75260055  0.41378482  0.25900044
   0.25260055  0.41378482  0.24099958
   0.74739945  0.58621518  0.75900044
Direct configuration=     8
   0.94194262  0.14607930  0.00015199
   0.05805736  0.85392070 -0.00015196
   0.55805738  0.85392070  0.50015196
   0.44194265  0.14607930  0.49984801
   0.05805736  0.64607930  0.49984801
   0.94194262  0.35392070  0.50015196
   0.44194265  0.35392070 -0.00015196
   0.55805738  0.64607930  0.00015199
   0.08270036  0.09514865  0.14014876
   0.91729966  0.90485133  0.85985121
   0.41729966  0.90485133  0.64014879
   0.58270034  0.09514865  0.35985124
   0.91729966  0.59514867  0.35985124
   0.08270036  0.40485136  0.64014879
   0.58270034  0.40485136  0.85985121
   0.41729966  0.59514867  0.14014876
   0.86306031  0.04754584  0.86381586
   0.13693969  0.95245414  0.13618414
   0.63693969  0.95245414  0.36381586
   0.36306031  0.04754584  0.63618414
   0.13693969  0.54754586  0.63618414
   0.86306031  0.45245417  0.36381586
   0.36306031  0.45245417  0.13618414
   0.63693969  0.54754586  0.86381586
   0.89770416  0.26859146  0.00086174
   0.10229583  0.73140855 -0.00086171
   0.60229584  0.73140855  0.50086171
   0.39770416  0.26859146  0.49913826
   0.10229583  0.76859145  0.49913826
   0.89770416  0.23140855  0.50086171
   0.39770416  0.23140855 -0.00086171
   0.60229584  0.76859145  0.00086174
   0.14610531  0.17707432  0.25686200
   0.85389468  0.82292566  0.74313799
   0.35389468  0.82292566  0.75686201
   0.64610532  0.17707432  0.24313799
   0.85389468  0.67707434  0.24313799
   0.14610531  0.32292566  0.75686201
   0.64610532  0.32292566  0.74313799
   0.35389468  0.67707434  0.25686200
   0.74778487  0.08779260  0.75393144
   0.25221511  0.91220741  0.24606857
   0.75221513  0.91220741  0.25393144
   0.24778487  0.08779260  0.74606856
   0.25221511  0.58779259  0.74606856
   0.74778487  0.41220741  0.25393144
   0.24778487  0.41220741  0.24606857
   0.75221513  0.58779259  0.75393144
Direct configuration=     9
   0.94323995  0.14782564  0.00238901
   0.05676003  0.85217436 -0.00238899
   0.55676005  0.85217436  0.50238898
   0.44323998  0.14782564  0.49761099
   0.05676003  0.64782564  0.49761099
   0.94323995  0.35217436  0.50238898
   0.44323998  0.35217436 -0.00238899
   0.55676005  0.64782564  0.00238901
   0.08105801  0.09854909  0.13995877
   0.91894201  0.90145088  0.86004120
   0.41894201  0.90145088  0.63995880
   0.58105799  0.09854909  0.36004123
   0.91894201  0.59854912  0.36004123
   0.08105801  0.40145091  0.63995880
   0.58105799  0.40145091  0.86004120
   0.41894201  0.59854912  0.13995877
   0.86192409  0.04895491  0.86313680
   0.13807591  0.95104507  0.13686320
   0.63807591  0.95104507  0.36313680
   0.36192409  0.04895491  0.63686320
   0.13807591  0.54895493  0.63686320
   0.86192409  0.45104510  0.36313680
   0.36192409  0.45104510  0.13686320
   0.63807591  0.54895493  0.86313680
   0.89978266  0.26279312  0.00026955
   0.10021732  0.73720689 -0.00026952
   0.60021734  0.73720689  0.50026952
   0.39978266  0.26279312  0.49973045
   0.10021732  0.76279311  0.49973045
   0.89978266  0.23720689  0.50026952
   0.39978266  0.23720689 -0.00026952
   0.60021734  0.76279311  0.00026955
   0.14334327  0.17342092  0.25214994
   0.85665671  0.82657906  0.74785005
   0.35665671  0.82657906  0.75214995
   0.64334329  0.17342092  0.24785005
   0.85665671  0.67342094  0.24785005
   0.14334327  0.32657906  0.75214995
   0.64334329  0.32657906  0.74785005
   0.35665671  0.67342094  0.25214994
   0.75110765  0.08670421  0.75742900
   0.24889234  0.91329581  0.24257101
   0.74889235  0.91329581  0.25742900
   0.25110765  0.08670421  0.74257100
   0.24889234  0.58670419  0.74257100
   0.75110765  0.41329581  0.25742900
   0.25110765  0.41329581  0.24257101
   0.74889235  0.58670419  0.75742900
Direct configuration=    10
   0.94342086  0.14738818  0.00227715
   0.05657913  0.85261182 -0.00227712
   0.55657914  0.85261182  0.50227712
   0.44342089  0.14738818  0.49772285
   0.05657913  0.64738818  0.49772285
   0.94342086  0.35261182  0.50227712
   0.44342089  0.35261182 -0.00227712
   0.55657914  0.64738818  0.00227715
   0.08110877  0.09839162  0.14002755
   0.91889125  0.90160836  0.85997242
   0.41889125  0.90160836  0.64002758
   0.58110875  0.09839162  0.35997245
   0.91889125  0.59839164  0.35997245
   0.08110877  0.40160839  0.64002758
   0.58110875  0.40160839  0.85997242
   0.41889125  0.59839164  0.14002755
   0.86078960  0.04925976  0.86220722
   0.13921040  0.95074022  0.13779278
   0.63921040  0.95074022  0.36220722
   0.36078960  0.04925976  0.63779278
   0.13921040  0.54925978  0.63779278
   0.86078960  0.45074025  0.36220722
   0.36078960  0.45074025  0.13779278
   0.63921040  0.54925978  0.86220722
   0.89951824  0.26359339  0.00086163
   0.10048174  0.73640662 -0.00086160
   0.60048176  0.73640662  0.50086160
   0.39951824  0.26359339  0.49913837
   0.10048174  0.76359338  0.49913837
   0.89951824  0.23640662  0.50086160
   0.39951824  0.23640662 -0.00086160
   0.60048176  0.76359338  0.00086163
   0.14357518  0.17381135  0.25221945
   0.85642481  0.82618863  0.74778053
   0.35642481  0.82618863  0.75221947
   0.64357519  0.17381135  0.24778053
   0.85642481  0.67381137  0.24778053
   0.14357518  0.32618863  0.75221947
   0.64357519  0.32618863  0.74778053
   0.35642481  0.67381137  0.25221945
   0.75183539  0.08634000  0.75780366
   0.24816460  0.91366002  0.24219635
   0.74816461  0.91366002  0.25780366
   0.25183539  0.08634000  0.74219634
   0.24816460  0.58633998  0.74219634
   0.75183539  0.41366002  0.25780366
   0.25183539  0.41366002  0.24219635
   0.74816461  0.58633998  0.75780366
Direct configuration=    11
   0.94332101  0.14762964  0.00233889
   0.05667897  0.85237036 -0.00233887
   0.55667899  0.85237036  0.50233886
   0.44332104  0.14762964  0.49766111
   0.05667897  0.64762964  0.49766111
   0.94332101  0.35237036  0.50233886
   0.44332104  0.35237036 -0.00233887
   0.55667899  0.64762964  0.00233889
   0.08108075  0.09847854  0.13998959
   0.91891927  0.90152144  0.86001038
   0.41891927  0.90152144  0.63998962
   0.58108073  0.09847854  0.36001041
   0.91891927  0.59847856  0.36001041
   0.08108075  0.40152147  0.63998962
   0.58108073  0.40152147  0.86001038
   0.41891927  0.59847856  0.13998959
   0.86141578  0.04909150  0.86272030
   0.13858422  0.95090848  0.13727970
   0.63858422  0.95090848  0.36272030
   0.36141578  0.04909150  0.63727970
   0.13858422  0.54909152  0.63727970
   0.86141578  0.45090851  0.36272030
   0.36141578  0.45090851  0.13727970
   0.63858422  0.54909152  0.86272030
   0.89966419  0.26315169  0.00053483
   0.10033580  0.73684832 -0.00053481
   0.60033581  0.73684832  0.50053481
   0.39966419  0.26315169  0.49946517
   0.10033580  0.76315168  0.49946517
   0.89966419  0.23684832  0.50053481
   0.39966419  0.23684832 -0.00053481
   0.60033581  0.76315168  0.00053483
   0.14344718  0.17359586  0.25218108
   0.85655281  0.82640413  0.74781890
   0.35655281  0.82640413  0.75218110
   0.64344719  0.17359586  0.24781890
   0.85655281  0.67359587  0.24781890
   0.14344718  0.32640413  0.75218110
   0.64344719  0.32640413  0.74781890
   0.35655281  0.67359587  0.25218108
   0.75143371  0.08654102  0.75759687
   0.24856627  0.91345899  0.24240315
   0.74856629  0.91345899  0.25759687
   0.25143371  0.08654102  0.74240313
   0.24856627  0.58654101  0.74240313
   0.75143371  0.41345899  0.25759687
   0.25143371  0.41345899  0.24240315
   0.74856629  0.58654101  0.75759687
Direct configuration=    12
   0.94315402  0.14779552  0.00214582
   0.05684596  0.85220448 -0.00214580
   0.55684598  0.85220448  0.50214579
   0.44315405  0.14779552  0.49785418
   0.05684596  0.64779552  0.49785418
   0.94315402  0.35220448  0.50214579
   0.44315405  0.35220448 -0.00214580
   0.55684598  0.64779552  0.00214582
   0.08130628  0.09838477  0.14024352
   0.91869374  0.90161521  0.85975645
   0.41869374  0.90161521  0.64024355
   0.58130626  0.09838477  0.35975648
   0.91869374  0.59838479  0.35975648
   0.08130628  0.40161524  0.64024355
   0.58130626  0.40161524  0.85975645
   0.41869374  0.59838479  0.14024352
   0.86128229  0.04906892  0.86271194
   0.13871771  0.95093105  0.13728806
   0.63871771  0.95093105  0.36271194
   0.36128229  0.04906892  0.63728806
   0.13871771  0.54906895  0.63728806
   0.86128229  0.45093108  0.36271194
   0.36128229  0.45093108  0.13728806
   0.63871771  0.54906895  0.86271194
   0.89968710  0.26323363  0.00112556
   0.10031288  0.73676639 -0.00112553
   0.60031290  0.73676639  0.50112553
   0.39968710  0.26323363  0.49887444
   0.10031288  0.76323361  0.49887444
   0.89968710  0.23676639  0.50112553
   0.39968710  0.23676639 -0.00112553
   0.60031290  0.76323361  0.00112556
   0.14346343  0.17376005  0.25190569
   0.85653655  0.82623993  0.74809429
   0.35653655  0.82623993  0.75190571
   0.64346345  0.17376005  0.24809429
   0.85653655  0.67376007  0.24809429
   0.14346343  0.32623993  0.75190571
   0.64346345  0.32623993  0.74809429
   0.35653655  0.67376007  0.25190569
   0.75162927  0.08637235  0.75749576
   0.24837072  0.91362766  0.24250425
   0.74837073  0.91362766  0.25749576
   0.25162927  0.08637235  0.74250424
   0.24837072  0.58637234  0.74250424
   0.75162927  0.41362766  0.25749576
   0.25162927  0.41362766  0.24250425
   0.74837073  0.58637234  0.75749576
Direct configuration=    13
   0.94318642  0.14776333  0.00218328
   0.05681356  0.85223667 -0.00218326
   0.55681358  0.85223667  0.50218326
   0.44318645  0.14776333  0.49781672
   0.05681356  0.64776333  0.49781672
   0.94318642  0.35223667  0.50218326
   0.44318645  0.35223667 -0.00218326
   0.55681358  0.64776333  0.00218328
   0.08126252  0.09840296  0.14019425
   0.91873750  0.90159701  0.85980572
   0.41873750  0.90159701  0.64019428
   0.58126250  0.09840296  0.35980575
   0.91873750  0.59840299  0.35980575
   0.08126252  0.40159704  0.64019428
   0.58126250  0.40159704  0.85980572
   0.41873750  0.59840299  0.14019425
   0.86130819  0.04907330  0.86271356
   0.13869181  0.95092667  0.13728644
   0.63869181  0.95092667  0.36271356
   0.36130819  0.04907330  0.63728644
   0.13869181  0.54907333  0.63728644
   0.86130819  0.45092670  0.36271356
   0.36130819  0.45092670  0.13728644
   0.63869181  0.54907333  0.86271356
   0.89968266  0.26321773  0.00101094
   0.10031733  0.73678229 -0.00101091
   0.60031734  0.73678229  0.50101091
   0.39968266  0.26321773  0.49898906
   0.10031733  0.76321771  0.49898906
   0.89968266  0.23678229  0.50101091
   0.39968266  0.23678229 -0.00101091
   0.60031734  0.76321771  0.00101094
   0.14346028  0.17372820  0.25195913
   0.85653971  0.82627179  0.74804086
   0.35653971  0.82627179  0.75195914
   0.64346029  0.17372820  0.24804086
   0.85653971  0.67372821  0.24804086
   0.14346028  0.32627179  0.75195914
   0.64346029  0.32627179  0.74804086
   0.35653971  0.67372821  0.25195913
   0.75159132  0.08640508  0.75751538
   0.24840866  0.91359493  0.24248463
   0.74840868  0.91359493  0.25751538
   0.25159132  0.08640508  0.74248462
   0.24840866  0.58640507  0.74248462
   0.75159132  0.41359493  0.25751538
   0.25159132  0.41359493  0.24248463
   0.74840868  0.58640507  0.75751538
Direct configuration=    14
   0.94321286  0.14780539  0.00221053
   0.05678712  0.85219461 -0.00221051
   0.55678714  0.85219461  0.50221050
   0.44321289  0.14780539  0.49778947
   0.05678712  0.64780539  0.49778947
   0.94321286  0.35219461  0.50221050
   0.44321289  0.35219461 -0.00221051
   0.55678714  0.64780539  0.00221053
   0.08123347  0.09841048  0.14016151
   0.91876654  0.90158949  0.85983846
   0.41876654  0.90158949  0.64016154
   0.58123346  0.09841048  0.35983849
   0.91876654  0.59841051  0.35983849
   0.08123347  0.40158952  0.64016154
   0.58123346  0.40158952  0.85983846
   0.41876654  0.59841051  0.14016151
   0.86129361  0.04907628  0.86278846
   0.13870639  0.95092370  0.13721154
   0.63870639  0.95092370  0.36278846
   0.36129361  0.04907628  0.63721154
   0.13870639  0.54907630  0.63721154
   0.86129361  0.45092373  0.36278846
   0.36129361  0.45092373  0.13721154
   0.63870639  0.54907630  0.86278846
   0.89969626  0.26327182  0.00146359
   0.10030372  0.73672819 -0.00146356
   0.60030374  0.73672819  0.50146356
   0.39969626  0.26327182  0.49853641
   0.10030372  0.76327181  0.49853641
   0.89969626  0.23672819  0.50146356
   0.39969626  0.23672819 -0.00146356
   0.60030374  0.76327181  0.00146359
   0.14349275  0.17386254  0.25177059
   0.85650723  0.82613745  0.74822939
   0.35650723  0.82613745  0.75177061
   0.64349277  0.17386254  0.24822939
   0.85650723  0.67386255  0.24822939
   0.14349275  0.32613745  0.75177061
   0.64349277  0.32613745  0.74822939
   0.35650723  0.67386255  0.25177059
   0.75165583  0.08630344  0.75735729
   0.24834416  0.91369657  0.24264273
   0.74834417  0.91369657  0.25735729
   0.25165583  0.08630344  0.74264271
   0.24834416  0.58630343  0.74264271
   0.75165583  0.41369657  0.25735729
   0.25165583  0.41369657  0.24264273
   0.74834417  0.58630343  0.75735729
Direct configuration=    15
   0.94329220  0.14793158  0.00229227
   0.05670778  0.85206842 -0.00229225
   0.55670780  0.85206842  0.50229224
   0.44329223  0.14793158  0.49770773
   0.05670778  0.64793158  0.49770773
   0.94329220  0.35206842  0.50229224
   0.44329223  0.35206842 -0.00229225
   0.55670780  0.64793158  0.00229227
   0.08114634  0.09843305  0.14006332
   0.91885368  0.90156693  0.85993665
   0.41885368  0.90156693  0.64006335
   0.58114632  0.09843305  0.35993668
   0.91885368  0.59843307  0.35993668
   0.08114634  0.40156696  0.64006335
   0.58114632  0.40156696  0.85993665
   0.41885368  0.59843307  0.14006332
   0.86124987  0.04908520  0.86301314
   0.13875013  0.95091477  0.13698686
   0.63875013  0.95091477  0.36301314
   0.36124987  0.04908520  0.63698686
   0.13875013  0.54908523  0.63698686
   0.86124987  0.45091480  0.36301314
   0.36124987  0.45091480  0.13698686
   0.63875013  0.54908523  0.86301314
   0.89973708  0.26343412  0.00282153
   0.10026291  0.73656590 -0.00282150
   0.60026292  0.73656590  0.50282150
   0.39973708  0.26343412  0.49717847
   0.10026291  0.76343410  0.49717847
   0.89973708  0.23656590  0.50282150
   0.39973708  0.23656590 -0.00282150
   0.60026292  0.76343410  0.00282153
   0.14359017  0.17426557  0.25120499
   0.85640982  0.82573442  0.74879500
   0.35640982  0.82573442  0.75120500
   0.64359018  0.17426557  0.24879500
   0.85640982  0.67426558  0.24879500
   0.14359017  0.32573442  0.75120500
   0.64359018  0.32573442  0.74879500
   0.35640982  0.67426558  0.25120499
   0.75184934  0.08599854  0.75688301
   0.24815065  0.91400148  0.24311701
   0.74815066  0.91400148  0.25688301
   0.25184934  0.08599854  0.74311699
   0.24815065  0.58599852  0.74311699
   0.75184934  0.41400148  0.25688301
   0.25184934  0.41400148  0.24311701
   0.74815066  0.58599852  0.75688301
Direct configuration=    16
   0.94345086  0.14818395  0.00245576
   0.05654912  0.85181605 -0.00245573
   0.55654914  0.85181605  0.50245573
   0.44345089  0.14818395  0.49754424
   0.05654912  0.64818395  0.49754424
   0.94345086  0.35181605  0.50245573
   0.44345089  0.35181605 -0.00245573
   0.55654914  0.64818395  0.00245576
   0.08097207  0.09847817  0.13986692
   0.91902795  0.90152180  0.86013305
   0.41902795  0.90152180  0.63986695
   0.58097205  0.09847817  0.36013308
   0.91902795  0.59847820  0.36013308
   0.08097207  0.40152183  0.63986695
   0.58097205  0.40152183  0.86013305
   0.41902795  0.59847820  0.13986692
   0.86116239  0.04910305  0.86346251
   0.13883761  0.95089693  0.13653749
   0.63883761  0.95089693  0.36346251
   0.36116239  0.04910305  0.63653749
   0.13883761  0.54910307  0.63653749
   0.86116239  0.45089696  0.36346251
   0.36116239  0.45089696  0.13653749
   0.63883761  0.54910307  0.86346251
   0.89981870  0.26375870  0.00553742
   0.10018128  0.73624131 -0.00553739
   0.60018130  0.73624131  0.50553739
   0.39981870  0.26375870  0.49446258
   0.10018128  0.76375869  0.49446258
   0.89981870  0.23624131  0.50553739
   0.39981870  0.23624131 -0.00553739
   0.60018130  0.76375869  0.00553742
   0.14378500  0.17507163  0.25007378
   0.85621498  0.82492835  0.74992620
   0.35621498  0.82492835  0.75007380
   0.64378502  0.17507163  0.24992620
   0.85621498  0.67507165  0.24992620
   0.14378500  0.32492835  0.75007380
   0.64378502  0.32492835  0.74992620
   0.35621498  0.67507165  0.25007378
   0.75223637  0.08538872  0.75593444
   0.24776362  0.91461129  0.24406557
   0.74776363  0.91461129  0.25593444
   0.25223637  0.08538872  0.74406556
   0.24776362  0.58538871  0.74406556
   0.75223637  0.41461129  0.25593444
   0.25223637  0.41461129  0.24406557
   0.74776363  0.58538871  0.75593444
Direct configuration=    17
   0.94335769  0.14803575  0.00235976
   0.05664229  0.85196425 -0.00235973
   0.55664231  0.85196425  0.50235973
   0.44335772  0.14803575  0.49764024