   4   4   0   0
  0.9254429E+01  0.2466437E-09  0.2466437E-09  0.7029656E-09  0.5000000E-15
  1.000000000000000E-004
  CAR 
 graphite                                
     18.01905269    -17.31404832  301      4.27999547      1.00000000
    -17.314  0.0000E+00  0.0000E+00
    -17.196  0.0000E+00  0.0000E+00
    -17.078  0.0000E+00  0.0000E+00
    -16.961  0.0000E+00  0.0000E+00
    -16.843  0.0000E+00  0.0000E+00
    -16.725  0.0000E+00  0.0000E+00
    -16.607  0.0000E+00  0.0000E+00
    -16.490  0.0000E+00  0.0000E+00
    -16.372  0.0000E+00  0.0000E+00
    -16.254  0.0000E+00  0.0000E+00
    -16.136  0.0000E+00  0.0000E+00
    -16.019  0.0000E+00  0.0000E+00
    -15.901  0.0000E+00  0.0000E+00
    -15.783  0.0000E+00  0.0000E+00
    -15.665  0.0000E+00  0.0000E+00
    -15.547  0.0000E+00  0.0000E+00
    -15.430  0.0000E+00  0.0000E+00
    -15.312  0.2797E-05  0.2060E-08
    -15.194  0.1489E-02  0.9948E-04
    -15.076  0.3109E-02  0.3570E-03
    -14.959  0.3060E-02  0.7194E-03
    -14.841  0.3055E-02  0.1082E-02
    -14.723  0.3107E-02  0.1446E-02
    -14.605  0.3055E-02  0.1811E-02
    -14.487  0.3080E-02  0.2171E-02
    -14.370  0.3134E-02  0.2538E-02
    -14.252  0.3105E-02  0.2906E-02
    -14.134  0.3067E-02  0.3268E-02
    -14.016  0.3113E-02  0.3631E-02
    -13.899  0.3155E-02  0.4002E-02
    -13.781  0.3131E-02  0.4372E-02
    -13.663  0.3094E-02  0.4738E-02
    -13.545  0.3114E-02  0.5103E-02
    -13.427  0.3150E-02  0.5472E-02
    -13.310  0.3181E-02  0.5845E-02
    -13.192  0.3163E-02  0.6219E-02
    -13.074  0.3133E-02  0.6589E-02
    -12.956  0.3142E-02  0.6958E-02
    -12.839  0.3168E-02  0.7330E-02
    -12.721  0.3198E-02  0.7705E-02
    -12.603  0.3215E-02  0.8083E-02
    -12.485  0.3199E-02  0.8461E-02
    -12.367  0.3187E-02  0.8836E-02
    -12.250  0.3198E-02  0.9212E-02
    -12.132  0.3215E-02  0.9590E-02
    -12.014  0.3241E-02  0.9970E-02
    -11.896  0.3270E-02  0.1035E-01
    -11.779  0.3277E-02  0.1074E-01
    -11.661  0.3267E-02  0.1112E-01
    -11.543  0.3276E-02  0.1151E-01
    -11.425  0.3296E-02  0.1190E-01
    -11.307  0.3322E-02  0.1229E-01
    -11.190  0.3351E-02  0.1268E-01
    -11.072  0.3391E-02  0.1308E-01
    -10.954  0.3430E-02  0.1348E-01
    -10.836  0.3456E-02  0.1388E-01
    -10.719  0.3505E-02  0.1429E-01
    -10.601  0.3601E-02  0.1471E-01
    -10.483  0.3751E-02  0.1514E-01
    -10.365  0.3969E-02  0.1560E-01
    -10.247  0.4328E-02  0.1608E-01
    -10.130  0.5808E-02  0.1669E-01
    -10.012  0.4110E-02  0.1729E-01
     -9.894  0.3205E-02  0.1770E-01
     -9.776  0.4110E-02  0.1818E-01
     -9.659  0.2252E-02  0.1853E-01
     -9.541  0.2001E-02  0.1878E-01
     -9.423  0.1750E-02  0.1900E-01
     -9.305  0.1499E-02  0.1919E-01
     -9.187  0.1686E-02  0.1936E-01
     -9.070  0.1688E-02  0.1960E-01
     -8.952  0.8355E-03  0.1973E-01
     -8.834  0.1200E-02  0.1984E-01
     -8.716  0.2389E-02  0.2003E-01
     -8.599  0.3957E-02  0.2047E-01
     -8.481  0.2719E-02  0.2085E-01
     -8.363  0.2849E-02  0.2118E-01
     -8.245  0.5003E-02  0.2163E-01
     -8.127  0.4048E-02  0.2215E-01
     -8.010  0.4718E-02  0.2267E-01
     -7.892  0.5430E-02  0.2327E-01
     -7.774  0.4137E-02  0.2388E-01
     -7.656  0.3818E-02  0.2434E-01
     -7.539  0.3665E-02  0.2478E-01
     -7.421  0.3517E-02  0.2520E-01
     -7.303  0.3374E-02  0.2561E-01
     -7.185  0.3235E-02  0.2600E-01
     -7.067  0.3095E-02  0.2637E-01
     -6.950  0.2989E-02  0.2673E-01
     -6.832  0.2953E-02  0.2708E-01
     -6.714  0.2917E-02  0.2742E-01
     -6.596  0.2882E-02  0.2777E-01
     -6.479  0.2844E-02  0.2810E-01
     -6.361  0.2690E-02  0.2843E-01
     -6.243  0.2570E-02  0.2874E-01
     -6.125  0.2989E-02  0.2907E-01
     -6.007  0.3416E-02  0.2944E-01
     -5.890  0.3843E-02  0.2987E-01
     -5.772  0.3782E-02  0.3033E-01
     -5.654  0.3708E-02  0.3077E-01
     -5.536  0.3652E-02  0.3121E-01
     -5.419  0.3595E-02  0.3163E-01
     -5.301  0.3627E-02  0.3206E-01
     -5.183  0.3728E-02  0.3249E-01
     -5.065  0.3821E-02  0.3294E-01
     -4.947  0.3910E-02  0.3339E-01
     -4.830  0.3947E-02  0.3385E-01
     -4.712  0.3956E-02  0.3432E-01
     -4.594  0.3962E-02  0.3479E-01
     -4.476  0.3942E-02  0.3524E-01
     -4.359  0.4030E-02  0.3572E-01
     -4.241  0.4070E-02  0.3619E-01
     -4.123  0.4110E-02  0.3667E-01
     -4.005  0.4223E-02  0.3716E-01
     -3.887  0.4697E-02  0.3769E-01
     -3.770  0.5087E-02  0.3827E-01
     -3.652  0.5315E-02  0.3889E-01
     -3.534  0.5535E-02  0.3952E-01
     -3.416  0.5782E-02  0.4019E-01
     -3.299  0.5965E-02  0.4088E-01
     -3.181  0.6145E-02  0.4160E-01
     -3.063  0.6508E-02  0.4234E-01
     -2.945  0.7224E-02  0.4314E-01
     -2.827  0.8010E-02  0.4404E-01
     -2.710  0.8230E-02  0.4500E-01
     -2.592  0.8186E-02  0.4597E-01
     -2.474  0.7825E-02  0.4692E-01
     -2.356  0.7590E-02  0.4782E-01
     -2.239  0.1060E-01  0.4890E-01
     -2.121  0.1255E-01  0.5029E-01
     -2.003  0.1040E-01  0.5165E-01
     -1.885  0.9625E-02  0.5283E-01
     -1.767  0.8328E-02  0.5389E-01
     -1.650  0.7272E-02  0.5478E-01
     -1.532  0.7336E-02  0.5564E-01
     -1.414  0.6324E-02  0.5644E-01
     -1.296  0.6486E-02  0.5720E-01
     -1.179  0.6699E-02  0.5800E-01
     -1.061  0.7245E-02  0.5883E-01
     -0.943  0.6920E-02  0.5970E-01
     -0.825  0.6782E-02  0.6050E-01
     -0.707  0.6777E-02  0.6130E-01
     -0.590  0.6779E-02  0.6210E-01
     -0.472  0.6543E-02  0.6289E-01
     -0.354  0.6251E-02  0.6364E-01
     -0.236  0.6101E-02  0.6436E-01
     -0.119  0.5980E-02  0.6507E-01
     -0.001  0.5866E-02  0.6577E-01
      0.117  0.5752E-02  0.6645E-01
      0.235  0.5755E-02  0.6713E-01
      0.353  0.5857E-02  0.6782E-01
      0.470  0.5749E-02  0.6850E-01
      0.588  0.5612E-02  0.6917E-01
      0.706  0.5496E-02  0.6983E-01
      0.824  0.5760E-02  0.7049E-01
      0.941  0.5565E-02  0.7116E-01
      1.059  0.5645E-02  0.7184E-01
      1.177  0.5450E-02  0.7250E-01
      1.295  0.3667E-02  0.7303E-01
      1.412  0.3885E-02  0.7347E-01
      1.530  0.4414E-02  0.7395E-01
      1.648  0.4629E-02  0.7450E-01
      1.766  0.4562E-02  0.7504E-01
      1.884  0.4517E-02  0.7558E-01
      2.001  0.4735E-02  0.7612E-01
      2.119  0.4757E-02  0.7668E-01
      2.237  0.3772E-02  0.7720E-01
      2.355  0.3072E-02  0.7760E-01
      2.472  0.2692E-02  0.7793E-01
      2.590  0.2413E-02  0.7823E-01
      2.708  0.2066E-02  0.7850E-01
      2.826  0.1959E-02  0.7873E-01
      2.944  0.1827E-02  0.7896E-01
      3.061  0.1580E-02  0.7916E-01
      3.179  0.1330E-02  0.7933E-01
      3.297  0.1172E-02  0.7948E-01
      3.415  0.1009E-02  0.7961E-01
      3.532  0.8449E-03  0.7972E-01
      3.650  0.6830E-03  0.7981E-01
      3.768  0.5232E-03  0.7988E-01
      3.886  0.3743E-03  0.7993E-01
      4.004  0.2482E-03  0.7997E-01
      4.121  0.1347E-03  0.7999E-01
      4.239  0.3064E-04  0.8000E-01
      4.357  0.4879E-04  0.8000E-01
      4.475  0.1343E-03  0.8001E-01
      4.592  0.2318E-03  0.8003E-01
      4.710  0.3448E-03  0.8007E-01
      4.828  0.4881E-03  0.8012E-01
      4.946  0.6579E-03  0.8018E-01
      5.064  0.9021E-03  0.8027E-01
      5.181  0.1180E-02  0.8040E-01
      5.299  0.1451E-02  0.8055E-01
      5.417  0.1792E-02  0.8074E-01
      5.535  0.1812E-02  0.8094E-01
      5.652  0.2461E-02  0.8120E-01
      5.770  0.3821E-02  0.8157E-01
      5.888  0.5389E-02  0.8213E-01
      6.006  0.4859E-02  0.8271E-01
      6.124  0.4803E-02  0.8328E-01
      6.241  0.4406E-02  0.8383E-01
      6.359  0.4501E-02  0.8435E-01
      6.477  0.3993E-02  0.8487E-01
      6.595  0.3612E-02  0.8532E-01
      6.712  0.3345E-02  0.8573E-01
      6.830  0.3143E-02  0.8611E-01
      6.948  0.2980E-02  0.8647E-01
      7.066  0.2856E-02  0.8681E-01
      7.184  0.2746E-02  0.8714E-01
      7.301  0.2646E-02  0.8746E-01
      7.419  0.2579E-02  0.8777E-01
      7.537  0.2521E-02  0.8807E-01
      7.655  0.2464E-02  0.8836E-01
      7.772  0.2408E-02  0.8865E-01
      7.890  0.2349E-02  0.8893E-01
      8.008  0.2283E-02  0.8920E-01
      8.126  0.2223E-02  0.8946E-01
      8.244  0.2173E-02  0.8972E-01
      8.361  0.2326E-02  0.8999E-01
      8.479  0.2427E-02  0.9027E-01
      8.597  0.2489E-02  0.9056E-01
      8.715  0.2522E-02  0.9085E-01
      8.832  0.2582E-02  0.9115E-01
      8.950  0.2616E-02  0.9146E-01
      9.068  0.2624E-02  0.9177E-01
      9.186  0.2636E-02  0.9208E-01
      9.304  0.2656E-02  0.9239E-01
      9.421  0.2673E-02  0.9271E-01
      9.539  0.2685E-02  0.9302E-01
      9.657  0.2723E-02  0.9334E-01
      9.775  0.2811E-02  0.9366E-01
      9.892  0.2913E-02  0.9400E-01
     10.010  0.3048E-02  0.9435E-01
     10.128  0.3377E-02  0.9473E-01
     10.246  0.3554E-02  0.9515E-01
     10.364  0.3136E-02  0.9553E-01
     10.481  0.2755E-02  0.9588E-01
     10.599  0.2291E-02  0.9618E-01
     10.717  0.2164E-02  0.9644E-01
     10.835  0.2165E-02  0.9669E-01
     10.952  0.2293E-02  0.9696E-01
     11.070  0.2603E-02  0.9724E-01
     11.188  0.2911E-02  0.9757E-01
     11.306  0.3021E-02  0.9792E-01
     11.424  0.3154E-02  0.9828E-01
     11.541  0.3469E-02  0.9867E-01
     11.659  0.4897E-02  0.9915E-01
     11.777  0.6701E-02  0.9984E-01
     11.895  0.8726E-02  0.1007E+00
     12.012  0.9247E-02  0.1018E+00
     12.130  0.8853E-02  0.1029E+00
     12.248  0.7949E-02  0.1039E+00
     12.366  0.7545E-02  0.1048E+00
     12.484  0.7529E-02  0.1057E+00
     12.601  0.8436E-02  0.1066E+00
     12.719  0.1554E-01  0.1081E+00
     12.837  0.1250E-01  0.1098E+00
     12.955  0.8095E-02  0.1110E+00
     13.072  0.5758E-02  0.1118E+00
     13.190  0.4785E-02  0.1124E+00
     13.308  0.4326E-02  0.1130E+00
     13.426  0.3913E-02  0.1135E+00
     13.544  0.3575E-02  0.1139E+00
     13.661  0.3485E-02  0.1143E+00
     13.779  0.3397E-02  0.1147E+00
     13.897  0.3078E-02  0.1151E+00
     14.015  0.2659E-02  0.1154E+00
     14.132  0.2676E-02  0.1157E+00
     14.250  0.2907E-02  0.1161E+00
     14.368  0.3118E-02  0.1164E+00
     14.486  0.2742E-02  0.1168E+00
     14.604  0.3193E-02  0.1171E+00
     14.721  0.4594E-02  0.1176E+00
     14.839  0.4613E-02  0.1181E+00
     14.957  0.3435E-02  0.1186E+00
     15.075  0.2670E-02  0.1190E+00
     15.192  0.2311E-02  0.1193E+00
     15.310  0.2148E-02  0.1195E+00
     15.428  0.1445E-02  0.1197E+00
     15.546  0.1449E-02  0.1199E+00
     15.664  0.1280E-03  0.1200E+00
     15.781  0.5364E-04  0.1200E+00
     15.899  0.1122E-04  0.1200E+00
     16.017  0.1752E-08  0.1200E+00
     16.135  0.0000E+00  0.1200E+00
     16.252  0.0000E+00  0.1200E+00
     16.370  0.0000E+00  0.1200E+00
     16.488  0.0000E+00  0.1200E+00
     16.606  0.0000E+00  0.1200E+00
     16.724  0.0000E+00  0.1200E+00
     16.841  0.0000E+00  0.1200E+00
     16.959  0.0000E+00  0.1200E+00
     17.077  0.0000E+00  0.1200E+00
     17.195  0.0000E+00  0.1200E+00
     17.312  0.0000E+00  0.1200E+00
     17.430  0.0000E+00  0.1200E+00
     17.548  0.0000E+00  0.1200E+00
     17.666  0.0000E+00  0.1200E+00
     17.783  0.0000E+00  0.1200E+00
     17.901  0.0000E+00  0.1200E+00
     18.019  0.0000E+00  0.1200E+00
