    4    4  200    1
  0.9254429E+01  0.2466437E-09  0.2466437E-09  0.7029656E-09  0.5000000E-15
  1.000000000000000E-004
  CAR 
 graphite                                
     16    455     12
 
  0.0000000E+00  0.0000000E+00  0.0000000E+00  0.3858025E-03
    1      -15.314048
    2      -15.106709
    3       -4.040581
    4       -2.499792
    5        1.265386
    6        1.276712
    7        1.281803
    8        1.292763
    9        8.231618
   10       12.612684
   11       12.616910
   12       12.646825
 
  0.5555556E-01  0.3469447E-17  0.0000000E+00  0.1543210E-02
    1      -15.240583
    2      -15.034160
    3       -3.951442
    4       -2.415449
    5        0.976919
    6        0.992848
    7        1.111629
    8        1.126044
    9        8.322145
   10       12.643804
   11       12.689398
   12       12.926352
 
  0.1111111E+00  0.6938894E-17  0.0000000E+00  0.1543210E-02
    1      -15.020400
    2      -14.816867
    3       -3.684931
    4       -2.163529
    5        0.153123
    6        0.180480
    7        0.692623
    8        0.712831
    9        8.594277
   10       12.663107
   11       12.743224
   12       13.819695
 
  0.1666667E+00  0.0000000E+00  0.0000000E+00  0.1543210E-02
    1      -14.654669
    2      -14.455984
    3       -3.243887
    4       -1.747896
    5       -1.029360
    6       -0.987664
    7        0.130605
    8        0.155621
    9        9.048180
   10       12.569171
   11       12.701111
   12       13.574049
 
  0.2222222E+00  0.1387779E-16  0.0000000E+00  0.1543210E-02
    1      -14.145275
    2      -13.953286
    3       -2.633391
    4       -2.412382
    5       -2.355364
    6       -1.176188
    7       -0.465885
    8       -0.437149
    9        9.681873
   10       12.077230
   11       12.368369
   12       12.480006
 
  0.2777778E+00  0.0000000E+00  0.0000000E+00  0.1543210E-02
    1      -13.495357
    2      -13.311837
    3       -3.881345
    4       -3.808563
    5       -1.863214
    6       -1.020794
    7       -0.989767
    8       -0.462820
    9       10.488835
   10       10.498822
   11       11.044175
   12       12.124450
 
  0.3333333E+00  0.0000000E+00  0.0000000E+00  0.1543210E-02
    1      -12.710099
    2      -12.536689
    3       -5.359160
    4       -5.270476
    5       -1.486970
    6       -1.453960
    7       -0.952213
    8        0.362945
    9        8.885368
   10        9.570232
   11       11.429247
   12       11.903587
 
  0.3888889E+00 -0.2775558E-16  0.0000000E+00  0.1543210E-02
    1      -11.799153
    2      -11.638074
    3       -6.790144
    4       -6.686776
    5       -1.835664
    6       -1.801573
    7        0.059042
    8        1.231090
    9        7.376225
   10        8.149054
   11       11.681097
   12       11.919175
 
  0.4444444E+00  0.2775558E-16  0.0000000E+00  0.1543210E-02
    1      -10.790918
    2      -10.647733
    3       -8.114321
    4       -8.002389
    5       -2.050501
    6       -2.015755
    7        1.059058
    8        1.946020
    9        6.209886
   10        6.936430
   11       11.569545
   12       11.840530
 
  0.5000000E+00  0.0000000E+00  0.0000000E+00  0.7716049E-03
    1      -10.004899
    2       -9.928530
    3       -8.948126
    4       -8.889992
    5       -2.122917
    6       -2.088163
    7        1.625772
    8        2.159500
    9        5.787182
   10        6.352067
   11       11.529737
   12       11.807797
 
  0.5555556E-01  0.5555556E-01  0.0000000E+00  0.7716049E-03
    1      -15.093576
    2      -14.889118
    3       -3.773497
    4       -2.247085
    5        0.448143
    6        0.463936
    7        0.796848
    8        0.809648
    9        8.503774
   10       12.747467
   11       12.808891
   12       13.438687
 
  0.1111111E+00  0.5555556E-01  0.0000000E+00  0.1543210E-02
    1      -14.800560
    2      -14.599946
    3       -3.419553
    4       -1.913161
    5       -0.503962
    6       -0.476006
    7        0.253895
    8        0.273529
    9        8.867607
   10       12.838323
   11       12.938546
   12       13.980605
 
  0.1666667E+00  0.5555556E-01  0.0000000E+00  0.1543210E-02
    1      -14.362880
    2      -14.168015
    3       -2.893405
    4       -1.747027
    5       -1.701706
    6       -1.418939
    7       -0.369132
    8       -0.341892
    9        9.412892
   10       12.702467
   11       12.757751
   12       12.914295
 
  0.2222222E+00  0.5555556E-01  0.0000000E+00  0.1543210E-02
    1      -13.783107
    2      -13.595849
    3       -3.147946
    4       -3.085388
    5       -2.202204
    6       -0.972719
    7       -0.940365
    8       -0.774879
    9       10.136242
   10       11.224916
   11       11.668525
   12       12.556026
 
  0.2777778E+00  0.5555556E-01  0.0000000E+00  0.1543210E-02
    1      -13.065263
    2      -12.887341
    3       -4.606647
    4       -4.527484
    5       -1.499298
    6       -1.463908
    7       -1.359233
    8       -0.001024
    9        9.643749
   10       10.233172
   11       11.027918
   12       12.323743
 
  0.3333333E+00  0.5555556E-01  0.0000000E+00  0.1543210E-02
    1      -12.216454
    2      -12.049744
    3       -6.053405
    4       -5.958562
    5       -1.915710
    6       -1.878347
    7       -0.391306
    8        0.859134
    9        8.083318
   10        8.794702
   11       11.969545
   12       12.162307
 
  0.3888889E+00  0.5555556E-01  0.0000000E+00  0.1543210E-02
    1      -11.251643
    2      -11.098911
    3       -7.432718
    4       -7.324368
    5       -2.202414
    6       -2.163750
    7        0.637384
    8        1.691195
    9        6.715041
   10        7.464905
   11       11.940430
   12       12.206623
 
  0.4444444E+00  0.5555556E-01  0.0000000E+00  0.1543210E-02
    1      -10.246620
    2      -10.124995
    3       -8.631377
    4       -8.529558
    5       -2.348386
    6       -2.309131
    7        1.519857
    8        2.187427
    9        5.881945
   10        6.483893
   11       11.863141
   12       12.147744
 
  0.5000000E+00  0.5555556E-01  0.0000000E+00  0.1543210E-02
    1      -10.248069
    2      -10.126343
    3       -8.629824
    4       -8.527878
    5       -2.348785
    6       -2.309525
    7        1.519097
    8        2.187235
    9        5.882042
   10        6.484730
   11       11.863609
   12       12.148216
 
 -0.4444444E+00  0.5555556E-01  0.0000000E+00  0.1543210E-02
    1      -11.253224
    2      -11.100482
    3       -7.430509
    4       -7.322137
    5       -2.203590
    6       -2.164825
    7        0.636159
    8        1.690331
    9        6.715604
   10        7.466318
   11       11.941824
   12       12.207935
 
 -0.3888889E+00  0.5555556E-01  0.0000000E+00  0.1543210E-02
    1      -12.217852
    2      -12.051139
    3       -6.051033
    4       -5.956161
    5       -1.917558
    6       -1.880161
    7       -0.392551
    8        0.858055
    9        8.083833
   10        8.796097
   11       11.969548
   12       12.163374
 
 -0.3333333E+00  0.5555556E-01  0.0000000E+00  0.1543210E-02
    1      -13.066456
    2      -12.888545
    3       -4.604306
    4       -4.525139
    5       -1.501699
    6       -1.466154
    7       -1.360374
    8       -0.002075
    9        9.643775
   10       10.234329
   11       11.026350
   12       12.326703
 
 -0.2777778E+00  0.5555556E-01  0.0000000E+00  0.1543210E-02
    1      -13.784078
    2      -13.596815
    3       -3.145998
    4       -3.083420
    5       -2.203173
    6       -0.974910
    7       -0.942541
    8       -0.775798
    9       10.134925
   10       11.224134
   11       11.669340
   12       12.559650
 
 -0.2222222E+00  0.5555556E-01  0.0000000E+00  0.1543210E-02
    1      -14.363633
    2      -14.168821
    3       -2.894207
    4       -1.746426
    5       -1.701122
    6       -1.419683
    7       -0.370056
    8       -0.342891
    9        9.411851
   10       12.701316
   11       12.760796
   12       12.917736
 
 -0.1666667E+00  0.5555556E-01  0.0000000E+00  0.1543210E-02
    1      -14.801097
    2      -14.600480
    3       -3.420116
    4       -1.913706
    5       -0.506900
    6       -0.479029
    7        0.256743
    8        0.276096
    9        8.866846
   10       12.841557
   11       12.942571
   12       13.956521
 
 -0.1111111E+00  0.5555556E-01  0.0000000E+00  0.1543210E-02
    1      -15.093903
    2      -14.889448
    3       -3.773841
    4       -2.247424
    5        0.437900
    6        0.454104
    7        0.806808
    8        0.819492
    9        8.503304
   10       12.749371
   11       12.811709
   12       13.444853
 
 -0.5555556E-01  0.5555556E-01  0.0000000E+00  0.7716049E-03
    1      -15.240690
    2      -15.034266
    3       -3.951556
    4       -2.415561
    5        0.964609
    6        0.980791
    7        1.123926
    8        1.138175
    9        8.321986
   10       12.643980
   11       12.689888
   12       12.960820
 
  0.1111111E+00  0.1111111E+00  0.0000000E+00  0.7716049E-03
    1      -14.435530
    2      -14.239796
    3       -2.980359
    4       -1.500236
    5       -1.404395
    6       -1.379082
    7       -0.448969
    8       -0.431192
    9        9.323877
   10       12.944720
   11       13.214143
   12       13.251806
 
  0.1666667E+00  0.1111111E+00  0.0000000E+00  0.1543210E-02
    1      -13.927517
    2      -13.738382
    3       -2.550785
    4       -2.509468
    5       -2.372714
    6       -1.194226
    7       -1.166761
    8       -0.932363
    9        9.960877
   10       11.678050
   11       12.008202
   12       13.419169
 
  0.2222222E+00  0.1111111E+00  0.0000000E+00  0.1543210E-02
    1      -13.279732
    2      -13.099016
    3       -3.875472
    4       -3.812382
    5       -1.840781
    6       -1.802637
    7       -1.606154
    8       -0.223270
    9       10.240914
   10       10.683748
   11       10.773923
   12       13.297865
 
  0.2777778E+00  0.1111111E+00  0.0000000E+00  0.1543210E-02
    1      -12.497700
    2      -12.327257
    3       -5.270328
    4       -5.188213
    5       -2.354035
    6       -2.309767
    7       -0.698867
    8        0.599316
    9        8.735998
   10        9.310607
   11       11.752935
   12       13.098631
 
  0.3333333E+00  0.1111111E+00  0.0000000E+00  0.1543210E-02
    1      -11.591694
    2      -11.433442
    3       -6.652834
    4       -6.554397
    5       -2.726181
    6       -2.678542
    7        0.310408
    8        1.469841
    9        7.296421
   10        7.967696
   11       12.792376
   12       12.973553
 
  0.3888889E+00  0.1111111E+00  0.0000000E+00  0.1543210E-02
    1      -10.591251
    2      -10.450810
    3       -7.947807
    4       -7.839517
    5       -2.952156
    6       -2.902621
    7        1.315060
    8        2.199449
    9        6.161433
   10        6.792843
   11       12.782888
   12       13.092148
 
  0.4444444E+00  0.1111111E+00  0.0000000E+00  0.1543210E-02
    1       -9.816605
    2       -9.741650
    3       -8.764892
    4       -8.709179
    5       -3.028184
    6       -2.978324
    7        1.892663
    8        2.421936
    9        5.758211
   10        6.198358
   11       12.744011
   12       13.064833
 
  0.5000000E+00  0.1111111E+00  0.0000000E+00  0.1543210E-02
    1      -10.594483
    2      -10.453995
    3       -7.943800
    4       -7.835414
    5       -2.953542
    6       -2.903977
    7        1.312861
    8        2.198263
    9        6.161872
   10        6.795491
   11       12.784511
   12       13.093684
 
 -0.4444444E+00  0.1111111E+00  0.0000000E+00  0.1543210E-02
    1      -11.594699
    2      -11.436432
    3       -6.648291
    4       -6.549787
    5       -2.728813
    6       -2.681112
    7        0.307897
    8        1.467772
    9        7.297165
   10        7.970628
   11       12.791571
   12       12.973694
 
 -0.3888889E+00  0.1111111E+00  0.0000000E+00  0.1543210E-02
    1      -12.500288
    2      -12.329836
    3       -5.265761
    4       -5.183569
    5       -2.357498
    6       -2.313157
    7       -0.701253
    8        0.597144
    9        8.735962
   10        9.313236
   11       11.749472
   12       13.103272
 
 -0.3333333E+00  0.1111111E+00  0.0000000E+00  0.1543210E-02
    1      -13.281890
    2      -13.101164
    3       -3.871624
    4       -3.808578
    5       -1.844045
    6       -1.805864
    7       -1.608253
    8       -0.225256
    9       10.239301
   10       10.685828
   11       10.771019
   12       13.304149
 
 -0.2777778E+00  0.1111111E+00  0.0000000E+00  0.1543210E-02
    1      -13.929239
    2      -13.740096
    3       -2.550005
    4       -2.508587
    5       -2.374454
    6       -1.194911
    7       -1.167464
    8       -0.934030
    9        9.958544
   10       11.674520
   11       12.009556
   12       13.428457
 
 -0.2222222E+00  0.1111111E+00  0.0000000E+00  0.1543210E-02
    1      -14.436837
    2      -14.241082
    3       -2.981696
    4       -1.501534
    5       -1.410108
    6       -1.384286
    7       -0.443624
    8       -0.425683
    9        9.322103
   10       12.939927
   11       13.234256
   12       13.264428
 
 -0.1666667E+00  0.1111111E+00  0.0000000E+00  0.1543210E-02
    1      -14.801419
    2      -14.600798
    3       -3.420457
    4       -1.914042
    5       -0.515794
    6       -0.487369
    7        0.265734
    8        0.285424
    9        8.866405
   10       12.851615
   11       12.952118
   12       13.961928
 
 -0.1111111E+00  0.1111111E+00  0.0000000E+00  0.7716049E-03
    1      -15.020829
    2      -14.817292
    3       -3.685386
    4       -2.163975
    5        0.139969
    6        0.167531
    7        0.706083
    8        0.726166
    9        8.593667
   10       12.672311
   11       12.752383
   12       13.817322
 
  0.1666667E+00  0.1666667E+00  0.0000000E+00  0.7716049E-03
    1      -13.351404
    2      -13.169807
    3       -3.469047
    4       -3.433987
    5       -2.112837
    6       -2.087244
    7       -1.688997
    8       -0.297933
    9       10.485902
   10       10.687666
   11       10.835634
   12       14.214519
 
  0.2222222E+00  0.1666667E+00  0.0000000E+00  0.1543210E-02
    1      -12.639227
    2      -12.466798
    3       -4.591478
    4       -4.536290
    5       -2.883218
    6       -2.843990
    7       -0.854657
    8        0.466120
    9        9.168180
   10        9.584864
   11       11.586239
   12       14.413243
 
  0.2777778E+00  0.1666667E+00  0.0000000E+00  0.1543210E-02
    1      -11.798947
    2      -11.637708
    3       -5.858441
    4       -5.778116
    5       -3.423516
    6       -3.370935
    7        0.105509
    8        1.322107
    9        7.801562
   10        8.320040
   11       12.644862
   12       14.270172
 
  0.3333333E+00  0.1666667E+00  0.0000000E+00  0.1543210E-02
    1      -10.847122
    2      -10.699871
    3       -7.142259
    4       -7.044063
    5       -3.764600
    6       -3.705522
    7        1.134433
    8        2.170904
    9        6.540316
   10        7.112630
   11       13.819187
   12       14.136007
 
  0.3888889E+00  0.1666667E+00  0.0000000E+00  0.1543210E-02
    1       -9.861093
    2       -9.744394
    3       -8.288140
    4       -8.194015
    5       -3.931516
    6       -3.869645
    7        2.040255
    8        2.706481
    9        5.752877
   10        6.147513
   11       14.019460
   12       14.425929
 
  0.4444444E+00  0.1666667E+00  0.0000000E+00  0.1543210E-02
    1       -9.865419
    2       -9.748444
    3       -8.283547
    4       -8.188997
    5       -3.932385
    6       -3.870483
    7        2.037896
    8        2.705859
    9        5.751881
   10        6.151052
   11       14.020426
   12       14.426686
 
  0.5000000E+00  0.1666667E+00  0.0000000E+00  0.1543210E-02
    1      -10.851862
    2      -10.704592
    3       -7.135884
    4       -7.037537
    5       -3.767044
    6       -3.707888
    7        1.130787
    8        2.168158
    9        6.540470
   10        7.117327
   11       13.813336
   12       14.137390
 
 -0.4444444E+00  0.1666667E+00  0.0000000E+00  0.1543210E-02
    1      -11.803166
    2      -11.641902
    3       -5.852115
    4       -5.771631
    5       -3.426960
    6       -3.374217
    7        0.101832
    8        1.318795
    9        7.800825
   10        8.324505
   11       12.639142
   12       14.274974
 
 -0.3888889E+00  0.1666667E+00  0.0000000E+00  0.1543210E-02
    1      -12.642780
    2      -12.470344
    3       -4.587108
    4       -4.531663
    5       -2.885492
    6       -2.846047
    7       -0.858009
    8        0.462940
    9        9.165224
   10        9.588646
   11       11.581470
   12       14.421580
 
 -0.3333333E+00  0.1666667E+00  0.0000000E+00  0.1543210E-02
    1      -13.354312
    2      -13.172704
    3       -3.470398
    4       -3.434504
    5       -2.110512
    6       -2.084431
    7       -1.691868
    8       -0.300711
    9       10.480557
   10       10.683790
   11       10.838009
   12       14.231870
 
 -0.2777778E+00  0.1666667E+00  0.0000000E+00  0.1543210E-02
    1      -13.929773
    2      -13.740629
    3       -2.558561
    4       -2.516543
    5       -2.375015
    6       -1.185688
    7       -1.157860
    8       -0.934610
    9        9.957862
   10       11.671375
   11       12.008248
   12       13.445612
 
 -0.2222222E+00  0.1666667E+00  0.0000000E+00  0.1543210E-02
    1      -14.364489
    2      -14.169671
    3       -2.895107
    4       -1.758823
    5       -1.713162
    6       -1.420582
    7       -0.356178
    8       -0.328920
    9        9.410725
   10       12.696175
   11       12.780335
   12       12.940961
 
 -0.1666667E+00  0.1666667E+00  0.0000000E+00  0.7716049E-03
    1      -14.655632
    2      -14.456944
    3       -3.244905
    4       -1.748897
    5       -1.042880
    6       -1.000938
    7        0.145244
    8        0.170170
    9        9.046867
   10       12.587511
   11       12.719057
   12       13.504426
 
  0.2222222E+00  0.2222222E+00  0.0000000E+00  0.7716049E-03
    1      -11.868343
    2      -11.706232
    3       -5.388013
    4       -5.343296
    5       -3.848074
    6       -3.814239
    7        0.035866
    8        1.270573
    9        8.018677
   10        8.436079
   11       12.561044
   12       15.528960
 
  0.2777778E+00  0.2222222E+00  0.0000000E+00  0.1543210E-02
    1      -10.979136
    2      -10.829362
    3       -6.400444
    4       -6.331750
    5       -4.515618
    6       -4.464596
    7        1.033363
    8        2.141601
    9        6.832120
   10        7.298107
   11       13.678606
   12       15.592407
 
  0.3333333E+00  0.2222222E+00  0.0000000E+00  0.1543210E-02
    1      -10.003683
    2       -9.871550
    3       -7.523240
    4       -7.432423
    5       -4.865149
    6       -4.799891
    7        2.053039
    8        2.929336
    9        5.793759
   10        6.241058
   11       14.889384
   12       15.464048
 
  0.3888889E+00  0.2222222E+00  0.0000000E+00  0.1543210E-02
    1       -9.252490
    2       -9.181838
    3       -8.278820
    4       -8.237642
    5       -4.972785
    6       -4.903589
    7        2.685114
    8        3.198718
    9        5.497384
   10        5.536486
   11       15.386495
   12       15.986416
 
  0.4444444E+00  0.2222222E+00  0.0000000E+00  0.1543210E-02
    1      -10.010176
    2       -9.877983
    3       -7.515677
    4       -7.424489
    5       -4.866728
    6       -4.801380
    7        2.048629
    8        2.926491
    9        5.791958
   10        6.247965
   11       14.879519
   12       15.464928
 
  0.5000000E+00  0.2222222E+00  0.0000000E+00  0.1543210E-02
    1      -10.985141
    2      -10.835501
    3       -6.393407
    4       -6.324266
    5       -4.517432
    6       -4.466205
    7        1.028497
    8        2.137187
    9        6.830102
   10        7.304699
   11       13.670233
   12       15.595962
 
 -0.4444444E+00  0.2222222E+00  0.0000000E+00  0.1543210E-02
    1      -11.873786
    2      -11.711391
    3       -5.385631
    4       -5.339876
    5       -3.846577
    6       -3.812176
    7        0.031239
    8        1.266083
    9        8.014483
   10        8.441388
   11       12.554089
   12       15.549905
 
 -0.3888889E+00  0.2222222E+00  0.0000000E+00  0.1543210E-02
    1      -12.643553
    2      -12.471233
    3       -4.595254
    4       -4.539198
    5       -2.876323
    6       -2.836403
    7       -0.858760
    8        0.462061
    9        9.162070
   10        9.587458
   11       11.580564
   12       14.447958
 
 -0.3333333E+00  0.2222222E+00  0.0000000E+00  0.1543210E-02
    1      -13.283176
    2      -13.102447
    3       -3.883576
    4       -3.820039
    5       -1.829612
    6       -1.791294
    7       -1.609572
    8       -0.226671
    9       10.233624
   10       10.682994
   11       10.769446
   12       13.331034
 
 -0.2777778E+00  0.2222222E+00  0.0000000E+00  0.1543210E-02
    1      -13.785683
    2      -13.598413
    3       -3.159119
    4       -3.096306
    5       -2.204835
    6       -0.958566
    7       -0.926219
    8       -0.777504
    9       10.132913
   10       11.217082
   11       11.665201
   12       12.585451
 
 -0.2222222E+00  0.2222222E+00  0.0000000E+00  0.7716049E-03
    1      -14.146989
    2      -13.955045
    3       -2.635202
    4       -2.425545
    5       -2.368360
    6       -1.177969
    7       -0.450090
    8       -0.421423
    9        9.679643
   10       12.069901
   11       12.393274
   12       12.552465
 
  0.2777778E+00  0.2777778E+00  0.0000000E+00  0.7716049E-03
    1      -10.059212
    2       -9.924326
    3       -7.024844
    4       -6.970618
    5       -5.386287
    6       -5.348275
    7        2.046388
    8        3.006231
    9        5.825630
   10        6.294908
   11       14.811590
   12       15.591105
 
  0.3333333E+00  0.2777778E+00  0.0000000E+00  0.1543210E-02
    1       -9.112285
    2       -9.004488
    3       -7.843012
    4       -7.777160
    5       -5.824775
    6       -5.772509
    7        3.021794
    8        3.699926
    9        4.996723
   10        5.397506
   11       15.406004
   12       15.562523
 
  0.3888889E+00  0.2777778E+00  0.0000000E+00  0.1543210E-02
    1       -9.119920
    2       -9.011828
    3       -7.836098
    4       -7.768943
    5       -5.824912
    6       -5.772611
    7        3.017499
    8        3.698304
    9        4.992774
   10        5.405503
   11       15.418343
   12       15.549731
 
  0.4444444E+00  0.2777778E+00  0.0000000E+00  0.1543210E-02
    1      -10.067236
    2       -9.932383
    3       -7.019417
    4       -6.963910
    5       -5.384580
    6       -5.345776
    7        2.040700
    8        3.000529
    9        5.823104
   10        6.302986
   11       14.800010
   12       15.603210
 
  0.5000000E+00  0.2777778E+00  0.0000000E+00  0.1543210E-02
    1      -10.986193
    2      -10.836521
    3       -6.400451
    4       -6.330770
    5       -4.509101
    6       -4.457397
    7        1.027657
    8        2.135566
    9        6.828076
   10        7.303849
   11       13.669148
   12       15.630524
 
 -0.4444444E+00  0.2777778E+00  0.0000000E+00  0.1543210E-02
    1      -11.804935
    2      -11.643685
    3       -5.862674
    4       -5.781860
    5       -3.413130
    6       -3.360329
    7        0.100201
    8        1.316525
    9        7.796102
   10        8.322027
   11       12.637193
   12       14.308161
 
 -0.3888889E+00  0.2777778E+00  0.0000000E+00  0.1543210E-02
    1      -12.502560
    2      -12.332114
    3       -5.277786
    4       -5.195387
    5       -2.340901
    6       -2.296561
    7       -0.703474
    8        0.594513
    9        8.729206
   10        9.308876
   11       11.746982
   12       13.134373
 
 -0.3333333E+00  0.2777778E+00  0.0000000E+00  0.1543210E-02
    1      -13.069035
    2      -12.891118
    3       -4.616778
    4       -4.537417
    5       -1.484009
    6       -1.448573
    7       -1.362958
    8       -0.004880
    9        9.635864
   10       10.228745
   11       11.023500
   12       12.356304
 
 -0.2777778E+00  0.2777778E+00  0.0000000E+00  0.7716049E-03
    1      -13.498037
    2      -13.314510
    3       -3.893591
    4       -3.820628
    5       -1.865943
    6       -1.003967
    7       -0.973004
    8       -0.465629
    9       10.485613
   10       10.490599
   11       11.038775
   12       12.153615
 
  0.3333333E+00  0.3333333E+00  0.0000000E+00  0.7716049E-03
    1       -8.350769
    2       -8.286455
    3       -8.284508
    4       -8.222899
    5       -6.239894
    6       -6.239245
    7        3.800033
    8        4.267928
    9        4.274707
   10        4.817139
   11       15.256611
   12       15.277068
 
  0.3888889E+00  0.3333333E+00  0.0000000E+00  0.1543210E-02
    1       -9.122678
    2       -9.015280
    3       -7.838472
    4       -7.771718
    5       -5.819099
    6       -5.766080
    7        3.017146
    8        3.690937
    9        4.996060
   10        5.406070
   11       15.422451
   12       15.548749
 
  0.4444444E+00  0.3333333E+00  0.0000000E+00  0.1543210E-02
    1      -10.013000
    2       -9.881055
    3       -7.523182
    4       -7.431965
    5       -4.855229
    6       -4.789684
    7        2.047140
    8        2.920749
    9        5.791370
   10        6.246593
   11       14.877780
   12       15.501282
 
  0.5000000E+00  0.3333333E+00  0.0000000E+00  0.1543210E-02
    1      -10.855063
    2      -10.707900
    3       -7.145615
    4       -7.047185
    5       -3.751997
    6       -3.692818
    7        1.128339
    8        2.163194
    9        6.536696
   10        7.113768
   11       13.812721
   12       14.171495
 
 -0.4444444E+00  0.3333333E+00  0.0000000E+00  0.1543210E-02
    1      -11.598381
    2      -11.440039
    3       -6.659050
    4       -6.560465
    5       -2.711498
    6       -2.663843
    7        0.304749
    8        1.463182
    9        7.291171
   10        7.965092
   11       12.800466
   12       12.999857
 
 -0.3888889E+00  0.3333333E+00  0.0000000E+00  0.1543210E-02
    1      -12.221657
    2      -12.054965
    3       -6.062120
    4       -5.967131
    5       -1.899271
    6       -1.861887
    7       -0.396144
    8        0.853676
    9        8.076457
   10        8.789462
   11       11.978514
   12       12.190149
 
 -0.3333333E+00  0.3333333E+00  0.0000000E+00  0.7716049E-03
    1      -12.713981
    2      -12.540830
    3       -5.370136
    4       -5.281258
    5       -1.469311
    6       -1.436362
    7       -0.955999
    8        0.358778
    9        8.877409
   10        9.563840
   11       11.427670
   12       11.934719
 
  0.3888889E+00  0.3888889E+00  0.0000000E+00  0.7716049E-03
    1       -9.261919
    2       -9.192890
    3       -8.278521
    4       -8.238302
    5       -4.961255
    6       -4.891924
    7        2.683706
    8        3.185572
    9        5.501961
   10        5.535269
   11       15.422182
   12       16.019053
 
  0.4444444E+00  0.3888889E+00  0.0000000E+00  0.1543210E-02
    1       -9.871655
    2       -9.755530
    3       -8.289261
    4       -8.195334
    5       -3.917440
    6       -3.855543
    7        2.035806
    8        2.694740
    9        5.753173
   10        6.146258
   11       14.056819
   12       14.463411
 
  0.5000000E+00  0.3888889E+00  0.0000000E+00  0.1543210E-02
    1      -10.600024
    2      -10.459932
    3       -7.952072
    4       -7.843774
    5       -2.936263
    6       -2.886745
    7        1.309345
    8        2.189706
    9        6.159406
   10        6.788829
   11       12.819178
   12       13.128357
 
 -0.4444444E+00  0.3888889E+00  0.0000000E+00  0.1543210E-02
    1      -11.258668
    2      -11.106029
    3       -7.439585
    4       -7.331191
    5       -2.185076
    6       -2.146379
    7        0.631796
    8        1.683287
    9        6.710641
   10        7.458819
   11       11.974923
   12       12.240781
 
 -0.3888889E+00  0.3888889E+00  0.0000000E+00  0.7716049E-03
    1      -11.804547
    2      -11.643502
    3       -6.799328
    4       -6.696029
    5       -1.817391
    6       -1.783363
    7        0.054265
    8        1.224942
    9        7.369879
   10        8.141939
   11       11.713301
   12       11.950349
 
  0.4444444E+00  0.4444444E+00  0.0000000E+00  0.7716049E-03
    1       -9.827046
    2       -9.753799
    3       -8.766529
    4       -8.712032
    5       -3.011407
    6       -2.961593
    7        1.890468
    8        2.407623
    9        5.760920
   10        6.190286
   11       12.779972
   12       13.101064
 
  0.5000000E+00  0.4444444E+00  0.0000000E+00  0.1543210E-02
    1      -10.256425
    2      -10.135484
    3       -8.635074
    4       -8.533673
    5       -2.330384
    6       -2.291183
    7        1.515686
    8        2.174905
    9        5.882427
   10        6.475357
   11       11.898059
   12       12.182732
 
 -0.4444444E+00  0.4444444E+00  0.0000000E+00  0.7716049E-03
    1      -10.798410
    2      -10.655467
    3       -8.121069
    4       -8.009252
    5       -2.031859
    6       -1.997174
    7        1.054127
    8        1.936319
    9        6.207332
   10        6.928111
   11       11.603469
   12       11.874424
 
  0.5000000E+00  0.5000000E+00  0.0000000E+00  0.3858025E-03
    1      -10.015666
    2       -9.941053
    3       -8.950181
    4       -8.893340
    5       -2.104149
    6       -2.069456
    7        1.623284
    8        2.144798
    9        5.789301
   10        6.341307
   11       11.564024
   12       11.842126
 