mesh: [     9,     9,     4 ]
nqpoint: 50     
natom:   4      
reciprocal_lattice:
- [   0.40533564,   0.23404500,   0.00000000 ] # a*
- [   0.00002110,   0.46805346,   0.00000000 ] # b*
- [   0.00000000,   0.00000000,   0.13516588 ] # c*
phonon:
- q-position: [    0.0000000,    0.0000000,    0.1250000 ]
  weight: 2    
  band:
  - # 1
    frequency:   -35.0648803687
  - # 2
    frequency:   -35.0645054879
  - # 3
    frequency:   -34.9833638492
  - # 4
    frequency:   -34.9813308640
  - # 5
    frequency:     0.1203226740
  - # 6
    frequency:     0.1204090640
  - # 7
    frequency:     0.4562034763
  - # 8
    frequency:     0.6157842036
  - # 9
    frequency:     0.6230193772
  - # 10
    frequency:     2.1852931602
  - # 11
    frequency:    18.3456936911
  - # 12
    frequency:    18.3463714693

- q-position: [    0.1111111,    0.0000000,    0.1250000 ]
  weight: 8    
  band:
  - # 1
    frequency:   -33.9678988392
  - # 2
    frequency:   -33.9078965600
  - # 3
    frequency:   -33.8905334088
  - # 4
    frequency:   -33.8322024334
  - # 5
    frequency:    -2.4593691161
  - # 6
    frequency:    -2.2159201653
  - # 7
    frequency:     4.0012417659
  - # 8
    frequency:     4.5219527842
  - # 9
    frequency:     5.7562722435
  - # 10
    frequency:     5.8553874518
  - # 11
    frequency:    18.2059712588
  - # 12
    frequency:    18.2120306741

- q-position: [    0.2222222,    0.0000000,    0.1250000 ]
  weight: 8    
  band:
  - # 1
    frequency:   -30.8507574334
  - # 2
    frequency:   -30.7825439536
  - # 3
    frequency:   -30.7374182894
  - # 4
    frequency:   -30.6796384554
  - # 5
    frequency:    -5.6458981842
  - # 6
    frequency:    -5.3732510612
  - # 7
    frequency:     7.6305385018
  - # 8
    frequency:     7.8893787697
  - # 9
    frequency:    10.7150312129
  - # 10
    frequency:    10.7942047479
  - # 11
    frequency:    17.7922724460
  - # 12
    frequency:    17.8013914039

- q-position: [    0.3333333,    0.0000000,    0.1250000 ]
  weight: 8    
  band:
  - # 1
    frequency:   -26.5498364114
  - # 2
    frequency:   -26.5182839445
  - # 3
    frequency:   -26.2026625156
  - # 4
    frequency:   -26.1211723442
  - # 5
    frequency:    -9.8575931122
  - # 6
    frequency:    -9.6071061629
  - # 7
    frequency:    10.6378045744
  - # 8
    frequency:    10.7906737855
  - # 9
    frequency:    14.1887893332
  - # 10
    frequency:    14.2413030097
  - # 11
    frequency:    17.1116535670
  - # 12
    frequency:    17.1257624155

- q-position: [    0.4444444,    0.0000000,    0.1250000 ]
  weight: 8    
  band:
  - # 1
    frequency:   -23.2914183777
  - # 2
    frequency:   -23.2837508373
  - # 3
    frequency:   -20.7443661296
  - # 4
    frequency:   -20.6106000178
  - # 5
    frequency:   -14.9424833585
  - # 6
    frequency:   -14.7566528391
  - # 7
    frequency:    12.6474444906
  - # 8
    frequency:    12.7388297319
  - # 9
    frequency:    15.8868951003
  - # 10
    frequency:    15.9055176257
  - # 11
    frequency:    16.3241860546
  - # 12
    frequency:    16.3496580668

- q-position: [    0.1111111,    0.1111111,    0.1250000 ]
  weight: 4    
  band:
  - # 1
    frequency:   -31.7980739929
  - # 2
    frequency:   -31.7404651143
  - # 3
    frequency:   -31.7098377412
  - # 4
    frequency:   -31.6607152852
  - # 5
    frequency:    -4.3849790977
  - # 6
    frequency:    -4.0686501419
  - # 7
    frequency:     6.7887597991
  - # 8
    frequency:     7.1002325973
  - # 9
    frequency:     9.1159683392
  - # 10
    frequency:     9.1895731777
  - # 11
    frequency:    17.8990624971
  - # 12
    frequency:    17.9055618233

- q-position: [    0.2222222,    0.1111111,    0.1250000 ]
  weight: 8    
  band:
  - # 1
    frequency:   -28.0551249595
  - # 2
    frequency:   -28.0320168135
  - # 3
    frequency:   -27.7568420580
  - # 4
    frequency:   -27.7180045353
  - # 5
    frequency:    -7.4005359577
  - # 6
    frequency:    -7.0836632830
  - # 7
    frequency:     9.7791375149
  - # 8
    frequency:     9.9739198526
  - # 9
    frequency:    12.4261816224
  - # 10
    frequency:    12.5066180041
  - # 11
    frequency:    17.3211727502
  - # 12
    frequency:    17.3322490317

- q-position: [    0.3333333,    0.1111111,    0.1250000 ]
  weight: 8    
  band:
  - # 1
    frequency:   -24.3075178382
  - # 2
    frequency:   -24.3026584802
  - # 3
    frequency:   -22.5244824859
  - # 4
    frequency:   -22.4535485313
  - # 5
    frequency:   -11.7109596373
  - # 6
    frequency:   -11.4664898006
  - # 7
    frequency:    12.1818599525
  - # 8
    frequency:    12.3032436129
  - # 9
    frequency:    14.5558855526
  - # 10
    frequency:    14.6170285804
  - # 11
    frequency:    16.5266346939
  - # 12
    frequency:    16.5437307776

- q-position: [   -0.5555556,    0.1111111,    0.1250000 ]
  weight: 8    
  band:
  - # 1
    frequency:   -22.6850403104
  - # 2
    frequency:   -22.6678705530
  - # 3
    frequency:   -17.6810419645
  - # 4
    frequency:   -17.5429275201
  - # 5
    frequency:   -16.1012130542
  - # 6
    frequency:   -16.0195768075
  - # 7
    frequency:    13.2386107344
  - # 8
    frequency:    13.3086922073
  - # 9
    frequency:    15.3506656933
  - # 10
    frequency:    15.3739975234
  - # 11
    frequency:    16.0251908509
  - # 12
    frequency:    16.0488247196

- q-position: [   -0.4444444,    0.1111111,    0.1250000 ]
  weight: 8    
  band:
  - # 1
    frequency:   -24.4720759345
  - # 2
    frequency:   -24.4450043759
  - # 3
    frequency:   -22.7347365076
  - # 4
    frequency:   -22.6517062950
  - # 5
    frequency:   -11.3057238647
  - # 6
    frequency:   -11.1078244462
  - # 7
    frequency:    12.0123267672
  - # 8
    frequency:    12.1081349508
  - # 9
    frequency:    14.8454222148
  - # 10
    frequency:    14.8659184271
  - # 11
    frequency:    16.6606079876
  - # 12
    frequency:    16.6766946893

- q-position: [   -0.3333333,    0.1111111,    0.1250000 ]
  weight: 8    
  band:
  - # 1
    frequency:   -28.2298284733
  - # 2
    frequency:   -28.1811531392
  - # 3
    frequency:   -27.9275091611
  - # 4
    frequency:   -27.8681463041
  - # 5
    frequency:    -6.7980228690
  - # 6
    frequency:    -6.5483278240
  - # 7
    frequency:     9.5692259054
  - # 8
    frequency:     9.7347312851
  - # 9
    frequency:    12.8339144792
  - # 10
    frequency:    12.8882396411
  - # 11
    frequency:    17.4464653538
  - # 12
    frequency:    17.4592182950

- q-position: [   -0.2222222,    0.1111111,    0.1250000 ]
  weight: 8    
  band:
  - # 1
    frequency:   -31.9205420949
  - # 2
    frequency:   -31.8444420131
  - # 3
    frequency:   -31.8143261161
  - # 4
    frequency:   -31.7470386551
  - # 5
    frequency:    -3.5282715127
  - # 6
    frequency:    -3.2119074101
  - # 7
    frequency:     6.5781092743
  - # 8
    frequency:     6.8656753801
  - # 9
    frequency:     9.4760745868
  - # 10
    frequency:     9.5428660716
  - # 11
    frequency:    17.9787567951
  - # 12
    frequency:    17.9955467506

- q-position: [   -0.1111111,    0.1111111,    0.1250000 ]
  weight: 4    
  band:
  - # 1
    frequency:   -34.0258920558
  - # 2
    frequency:   -33.9410701954
  - # 3
    frequency:   -33.9267996601
  - # 4
    frequency:   -33.8469840114
  - # 5
    frequency:    -1.6549618013
  - # 6
    frequency:    -0.9930005592
  - # 7
    frequency:     3.8738896323
  - # 8
    frequency:     4.3908767159
  - # 9
    frequency:     5.8811485895
  - # 10
    frequency:     5.9308482069
  - # 11
    frequency:    18.2319722839
  - # 12
    frequency:    18.2455784165

- q-position: [    0.2222222,    0.2222222,    0.1250000 ]
  weight: 4    
  band:
  - # 1
    frequency:   -24.8125386792
  - # 2
    frequency:   -24.8067630159
  - # 3
    frequency:   -22.9988121690
  - # 4
    frequency:   -22.9882509555
  - # 5
    frequency:    -9.0984814894
  - # 6
    frequency:    -8.7990436390
  - # 7
    frequency:    12.0065947204
  - # 8
    frequency:    12.1409193751
  - # 9
    frequency:    13.1685427030
  - # 10
    frequency:    13.2550692560
  - # 11
    frequency:    16.5983079338
  - # 12
    frequency:    16.6072904557

- q-position: [    0.3333333,    0.2222222,    0.1250000 ]
  weight: 8    
  band:
  - # 1
    frequency:   -22.5744953243
  - # 2
    frequency:   -22.5496624895
  - # 3
    frequency:   -17.4561243478
  - # 4
    frequency:   -17.4058808875
  - # 5
    frequency:   -12.2482780893
  - # 6
    frequency:   -12.0631471981
  - # 7
    frequency:    13.1559582833
  - # 8
    frequency:    13.2213812842
  - # 9
    frequency:    13.6972117209
  - # 10
    frequency:    13.7761157770
  - # 11
    frequency:    15.7493525602
  - # 12
    frequency:    15.7581644462

- q-position: [   -0.5555556,    0.2222222,    0.1250000 ]
  weight: 8    
  band:
  - # 1
    frequency:   -22.7024015657
  - # 2
    frequency:   -22.6726406310
  - # 3
    frequency:   -17.7826998940
  - # 4
    frequency:   -17.7056571156
  - # 5
    frequency:   -11.8396006150
  - # 6
    frequency:   -11.7183648254
  - # 7
    frequency:    13.4636172982
  - # 8
    frequency:    13.4834086262
  - # 9
    frequency:    13.5080941959
  - # 10
    frequency:    13.5536267561
  - # 11
    frequency:    15.9241596084
  - # 12
    frequency:    15.9379235459

- q-position: [   -0.4444444,    0.2222222,    0.1250000 ]
  weight: 8    
  band:
  - # 1
    frequency:   -25.0724450717
  - # 2
    frequency:   -25.0316252067
  - # 3
    frequency:   -23.3197599152
  - # 4
    frequency:   -23.2654638176
  - # 5
    frequency:    -8.3552262757
  - # 6
    frequency:    -8.1504432432
  - # 7
    frequency:    11.7326805640
  - # 8
    frequency:    11.8237908766
  - # 9
    frequency:    13.7146052014
  - # 10
    frequency:    13.7310877540
  - # 11
    frequency:    16.8078703347
  - # 12
    frequency:    16.8196541105

- q-position: [   -0.3333333,    0.2222222,    0.1250000 ]
  weight: 8    
  band:
  - # 1
    frequency:   -28.2903083534
  - # 2
    frequency:   -28.2204202753
  - # 3
    frequency:   -27.9822075782
  - # 4
    frequency:   -27.9153318771
  - # 5
    frequency:    -6.3610983460
  - # 6
    frequency:    -6.0798904803
  - # 7
    frequency:     9.5119715759
  - # 8
    frequency:     9.6657925640
  - # 9
    frequency:    12.8354751190
  - # 10
    frequency:    12.8658109053
  - # 11
    frequency:    17.4754431662
  - # 12
    frequency:    17.4997296912

- q-position: [   -0.2222222,    0.2222222,    0.1250000 ]
  weight: 4    
  band:
  - # 1
    frequency:   -31.0352613009
  - # 2
    frequency:   -30.9402172284
  - # 3
    frequency:   -30.7937171968
  - # 4
    frequency:   -30.7245635855
  - # 5
    frequency:    -4.6389989001
  - # 6
    frequency:    -4.2732196565
  - # 7
    frequency:     7.4425693796
  - # 8
    frequency:     7.6748133516
  - # 9
    frequency:    10.8792847519
  - # 10
    frequency:    10.9133094014
  - # 11
    frequency:    17.8707390591
  - # 12
    frequency:    17.8958539027

- q-position: [   -0.6666667,    0.3333333,    0.1250000 ]
  weight: 4    
  band:
  - # 1
    frequency:   -22.0131995505
  - # 2
    frequency:   -21.9845691673
  - # 3
    frequency:   -13.2148639106
  - # 4
    frequency:   -13.2127358077
  - # 5
    frequency:   -13.1885196053
  - # 6
    frequency:   -13.1248707038
  - # 7
    frequency:    11.6468064246
  - # 8
    frequency:    11.6962550815
  - # 9
    frequency:    14.7363769624
  - # 10
    frequency:    14.7571952454
  - # 11
    frequency:    14.9719722484
  - # 12
    frequency:    15.0128881508

- q-position: [   -0.5555556,    0.3333333,    0.1250000 ]
  weight: 8    
  band:
  - # 1
    frequency:   -22.7138864143
  - # 2
    frequency:   -22.6917371006
  - # 3
    frequency:   -17.7176425510
  - # 4
    frequency:   -17.6570125484
  - # 5
    frequency:   -11.9677914170
  - # 6
    frequency:   -11.8501623280
  - # 7
    frequency:    13.4948479735
  - # 8
    frequency:    13.5250936115
  - # 9
    frequency:    13.5431146051
  - # 10
    frequency:    13.5472526649
  - # 11
    frequency:    15.9390174778
  - # 12
    frequency:    15.9402999261

- q-position: [   -0.4444444,    0.3333333,    0.1250000 ]
  weight: 8    
  band:
  - # 1
    frequency:   -24.4816065280
  - # 2
    frequency:   -24.4432308221
  - # 3
    frequency:   -22.8179034421
  - # 4
    frequency:   -22.7232391261
  - # 5
    frequency:   -11.1160745785
  - # 6
    frequency:   -10.9207076097
  - # 7
    frequency:    11.9924527753
  - # 8
    frequency:    12.0802720802
  - # 9
    frequency:    14.8296328087
  - # 10
    frequency:    14.8352735809
  - # 11
    frequency:    16.6732910260
  - # 12
    frequency:    16.6984038716

- q-position: [   -0.3333333,    0.3333333,    0.1250000 ]
  weight: 4    
  band:
  - # 1
    frequency:   -26.6133062313
  - # 2
    frequency:   -26.5639738530
  - # 3
    frequency:   -26.4586492334
  - # 4
    frequency:   -26.3452447667
  - # 5
    frequency:    -9.1897814174
  - # 6
    frequency:    -8.9452302639
  - # 7
    frequency:    10.4918676606
  - # 8
    frequency:    10.6161683418
  - # 9
    frequency:    14.3028229979
  - # 10
    frequency:    14.3215468429
  - # 11
    frequency:    17.2021055418
  - # 12
    frequency:    17.2337696362

- q-position: [   -0.5555556,    0.4444444,    0.1250000 ]
  weight: 4    
  band:
  - # 1
    frequency:   -22.7145858461
  - # 2
    frequency:   -22.7102659420
  - # 3
    frequency:   -17.6253060203
  - # 4
    frequency:   -17.4931754060
  - # 5
    frequency:   -16.1707426427
  - # 6
    frequency:   -16.0941188845
  - # 7
    frequency:    13.2095550639
  - # 8
    frequency:    13.2792818880
  - # 9
    frequency:    15.4181377541
  - # 10
    frequency:    15.4243827643
  - # 11
    frequency:    16.0515612715
  - # 12
    frequency:    16.0706047491

- q-position: [   -0.4444444,    0.4444444,    0.1250000 ]
  weight: 4    
  band:
  - # 1
    frequency:   -23.3116223563
  - # 2
    frequency:   -23.2927394679
  - # 3
    frequency:   -20.8851451903
  - # 4
    frequency:   -20.7408445358
  - # 5
    frequency:   -14.7496198105
  - # 6
    frequency:   -14.5777411148
  - # 7
    frequency:    12.6162186013
  - # 8
    frequency:    12.6989873017
  - # 9
    frequency:    15.9095280197
  - # 10
    frequency:    15.9140249241
  - # 11
    frequency:    16.3494917716
  - # 12
    frequency:    16.3792916628

- q-position: [    0.0000000,    0.0000000,    0.3750000 ]
  weight: 2    
  band:
  - # 1
    frequency:   -35.0447846376
  - # 2
    frequency:   -35.0447622163
  - # 3
    frequency:   -35.0110230611
  - # 4
    frequency:   -35.0103146947
  - # 5
    frequency:     0.3442448758
  - # 6
    frequency:     0.3451380238
  - # 7
    frequency:     0.5192040500
  - # 8
    frequency:     0.5233451674
  - # 9
    frequency:     1.2815781078
  - # 10
    frequency:     1.8800046796
  - # 11
    frequency:    18.3458445209
  - # 12
    frequency:    18.3461223419

- q-position: [    0.1111111,    0.0000000,    0.3750000 ]
  weight: 8    
  band:
  - # 1
    frequency:   -33.9494289770
  - # 2
    frequency:   -33.9173870634
  - # 3
    frequency:   -33.8894644396
  - # 4
    frequency:   -33.8581212448
  - # 5
    frequency:    -2.3937250459
  - # 6
    frequency:    -2.2931340580
  - # 7
    frequency:     4.1712738370
  - # 8
    frequency:     4.3861076509
  - # 9
    frequency:     5.7852869659
  - # 10
    frequency:     5.8263421245
  - # 11
    frequency:    18.2076835270
  - # 12
    frequency:    18.2101937823

- q-position: [    0.2222222,    0.0000000,    0.3750000 ]
  weight: 8    
  band:
  - # 1
    frequency:   -30.8344253547
  - # 2
    frequency:   -30.8061699221
  - # 3
    frequency:   -30.7235253290
  - # 4
    frequency:   -30.6995937238
  - # 5
    frequency:    -5.5711917029
  - # 6
    frequency:    -5.4583634087
  - # 7
    frequency:     7.7119016059
  - # 8
    frequency:     7.8190428966
  - # 9
    frequency:    10.7383630493
  - # 10
    frequency:    10.7711574211
  - # 11
    frequency:    17.7948629151
  - # 12
    frequency:    17.7986408181

- q-position: [    0.3333333,    0.0000000,    0.3750000 ]
  weight: 8    
  band:
  - # 1
    frequency:   -26.5425724369
  - # 2
    frequency:   -26.5295035420
  - # 3
    frequency:   -26.1818733048
  - # 4
    frequency:   -26.1481231915
  - # 5
    frequency:    -9.7884727067
  - # 6
    frequency:    -9.6847620591
  - # 7
    frequency:    10.6851126417
  - # 8
    frequency:    10.7484181513
  - # 9
    frequency:    14.2042779926
  - # 10
    frequency:    14.2260296668
  - # 11
    frequency:    17.1157397295
  - # 12
    frequency:    17.1215837866

- q-position: [    0.4444444,    0.0000000,    0.3750000 ]
  weight: 8    
  band:
  - # 1
    frequency:   -23.2902124569
  - # 2
    frequency:   -23.2870364510
  - # 3
    frequency:   -20.7079658266
  - # 4
    frequency:   -20.6525644768
  - # 5
    frequency:   -14.8914780225
  - # 6
    frequency:   -14.8145201790
  - # 7
    frequency:    12.6755448950
  - # 8
    frequency:    12.7133971874
  - # 9
    frequency:    15.8923179745
  - # 10
    frequency:    15.9000316627
  - # 11
    frequency:    16.3317013240
  - # 12
    frequency:    16.3422548210

- q-position: [    0.1111111,    0.1111111,    0.3750000 ]
  weight: 4    
  band:
  - # 1
    frequency:   -31.7831852123
  - # 2
    frequency:   -31.7578247272
  - # 3
    frequency:   -31.7020835973
  - # 4
    frequency:   -31.6802373671
  - # 5
    frequency:    -4.3007365427
  - # 6
    frequency:    -4.1699665995
  - # 7
    frequency:     6.8870170867
  - # 8
    frequency:     7.0159082131
  - # 9
    frequency:     9.1373954385
  - # 10
    frequency:     9.1678865078
  - # 11
    frequency:    17.9008966631
  - # 12
    frequency:    17.9035905461

- q-position: [    0.2222222,    0.1111111,    0.3750000 ]
  weight: 8    
  band:
  - # 1
    frequency:   -28.0498397805
  - # 2
    frequency:   -28.0401939861
  - # 3
    frequency:   -27.7496428562
  - # 4
    frequency:   -27.7334895936
  - # 5
    frequency:    -7.3152241268
  - # 6
    frequency:    -7.1841064678
  - # 7
    frequency:     9.8394355140
  - # 8
    frequency:     9.9200911027
  - # 9
    frequency:    12.4497473320
  - # 10
    frequency:    12.4830649671
  - # 11
    frequency:    17.3243656338
  - # 12
    frequency:    17.3289540537

- q-position: [    0.3333333,    0.1111111,    0.3750000 ]
  weight: 8    
  band:
  - # 1
    frequency:   -24.3074104249
  - # 2
    frequency:   -24.3053976598
  - # 3
    frequency:   -22.5062579900
  - # 4
    frequency:   -22.4768834200
  - # 5
    frequency:   -11.6444885809
  - # 6
    frequency:   -11.5432705255
  - # 7
    frequency:    12.2189919665
  - # 8
    frequency:    12.2692642802
  - # 9
    frequency:    14.5737341180
  - # 10
    frequency:    14.5990596199
  - # 11
    frequency:    16.5316822455
  - # 12
    frequency:    16.5387642342

- q-position: [   -0.5555556,    0.1111111,    0.3750000 ]
  weight: 8    
  band:
  - # 1
    frequency:   -22.6808965808
  - # 2
    frequency:   -22.6737825794
  - # 3
    frequency:   -17.6419609019
  - # 4
    frequency:   -17.5846701558
  - # 5
    frequency:   -16.0815998254
  - # 6
    frequency:   -16.0477014520
  - # 7
    frequency:    13.2602107062
  - # 8
    frequency:    13.2892444778
  - # 9
    frequency:    15.3574790647
  - # 10
    frequency:    15.3671426363
  - # 11
    frequency:    16.0321944788
  - # 12
    frequency:    16.0419902771

- q-position: [   -0.4444444,    0.1111111,    0.3750000 ]
  weight: 8    
  band:
  - # 1
    frequency:   -24.4653911891
  - # 2
    frequency:   -24.4541722018
  - # 3
    frequency:   -22.7133168449
  - # 4
    frequency:   -22.6789331100
  - # 5
    frequency:   -11.2501017762
  - # 6
    frequency:   -11.1681442152
  - # 7
    frequency:    12.0420328338
  - # 8
    frequency:    12.0817138659
  - # 9
    frequency:    14.8517119120
  - # 10
    frequency:    14.8602026888
  - # 11
    frequency:    16.6653044784
  - # 12
    frequency:    16.6719687285

- q-position: [   -0.3333333,    0.1111111,    0.3750000 ]
  weight: 8    
  band:
  - # 1
    frequency:   -28.2171271762
  - # 2
    frequency:   -28.1968180863
  - # 3
    frequency:   -27.9141162163
  - # 4
    frequency:   -27.8893873724
  - # 5
    frequency:    -6.7272230073
  - # 6
    frequency:    -6.6238315283
  - # 7
    frequency:     9.6210130494
  - # 8
    frequency:     9.6895438374
  - # 9
    frequency:    12.8503128146
  - # 10
    frequency:    12.8728170815
  - # 11
    frequency:    17.4501075167
  - # 12
    frequency:    17.4553897071

- q-position: [   -0.2222222,    0.1111111,    0.3750000 ]
  weight: 8    
  band:
  - # 1
    frequency:   -31.9001952121
  - # 2
    frequency:   -31.8676344529
  - # 3
    frequency:   -31.8005733426
  - # 4
    frequency:   -31.7716568507
  - # 5
    frequency:    -3.4381126257
  - # 6
    frequency:    -3.3071767285
  - # 7
    frequency:     6.6694751923
  - # 8
    frequency:     6.7884655286
  - # 9
    frequency:     9.4960370840
  - # 10
    frequency:     9.5237064297
  - # 11
    frequency:    17.9835816342
  - # 12
    frequency:    17.9905356758

- q-position: [   -0.1111111,    0.1111111,    0.3750000 ]
  weight: 4    
  band:
  - # 1
    frequency:   -34.0045709469
  - # 2
    frequency:   -33.9694402010
  - # 3
    frequency:   -33.9077175753
  - # 4
    frequency:   -33.8746610084
  - # 5
    frequency:    -1.4901216911
  - # 6
    frequency:    -1.2224598741
  - # 7
    frequency:     4.0433511692
  - # 8
    frequency:     4.2565945925
  - # 9
    frequency:     5.8959627015
  - # 10
    frequency:     5.9165484713
  - # 11
    frequency:    18.2358875287
  - # 12
    frequency:    18.2415226642

- q-position: [    0.2222222,    0.2222222,    0.3750000 ]
  weight: 4    
  band:
  - # 1
    frequency:   -24.8122785910
  - # 2
    frequency:   -24.8098824488
  - # 3
    frequency:   -22.9982030221
  - # 4
    frequency:   -22.9938328898
  - # 5
    frequency:    -9.0182392542
  - # 6
    frequency:    -8.8943121028
  - # 7
    frequency:    12.0475936826
  - # 8
    frequency:    12.1032215332
  - # 9
    frequency:    13.1940177490
  - # 10
    frequency:    13.2298552497
  - # 11
    frequency:    16.6009722791
  - # 12
    frequency:    16.6046927098

- q-position: [    0.3333333,    0.2222222,    0.3750000 ]
  weight: 8    
  band:
  - # 1
    frequency:   -22.5681807445
  - # 2
    frequency:   -22.5578890228
  - # 3
    frequency:   -17.4427292945
  - # 4
    frequency:   -17.4219200048
  - # 5
    frequency:   -12.1986448712
  - # 6
    frequency:   -12.1219948040
  - # 7
    frequency:    13.1749824415
  - # 8
    frequency:    13.2020705957
  - # 9
    frequency:    13.7212971724
  - # 10
    frequency:    13.7539716622
  - # 11
    frequency:    15.7521004971
  - # 12
    frequency:    15.7557567912

- q-position: [   -0.5555556,    0.2222222,    0.3750000 ]
  weight: 8    
  band:
  - # 1
    frequency:   -22.6945583945
  - # 2
    frequency:   -22.6822245530
  - # 3
    frequency:   -17.7622941123
  - # 4
    frequency:   -17.7303902207
  - # 5
    frequency:   -11.8051714233
  - # 6
    frequency:   -11.7549509842
  - # 7
    frequency:    13.4685154979
  - # 8
    frequency:    13.4768592680
  - # 9
    frequency:    13.5234025676
  - # 10
    frequency:    13.5421079367
  - # 11
    frequency:    15.9282551472
  - # 12
    frequency:    15.9339605451

- q-position: [   -0.4444444,    0.2222222,    0.3750000 ]
  weight: 8    
  band:
  - # 1
    frequency:   -25.0616837557
  - # 2
    frequency:   -25.0447699470
  - # 3
    frequency:   -23.3061546506
  - # 4
    frequency:   -23.2836575621
  - # 5
    frequency:    -8.2952921676
  - # 6
    frequency:    -8.2104671129
  - # 7
    frequency:    11.7611523834
  - # 8
    frequency:    11.7988866431
  - # 9
    frequency:    13.7198396761
  - # 10
    frequency:    13.7266700086
  - # 11
    frequency:    16.8112661094
  - # 12
    frequency:    16.8161480027

- q-position: [   -0.3333333,    0.2222222,    0.3750000 ]
  weight: 8    
  band:
  - # 1
    frequency:   -28.2710808631
  - # 2
    frequency:   -28.2419969437
  - # 3
    frequency:   -27.9663128476
  - # 4
    frequency:   -27.9384563094
  - # 5
    frequency:    -6.2778632191
  - # 6
    frequency:    -6.1613693045
  - # 7
    frequency:     9.5603660302
  - # 8
    frequency:     9.6240577971
  - # 9
    frequency:    12.8448667881
  - # 10
    frequency:    12.8574346640
  - # 11
    frequency:    17.4824513097
  - # 12
    frequency:    17.4925105850

- q-position: [   -0.2222222,    0.2222222,    0.3750000 ]
  weight: 4    
  band:
  - # 1
    frequency:   -31.0102079047
  - # 2
    frequency:   -30.9708426973
  - # 3
    frequency:   -30.7767954398
  - # 4
    frequency:   -30.7481540412
  - # 5
    frequency:    -4.5319150911
  - # 6
    frequency:    -4.3804061017
  - # 7
    frequency:     7.5162159304
  - # 8
    frequency:     7.6123432867
  - # 9
    frequency:    10.8898068848
  - # 10
    frequency:    10.9039005890
  - # 11
    frequency:    17.8779902034
  - # 12
    frequency:    17.8883921638

- q-position: [   -0.6666667,    0.3333333,    0.3750000 ]
  weight: 4    
  band:
  - # 1
    frequency:   -22.0055431376
  - # 2
    frequency:   -21.9936758202
  - # 3
    frequency:   -13.2109228806
  - # 4
    frequency:   -13.2071214468
  - # 5
    frequency:   -13.1783532388
  - # 6
    frequency:   -13.1490882587
  - # 7
    frequency:    11.6608967323
  - # 8
    frequency:    11.6813788213
  - # 9
    frequency:    14.7431751630
  - # 10
    frequency:    14.7518346281
  - # 11
    frequency:    14.9841332705
  - # 12
    frequency:    15.0010446436

- q-position: [   -0.5555556,    0.3333333,    0.3750000 ]
  weight: 8    
  band:
  - # 1
    frequency:   -22.7079329967
  - # 2
    frequency:   -22.6987545274
  - # 3
    frequency:   -17.7008092837
  - # 4
    frequency:   -17.6756900619
  - # 5
    frequency:   -11.9327445468
  - # 6
    frequency:   -11.8840162791
  - # 7
    frequency:    13.5085237440
  - # 8
    frequency:    13.5239983028
  - # 9
    frequency:    13.5371668231
  - # 10
    frequency:    13.5423737113
  - # 11
    frequency:    15.9394592221
  - # 12
    frequency:    15.9399932439

- q-position: [   -0.4444444,    0.3333333,    0.3750000 ]
  weight: 8    
  band:
  - # 1
    frequency:   -24.4710886768
  - # 2
    frequency:   -24.4551920518
  - # 3
    frequency:   -22.7915463629
  - # 4
    frequency:   -22.7523264816
  - # 5
    frequency:   -11.0575551328
  - # 6
    frequency:   -10.9766219141
  - # 7
    frequency:    12.0198771416
  - # 8
    frequency:    12.0562500072
  - # 9
    frequency:    14.8314836705
  - # 10
    frequency:    14.8338211130
  - # 11
    frequency:    16.6806099301
  - # 12
    frequency:    16.6910133519

- q-position: [   -0.3333333,    0.3333333,    0.3750000 ]
  weight: 4    
  band:
  - # 1
    frequency:   -26.6006680073
  - # 2
    frequency:   -26.5802349960
  - # 3
    frequency:   -26.4270973536
  - # 4
    frequency:   -26.3801259776
  - # 5
    frequency:    -9.1164484959
  - # 6
    frequency:    -9.0151332532
  - # 7
    frequency:    10.5308917955
  - # 8
    frequency:    10.5823657255
  - # 9
    frequency:    14.3087216226
  - # 10
    frequency:    14.3164780510
  - # 11
    frequency:    17.2112927979
  - # 12
    frequency:    17.2244083599

- q-position: [   -0.5555556,    0.4444444,    0.3750000 ]
  weight: 4    
  band:
  - # 1
    frequency:   -22.7134393873
  - # 2
    frequency:   -22.7116475689
  - # 3
    frequency:   -17.5856577622
  - # 4
    frequency:   -17.5308264189
  - # 5
    frequency:   -16.1488697141
  - # 6
    frequency:   -16.1170289906
  - # 7
    frequency:    13.2311294629
  - # 8
    frequency:    13.2600154982
  - # 9
    frequency:    15.4198975786
  - # 10
    frequency:    15.4224842553
  - # 11
    frequency:    16.0571931058
  - # 12
    frequency:    16.0650868378

- q-position: [   -0.4444444,    0.4444444,    0.3750000 ]
  weight: 4    
  band:
  - # 1
    frequency:   -23.3064007757
  - # 2
    frequency:   -23.2985792059
  - # 3
    frequency:   -20.8431853076
  - # 4
    frequency:   -20.7834113027
  - # 5
    frequency:   -14.6983620754
  - # 6
    frequency:   -14.6271635075
  - # 7
    frequency:    12.6418927060
  - # 8
    frequency:    12.6761770687
  - # 9
    frequency:    15.9108750181
  - # 10
    frequency:    15.9127378122
  - # 11
    frequency:    16.3582338389
  - # 12
    frequency:    16.3705803867

