# Thermal properties / unit cell (natom)

unit:
  temperature:   K
  free_energy:   kJ/mol
  entropy:       J/K/mol
  heat_capacity: J/K/mol

natom:     4
num_modes: 3888
num_integrated_modes: 1952

zero_point_energy:      16.0294562
high_T_entropy:        148.6867291

thermal_properties:
- temperature:         0.0000000
  free_energy:        16.0294562
  entropy:             0.0000000
  heat_capacity:       0.0000000
  energy:             16.0294562

- temperature:        10.0000000
  free_energy:        16.0281890
  entropy:             0.2970043
  heat_capacity:       0.3357359
  energy:             16.0311591

- temperature:        20.0000000
  free_energy:        16.0237334
  entropy:             0.5772171
  heat_capacity:       0.4708503
  energy:             16.0352777

- temperature:        30.0000000
  free_energy:        16.0168650
  entropy:             0.7909259
  heat_capacity:       0.6055657
  energy:             16.0405928

- temperature:        40.0000000
  free_energy:        16.0079401
  entropy:             0.9961638
  heat_capacity:       0.8566017
  energy:             16.0477867

- temperature:        50.0000000
  free_energy:        15.9968536
  entropy:             1.2273416
  heat_capacity:       1.2562154
  energy:             16.0582207

- temperature:        60.0000000
  free_energy:        15.9832421
  entropy:             1.5037206
  heat_capacity:       1.8225465
  energy:             16.0734654

- temperature:        70.0000000
  free_energy:        15.9665826
  entropy:             1.8390458
  heat_capacity:       2.5819631
  energy:             16.0953158

- temperature:        80.0000000
  free_energy:        15.9462255
  entropy:             2.2449879
  heat_capacity:       3.5567216
  energy:             16.1258246

- temperature:        90.0000000
  free_energy:        15.9214163
  entropy:             2.7307631
  heat_capacity:       4.7511651
  energy:             16.1671850

- temperature:       100.0000000
  free_energy:        15.8913249
  entropy:             3.3020044
  heat_capacity:       6.1482930
  energy:             16.2215254

- temperature:       110.0000000
  free_energy:        15.8550857
  entropy:             3.9602707
  heat_capacity:       7.7145218
  energy:             16.2907155

- temperature:       120.0000000
  free_energy:        15.8118365
  entropy:             4.7033467
  heat_capacity:       9.4073829
  energy:             16.3762381

- temperature:       130.0000000
  free_energy:        15.7607532
  entropy:             5.5260302
  heat_capacity:      11.1825469
  energy:             16.4791371

- temperature:       140.0000000
  free_energy:        15.7010745
  entropy:             6.4210755
  heat_capacity:      12.9987362
  energy:             16.6000251

- temperature:       150.0000000
  free_energy:        15.6321184
  entropy:             7.3800736
  heat_capacity:      14.8204518
  energy:             16.7391295

- temperature:       160.0000000
  free_energy:        15.5532894
  entropy:             8.3941673
  heat_capacity:      16.6190081
  energy:             16.8963562

- temperature:       170.0000000
  free_energy:        15.4640807
  entropy:             9.4545758
  heat_capacity:      18.3724690
  energy:             17.0713586

- temperature:       180.0000000
  free_energy:        15.3640714
  entropy:            10.5529465
  heat_capacity:      20.0649755
  energy:             17.2636018

- temperature:       190.0000000
  free_energy:        15.2529211
  entropy:            11.6815669
  heat_capacity:      21.6858131
  energy:             17.4724188

- temperature:       200.0000000
  free_energy:        15.1303626
  entropy:            12.8334720
  heat_capacity:      23.2284290
  energy:             17.6970570

- temperature:       210.0000000
  free_energy:        14.9961947
  entropy:            14.0024792
  heat_capacity:      24.6895174
  energy:             17.9367153

- temperature:       220.0000000
  free_energy:        14.8502741
  entropy:            15.1831746
  heat_capacity:      26.0682262
  energy:             18.1905725

- temperature:       230.0000000
  free_energy:        14.6925080
  entropy:            16.3708709
  heat_capacity:      27.3654986
  energy:             18.4578083

- temperature:       240.0000000
  free_energy:        14.5228468
  entropy:            17.5615479
  heat_capacity:      28.5835460
  energy:             18.7376183

- temperature:       250.0000000
  free_energy:        14.3412785
  entropy:            18.7517870
  heat_capacity:      29.7254356
  energy:             19.0292253

- temperature:       260.0000000
  free_energy:        14.1478222
  entropy:            19.9387037
  heat_capacity:      30.7947765
  energy:             19.3318852

- temperature:       270.0000000
  free_energy:        13.9425236
  entropy:            21.1198829
  heat_capacity:      31.7954828
  energy:             19.6448920

- temperature:       280.0000000
  free_energy:        13.7254504
  entropy:            22.2933183
  heat_capacity:      32.7316012
  energy:             19.9675795

- temperature:       290.0000000
  free_energy:        13.4966886
  entropy:            23.4573574
  heat_capacity:      33.6071863
  energy:             20.2993223

- temperature:       300.0000000
  free_energy:        13.2563391
  entropy:            24.6106522
  heat_capacity:      34.4262135
  energy:             20.6395348

- temperature:       310.0000000
  free_energy:        13.0045150
  entropy:            25.7521155
  heat_capacity:      35.1925202
  energy:             20.9876708

- temperature:       320.0000000
  free_energy:        12.7413391
  entropy:            26.8808829
  heat_capacity:      35.9097683
  energy:             21.3432217

- temperature:       330.0000000
  free_energy:        12.4669419
  entropy:            27.9962796
  heat_capacity:      36.5814218
  energy:             21.7057142

- temperature:       340.0000000
  free_energy:        12.1814598
  entropy:            29.0977916
  heat_capacity:      37.2107360
  energy:             22.0747090

- temperature:       350.0000000
  free_energy:        11.8850337
  entropy:            30.1850409
  heat_capacity:      37.8007542
  energy:             22.4497980

- temperature:       360.0000000
  free_energy:        11.5778075
  entropy:            31.2577642
  heat_capacity:      38.3543109
  energy:             22.8306026

- temperature:       370.0000000
  free_energy:        11.2599274
  entropy:            32.3157948
  heat_capacity:      38.8740381
  energy:             23.2167714

- temperature:       380.0000000
  free_energy:        10.9315408
  entropy:            33.3590470
  heat_capacity:      39.3623739
  energy:             23.6079787

- temperature:       390.0000000
  free_energy:        10.5927958
  entropy:            34.3875027
  heat_capacity:      39.8215732
  energy:             24.0039218

- temperature:       400.0000000
  free_energy:        10.2438400
  entropy:            35.4012001
  heat_capacity:      40.2537189
  energy:             24.4043200

- temperature:       410.0000000
  free_energy:         9.8848207
  entropy:            36.4002238
  heat_capacity:      40.6607334
  energy:             24.8089124

- temperature:       420.0000000
  free_energy:         9.5158840
  entropy:            37.3846972
  heat_capacity:      41.0443896
  energy:             25.2174568

- temperature:       430.0000000
  free_energy:         9.1371747
  entropy:            38.3547747
  heat_capacity:      41.4063223
  energy:             25.6297278

- temperature:       440.0000000
  free_energy:         8.7488359
  entropy:            39.3106364
  heat_capacity:      41.7480388
  energy:             26.0455159

- temperature:       450.0000000
  free_energy:         8.3510087
  entropy:            40.2524826
  heat_capacity:      42.0709286
  energy:             26.4646259

- temperature:       460.0000000
  free_energy:         7.9438322
  entropy:            41.1805299
  heat_capacity:      42.3762731
  energy:             26.8868760

- temperature:       470.0000000
  free_energy:         7.5274433
  entropy:            42.0950073
  heat_capacity:      42.6652545
  energy:             27.3120968

- temperature:       480.0000000
  free_energy:         7.1019765
  entropy:            42.9961534
  heat_capacity:      42.9389636
  energy:             27.7401302

- temperature:       490.0000000
  free_energy:         6.6675639
  entropy:            43.8842135
  heat_capacity:      43.1984072
  energy:             28.1708285

- temperature:       500.0000000
  free_energy:         6.2243351
  entropy:            44.7594377
  heat_capacity:      43.4445157
  energy:             28.6040539

- temperature:       510.0000000
  free_energy:         5.7724171
  entropy:            45.6220788
  heat_capacity:      43.6781488
  energy:             29.0396773

- temperature:       520.0000000
  free_energy:         5.3119346
  entropy:            46.4723911
  heat_capacity:      43.9001016
  energy:             29.4775779

- temperature:       530.0000000
  free_energy:         4.8430095
  entropy:            47.3106289
  heat_capacity:      44.1111100
  energy:             29.9176428

- temperature:       540.0000000
  free_energy:         4.3657614
  entropy:            48.1370454
  heat_capacity:      44.3118555
  energy:             30.3597659

- temperature:       550.0000000
  free_energy:         3.8803072
  entropy:            48.9518921
  heat_capacity:      44.5029695
  energy:             30.8038478

- temperature:       560.0000000
  free_energy:         3.3867613
  entropy:            49.7554176
  heat_capacity:      44.6850379
  energy:             31.2497952

- temperature:       570.0000000
  free_energy:         2.8852357
  entropy:            50.5478676
  heat_capacity:      44.8586041
  energy:             31.6975203

- temperature:       580.0000000
  free_energy:         2.3758401
  entropy:            51.3294837
  heat_capacity:      45.0241730
  energy:             32.1469406

- temperature:       590.0000000
  free_energy:         1.8586814
  entropy:            52.1005038
  heat_capacity:      45.1822140
  energy:             32.5979786

- temperature:       600.0000000
  free_energy:         1.3338645
  entropy:            52.8611612
  heat_capacity:      45.3331636
  energy:             33.0505612

- temperature:       610.0000000
  free_energy:         0.8014919
  entropy:            53.6116847
  heat_capacity:      45.4774281
  energy:             33.5046196

- temperature:       620.0000000
  free_energy:         0.2616639
  entropy:            54.3522983
  heat_capacity:      45.6153861
  energy:             33.9600888

- temperature:       630.0000000
  free_energy:        -0.2855217
  entropy:            55.0832210
  heat_capacity:      45.7473906
  energy:             34.4169075

- temperature:       640.0000000
  free_energy:        -0.8399690
  entropy:            55.8046669
  heat_capacity:      45.8737708
  energy:             34.8750179

- temperature:       650.0000000
  free_energy:        -1.4015842
  entropy:            56.5168452
  heat_capacity:      45.9948343
  energy:             35.3343652

- temperature:       660.0000000
  free_energy:        -1.9702757
  entropy:            57.2199598
  heat_capacity:      46.1108682
  energy:             35.7948978

- temperature:       670.0000000
  free_energy:        -2.5459538
  entropy:            57.9142097
  heat_capacity:      46.2221413
  energy:             36.2565667

- temperature:       680.0000000
  free_energy:        -3.1285310
  entropy:            58.5997890
  heat_capacity:      46.3289048
  energy:             36.7193256

- temperature:       690.0000000
  free_energy:        -3.7179213
  entropy:            59.2768868
  heat_capacity:      46.4313943
  energy:             37.1831305

- temperature:       700.0000000
  free_energy:        -4.3140410
  entropy:            59.9456871
  heat_capacity:      46.5298302
  energy:             37.6479400

- temperature:       710.0000000
  free_energy:        -4.9168080
  entropy:            60.6063695
  heat_capacity:      46.6244194
  energy:             38.1137143

- temperature:       720.0000000
  free_energy:        -5.5261419
  entropy:            61.2591085
  heat_capacity:      46.7153560
  energy:             38.5804162

- temperature:       730.0000000
  free_energy:        -6.1419643
  entropy:            61.9040742
  heat_capacity:      46.8028222
  energy:             39.0480099

- temperature:       740.0000000
  free_energy:        -6.7641981
  entropy:            62.5414320
  heat_capacity:      46.8869892
  energy:             39.5164616

- temperature:       750.0000000
  free_energy:        -7.3927681
  entropy:            63.1713431
  heat_capacity:      46.9680182
  energy:             39.9857392

- temperature:       760.0000000
  free_energy:        -8.0276006
  entropy:            63.7939640
  heat_capacity:      47.0460605
  energy:             40.4558120

- temperature:       770.0000000
  free_energy:        -8.6686236
  entropy:            64.4094474
  heat_capacity:      47.1212588
  energy:             40.9266509

- temperature:       780.0000000
  free_energy:        -9.3157663
  entropy:            65.0179416
  heat_capacity:      47.1937474
  energy:             41.3982282

- temperature:       790.0000000
  free_energy:        -9.9689596
  entropy:            65.6195910
  heat_capacity:      47.2636530
  energy:             41.8705173

- temperature:       800.0000000
  free_energy:       -10.6281358
  entropy:            66.2145360
  heat_capacity:      47.3310951
  energy:             42.3434930

- temperature:       810.0000000
  free_energy:       -11.2932284
  entropy:            66.8029133
  heat_capacity:      47.3961863
  energy:             42.8171313

- temperature:       820.0000000
  free_energy:       -11.9641726
  entropy:            67.3848559
  heat_capacity:      47.4590332
  energy:             43.2914093

- temperature:       830.0000000
  free_energy:       -12.6409045
  entropy:            67.9604932
  heat_capacity:      47.5197363
  energy:             43.7663049

- temperature:       840.0000000
  free_energy:       -13.3233618
  entropy:            68.5299512
  heat_capacity:      47.5783907
  energy:             44.2417972

- temperature:       850.0000000
  free_energy:       -14.0114834
  entropy:            69.0933523
  heat_capacity:      47.6350864
  energy:             44.7178661

- temperature:       860.0000000
  free_energy:       -14.7052091
  entropy:            69.6508160
  heat_capacity:      47.6899085
  energy:             45.1944926

- temperature:       870.0000000
  free_energy:       -15.4044803
  entropy:            70.2024582
  heat_capacity:      47.7429377
  energy:             45.6716583

- temperature:       880.0000000
  free_energy:       -16.1092392
  entropy:            70.7483919
  heat_capacity:      47.7942503
  energy:             46.1493457

- temperature:       890.0000000
  free_energy:       -16.8194295
  entropy:            71.2887273
  heat_capacity:      47.8439188
  energy:             46.6275379

- temperature:       900.0000000
  free_energy:       -17.5349955
  entropy:            71.8235714
  heat_capacity:      47.8920119
  energy:             47.1062188

- temperature:       910.0000000
  free_energy:       -18.2558829
  entropy:            72.3530286
  heat_capacity:      47.9385946
  energy:             47.5853731

- temperature:       920.0000000
  free_energy:       -18.9820384
  entropy:            72.8772003
  heat_capacity:      47.9837290
  energy:             48.0649859

- temperature:       930.0000000
  free_energy:       -19.7134096
  entropy:            73.3961856
  heat_capacity:      48.0274738
  energy:             48.5450430

- temperature:       940.0000000
  free_energy:       -20.4499452
  entropy:            73.9100809
  heat_capacity:      48.0698849
  energy:             49.0255309

- temperature:       950.0000000
  free_energy:       -21.1915946
  entropy:            74.4189800
  heat_capacity:      48.1110153
  energy:             49.5064364

- temperature:       960.0000000
  free_energy:       -21.9383084
  entropy:            74.9229745
  heat_capacity:      48.1509157
  energy:             49.9877471

- temperature:       970.0000000
  free_energy:       -22.6900380
  entropy:            75.4221535
  heat_capacity:      48.1896340
  energy:             50.4694508

- temperature:       980.0000000
  free_energy:       -23.4467357
  entropy:            75.9166038
  heat_capacity:      48.2272161
  energy:             50.9515360

- temperature:       990.0000000
  free_energy:       -24.2083546
  entropy:            76.4064102
  heat_capacity:      48.2637056
  energy:             51.4339915

- temperature:      1000.0000000
  free_energy:       -24.9748487
  entropy:            76.8916553
  heat_capacity:      48.2991440
  energy:             51.9168066
