  32  32   0   0
  0.8817899E+01  0.4932875E-09  0.4932875E-09  0.1339614E-08  0.5000000E-15
  1.000000000000000E-004
  CAR 
 graphite                                
     15.44887873    -16.94046352  301      4.68827889      1.00000000
    -16.940  0.0000E+00  0.0000E+00
    -16.832  0.0000E+00  0.0000E+00
    -16.725  0.0000E+00  0.0000E+00
    -16.617  0.0000E+00  0.0000E+00
    -16.509  0.0000E+00  0.0000E+00
    -16.401  0.0000E+00  0.0000E+00
    -16.293  0.0000E+00  0.0000E+00
    -16.185  0.0000E+00  0.0000E+00
    -16.077  0.0000E+00  0.0000E+00
    -15.969  0.0000E+00  0.0000E+00
    -15.861  0.0000E+00  0.0000E+00
    -15.753  0.0000E+00  0.0000E+00
    -15.645  0.0000E+00  0.0000E+00
    -15.537  0.0000E+00  0.0000E+00
    -15.429  0.0000E+00  0.0000E+00
    -15.321  0.0000E+00  0.0000E+00
    -15.213  0.0000E+00  0.0000E+00
    -15.105  0.0000E+00  0.0000E+00
    -14.997  0.0000E+00  0.0000E+00
    -14.889  0.9807E+00  0.1931E-01
    -14.781  0.2318E+01  0.2111E+00
    -14.673  0.3641E+01  0.5334E+00
    -14.565  0.4753E+01  0.1018E+01
    -14.457  0.5028E+01  0.1545E+01
    -14.349  0.4866E+01  0.2081E+01
    -14.241  0.4936E+01  0.2610E+01
    -14.133  0.4918E+01  0.3145E+01
    -14.025  0.4967E+01  0.3679E+01
    -13.917  0.4967E+01  0.4214E+01
    -13.809  0.5014E+01  0.4753E+01
    -13.702  0.5519E+01  0.5317E+01
    -13.594  0.5846E+01  0.5935E+01
    -13.486  0.7247E+01  0.6630E+01
    -13.378  0.4019E+01  0.7264E+01
    -13.270  0.1919E+01  0.7680E+01
    -13.162  0.2818E+01  0.7904E+01
    -13.054  0.4083E+01  0.8313E+01
    -12.946  0.4578E+01  0.8782E+01
    -12.838  0.5834E+01  0.9511E+01
    -12.730  0.6602E+01  0.1016E+02
    -12.622  0.4321E+01  0.1079E+02
    -12.514  0.4507E+01  0.1126E+02
    -12.406  0.4676E+01  0.1176E+02
    -12.298  0.4794E+01  0.1227E+02
    -12.190  0.5048E+01  0.1280E+02
    -12.082  0.5270E+01  0.1336E+02
    -11.974  0.5888E+01  0.1397E+02
    -11.866  0.5444E+01  0.1458E+02
    -11.758  0.5132E+01  0.1515E+02
    -11.650  0.4995E+01  0.1570E+02
    -11.542  0.4917E+01  0.1623E+02
    -11.434  0.5026E+01  0.1677E+02
    -11.326  0.5093E+01  0.1731E+02
    -11.218  0.5170E+01  0.1787E+02
    -11.110  0.5449E+01  0.1844E+02
    -11.002  0.5715E+01  0.1904E+02
    -10.894  0.5844E+01  0.1968E+02
    -10.786  0.5782E+01  0.2030E+02
    -10.679  0.5812E+01  0.2093E+02
    -10.571  0.5552E+01  0.2156E+02
    -10.463  0.4481E+01  0.2209E+02
    -10.355  0.4920E+01  0.2259E+02
    -10.247  0.5294E+01  0.2314E+02
    -10.139  0.5387E+01  0.2372E+02
    -10.031  0.5565E+01  0.2431E+02
     -9.923  0.5808E+01  0.2492E+02
     -9.815  0.6876E+01  0.2559E+02
     -9.707  0.9036E+01  0.2642E+02
     -9.599  0.8310E+01  0.2746E+02
     -9.491  0.5665E+01  0.2819E+02
     -9.383  0.5795E+01  0.2890E+02
     -9.275  0.3748E+01  0.2950E+02
     -9.167  0.3378E+01  0.2988E+02
     -9.059  0.3008E+01  0.3023E+02
     -8.951  0.2637E+01  0.3053E+02
     -8.843  0.2303E+01  0.3080E+02
     -8.735  0.3310E+01  0.3108E+02
     -8.627  0.2379E+01  0.3139E+02
     -8.519  0.1404E+01  0.3158E+02
     -8.411  0.2186E+01  0.3177E+02
     -8.303  0.4342E+01  0.3208E+02
     -8.195  0.6167E+01  0.3282E+02
     -8.087  0.3983E+01  0.3331E+02
     -7.979  0.4114E+01  0.3374E+02
     -7.871  0.8218E+01  0.3425E+02
     -7.763  0.7945E+01  0.3503E+02
     -7.656  0.6877E+01  0.3575E+02
     -7.548  0.7980E+01  0.3655E+02
     -7.440  0.9156E+01  0.3747E+02
     -7.332  0.6458E+01  0.3832E+02
     -7.224  0.6137E+01  0.3900E+02
     -7.116  0.5874E+01  0.3965E+02
     -7.008  0.5629E+01  0.4027E+02
     -6.900  0.5425E+01  0.4087E+02
     -6.792  0.5245E+01  0.4144E+02
     -6.684  0.5059E+01  0.4200E+02
     -6.576  0.4881E+01  0.4254E+02
     -6.468  0.4832E+01  0.4306E+02
     -6.360  0.4805E+01  0.4358E+02
     -6.252  0.4743E+01  0.4410E+02
     -6.144  0.4527E+01  0.4459E+02
     -6.036  0.4403E+01  0.4507E+02
     -5.928  0.3516E+01  0.4550E+02
     -5.820  0.4059E+01  0.4593E+02
     -5.712  0.4670E+01  0.4640E+02
     -5.604  0.5402E+01  0.4694E+02
     -5.496  0.6235E+01  0.4757E+02
     -5.388  0.8713E+01  0.4834E+02
     -5.280  0.9734E+01  0.4940E+02
     -5.172  0.7410E+01  0.5033E+02
     -5.064  0.5085E+01  0.5100E+02
     -4.956  0.2861E+01  0.5142E+02
     -4.848  0.2656E+01  0.5171E+02
     -4.740  0.3636E+01  0.5204E+02
     -4.633  0.4989E+01  0.5251E+02
     -4.525  0.6420E+01  0.5312E+02
     -4.417  0.8028E+01  0.5391E+02
     -4.309  0.7457E+01  0.5476E+02
     -4.201  0.6217E+01  0.5550E+02
     -4.093  0.5468E+01  0.5613E+02
     -3.985  0.7575E+01  0.5686E+02
     -3.877  0.7051E+01  0.5765E+02
     -3.769  0.6682E+01  0.5839E+02
     -3.661  0.6649E+01  0.5912E+02
     -3.553  0.6477E+01  0.5983E+02
     -3.445  0.1209E+02  0.6078E+02
     -3.337  0.8467E+01  0.6193E+02
     -3.229  0.8350E+01  0.6285E+02
     -3.121  0.7853E+01  0.6373E+02
     -3.013  0.6750E+01  0.6451E+02
     -2.905  0.7243E+01  0.6526E+02
     -2.797  0.8214E+01  0.6609E+02
     -2.689  0.9403E+01  0.6704E+02
     -2.581  0.1283E+02  0.6824E+02
     -2.473  0.1514E+02  0.6974E+02
     -2.365  0.1120E+02  0.7106E+02
     -2.257  0.1209E+02  0.7232E+02
     -2.149  0.1176E+02  0.7365E+02
     -2.041  0.1515E+02  0.7518E+02
     -1.933  0.1508E+02  0.7662E+02
     -1.825  0.1688E+02  0.7840E+02
     -1.717  0.1047E+02  0.7976E+02
     -1.610  0.2083E+02  0.8145E+02
     -1.502  0.1838E+02  0.8345E+02
     -1.394  0.1603E+02  0.8543E+02
     -1.286  0.1350E+02  0.8700E+02
     -1.178  0.1159E+02  0.8835E+02
     -1.070  0.1043E+02  0.8956E+02
     -0.962  0.8222E+01  0.9051E+02
     -0.854  0.8735E+01  0.9138E+02
     -0.746  0.1300E+02  0.9254E+02
     -0.638  0.1386E+02  0.9402E+02
     -0.530  0.1164E+02  0.9569E+02
     -0.422  0.8525E+01  0.9667E+02
     -0.314  0.9807E+01  0.9770E+02
     -0.206  0.1044E+02  0.9883E+02
     -0.098  0.1092E+02  0.9997E+02
      0.010  0.1019E+02  0.1012E+03
      0.118  0.9394E+01  0.1022E+03
      0.226  0.9787E+01  0.1032E+03
      0.334  0.9892E+01  0.1043E+03
      0.442  0.9778E+01  0.1053E+03
      0.550  0.9257E+01  0.1064E+03
      0.658  0.9312E+01  0.1074E+03
      0.766  0.9338E+01  0.1084E+03
      0.874  0.9321E+01  0.1094E+03
      0.982  0.9224E+01  0.1104E+03
      1.090  0.9355E+01  0.1114E+03
      1.198  0.9400E+01  0.1124E+03
      1.306  0.9590E+01  0.1134E+03
      1.413  0.9779E+01  0.1144E+03
      1.521  0.9350E+01  0.1155E+03
      1.629  0.8844E+01  0.1165E+03
      1.737  0.6439E+01  0.1173E+03
      1.845  0.6604E+01  0.1180E+03
      1.953  0.5359E+01  0.1187E+03
      2.061  0.4300E+01  0.1192E+03
      2.169  0.4122E+01  0.1196E+03
      2.277  0.5879E+01  0.1201E+03
      2.385  0.7433E+01  0.1209E+03
      2.493  0.8677E+01  0.1218E+03
      2.601  0.5099E+01  0.1225E+03
      2.709  0.7900E+01  0.1233E+03
      2.817  0.6288E+01  0.1241E+03
      2.925  0.4957E+01  0.1247E+03
      3.033  0.4130E+01  0.1252E+03
      3.141  0.3568E+01  0.1256E+03
      3.249  0.3256E+01  0.1259E+03
      3.357  0.2989E+01  0.1263E+03
      3.465  0.2657E+01  0.1266E+03
      3.573  0.2264E+01  0.1268E+03
      3.681  0.1947E+01  0.1271E+03
      3.789  0.1712E+01  0.1273E+03
      3.897  0.1473E+01  0.1274E+03
      4.005  0.1236E+01  0.1276E+03
      4.113  0.1016E+01  0.1277E+03
      4.221  0.8460E+00  0.1278E+03
      4.329  0.6301E+00  0.1279E+03
      4.437  0.4266E+00  0.1279E+03
      4.544  0.2340E+00  0.1280E+03
      4.652  0.5084E-01  0.1280E+03
      4.760  0.6974E-01  0.1280E+03
      4.868  0.2012E+00  0.1280E+03
      4.976  0.3433E+00  0.1280E+03
      5.084  0.4998E+00  0.1281E+03
      5.192  0.6723E+00  0.1282E+03
      5.300  0.8692E+00  0.1282E+03
      5.408  0.1154E+01  0.1283E+03
      5.516  0.1513E+01  0.1285E+03
      5.624  0.1871E+01  0.1287E+03
      5.732  0.2221E+01  0.1289E+03
      5.840  0.2648E+01  0.1292E+03
      5.948  0.3284E+01  0.1295E+03
      6.056  0.3911E+01  0.1299E+03
      6.164  0.9236E+01  0.1303E+03
      6.272  0.1302E+02  0.1313E+03
      6.380  0.8373E+01  0.1322E+03
      6.488  0.7754E+01  0.1331E+03
      6.596  0.7875E+01  0.1340E+03
      6.704  0.6846E+01  0.1348E+03
      6.812  0.6044E+01  0.1355E+03
      6.920  0.5909E+01  0.1361E+03
      7.028  0.5346E+01  0.1368E+03
      7.136  0.4637E+01  0.1373E+03
      7.244  0.3841E+01  0.1377E+03
      7.352  0.3511E+01  0.1381E+03
      7.460  0.3641E+01  0.1385E+03
      7.567  0.4121E+01  0.1389E+03
      7.675  0.4475E+01  0.1394E+03
      7.783  0.4783E+01  0.1399E+03
      7.891  0.4688E+01  0.1404E+03
      7.999  0.4514E+01  0.1409E+03
      8.107  0.4351E+01  0.1414E+03
      8.215  0.4175E+01  0.1418E+03
      8.323  0.3977E+01  0.1423E+03
      8.431  0.3833E+01  0.1427E+03
      8.539  0.3678E+01  0.1431E+03
      8.647  0.3577E+01  0.1435E+03
      8.755  0.3505E+01  0.1439E+03
      8.863  0.3397E+01  0.1443E+03
      8.971  0.3287E+01  0.1446E+03
      9.079  0.3321E+01  0.1450E+03
      9.187  0.3593E+01  0.1453E+03
      9.295  0.3828E+01  0.1458E+03
      9.403  0.4016E+01  0.1462E+03
      9.511  0.4044E+01  0.1466E+03
      9.619  0.3900E+01  0.1470E+03
      9.727  0.3898E+01  0.1475E+03
      9.835  0.3898E+01  0.1479E+03
      9.943  0.3909E+01  0.1483E+03
     10.051  0.3927E+01  0.1487E+03
     10.159  0.3915E+01  0.1491E+03
     10.267  0.3943E+01  0.1496E+03
     10.375  0.3974E+01  0.1500E+03
     10.483  0.4058E+01  0.1504E+03
     10.590  0.4591E+01  0.1509E+03
     10.698  0.5143E+01  0.1514E+03
     10.806  0.5115E+01  0.1520E+03
     10.914  0.5072E+01  0.1526E+03
     11.022  0.4622E+01  0.1531E+03
     11.130  0.4668E+01  0.1536E+03
     11.238  0.3630E+01  0.1541E+03
     11.346  0.3482E+01  0.1544E+03
     11.454  0.3467E+01  0.1548E+03
     11.562  0.3944E+01  0.1552E+03
     11.670  0.4232E+01  0.1556E+03
     11.778  0.1831E+01  0.1559E+03
     11.886  0.3847E+01  0.1562E+03
     11.994  0.6104E+01  0.1568E+03
     12.102  0.6375E+01  0.1574E+03
     12.210  0.9179E+01  0.1583E+03
     12.318  0.1085E+02  0.1594E+03
     12.426  0.1157E+02  0.1606E+03
     12.534  0.1047E+02  0.1618E+03
     12.642  0.7171E+01  0.1628E+03
     12.750  0.3314E+01  0.1633E+03
     12.858  0.2031E+01  0.1636E+03
     12.966  0.1296E+01  0.1638E+03
     13.074  0.7690E+00  0.1639E+03
     13.182  0.3769E+00  0.1640E+03
     13.290  0.1157E+00  0.1640E+03
     13.398  0.4575E-02  0.1640E+03
     13.506  0.0000E+00  0.1640E+03
     13.613  0.0000E+00  0.1640E+03
     13.721  0.0000E+00  0.1640E+03
     13.829  0.0000E+00  0.1640E+03
     13.937  0.0000E+00  0.1640E+03
     14.045  0.0000E+00  0.1640E+03
     14.153  0.0000E+00  0.1640E+03
     14.261  0.0000E+00  0.1640E+03
     14.369  0.0000E+00  0.1640E+03
     14.477  0.0000E+00  0.1640E+03
     14.585  0.0000E+00  0.1640E+03
     14.693  0.0000E+00  0.1640E+03
     14.801  0.0000E+00  0.1640E+03
     14.909  0.0000E+00  0.1640E+03
     15.017  0.0000E+00  0.1640E+03
     15.125  0.0000E+00  0.1640E+03
     15.233  0.0000E+00  0.1640E+03
     15.341  0.0000E+00  0.1640E+03
     15.449  0.0000E+00  0.1640E+03
