  32  32   0   0
  0.8992511E+01  0.4932875E-09  0.4932875E-09  0.1366141E-08  0.5000000E-15
  1.000000000000000E-004
  CAR 
 graphite                                
     15.32348951    -17.09226556  301      4.52029546      1.00000000
    -17.092  0.0000E+00  0.0000E+00
    -16.984  0.0000E+00  0.0000E+00
    -16.876  0.0000E+00  0.0000E+00
    -16.768  0.0000E+00  0.0000E+00
    -16.660  0.0000E+00  0.0000E+00
    -16.552  0.0000E+00  0.0000E+00
    -16.444  0.0000E+00  0.0000E+00
    -16.336  0.0000E+00  0.0000E+00
    -16.228  0.0000E+00  0.0000E+00
    -16.120  0.0000E+00  0.0000E+00
    -16.012  0.0000E+00  0.0000E+00
    -15.904  0.0000E+00  0.0000E+00
    -15.796  0.0000E+00  0.0000E+00
    -15.688  0.0000E+00  0.0000E+00
    -15.580  0.0000E+00  0.0000E+00
    -15.471  0.0000E+00  0.0000E+00
    -15.363  0.0000E+00  0.0000E+00
    -15.255  0.0000E+00  0.0000E+00
    -15.147  0.0000E+00  0.0000E+00
    -15.039  0.1123E+01  0.2298E-01
    -14.931  0.2578E+01  0.2351E+00
    -14.823  0.4447E+01  0.6043E+00
    -14.715  0.4829E+01  0.1127E+01
    -14.607  0.4995E+01  0.1662E+01
    -14.499  0.4917E+01  0.2194E+01
    -14.391  0.4950E+01  0.2728E+01
    -14.283  0.4907E+01  0.3260E+01
    -14.175  0.4987E+01  0.3795E+01
    -14.067  0.4984E+01  0.4333E+01
    -13.959  0.4991E+01  0.4873E+01
    -13.851  0.5633E+01  0.5441E+01
    -13.743  0.5916E+01  0.6069E+01
    -13.635  0.6751E+01  0.6778E+01
    -13.527  0.4643E+01  0.7370E+01
    -13.418  0.1768E+01  0.7727E+01
    -13.310  0.3381E+01  0.7973E+01
    -13.202  0.4299E+01  0.8423E+01
    -13.094  0.4587E+01  0.8907E+01
    -12.986  0.6011E+01  0.9650E+01
    -12.878  0.6700E+01  0.1036E+02
    -12.770  0.4350E+01  0.1090E+02
    -12.662  0.4517E+01  0.1138E+02
    -12.554  0.4646E+01  0.1187E+02
    -12.446  0.4761E+01  0.1238E+02
    -12.338  0.5155E+01  0.1292E+02
    -12.230  0.5542E+01  0.1349E+02
    -12.122  0.5635E+01  0.1413E+02
    -12.014  0.5526E+01  0.1472E+02
    -11.906  0.5142E+01  0.1529E+02
    -11.798  0.4929E+01  0.1584E+02
    -11.690  0.4916E+01  0.1636E+02
    -11.582  0.5011E+01  0.1690E+02
    -11.474  0.5070E+01  0.1744E+02
    -11.365  0.5161E+01  0.1800E+02
    -11.257  0.5488E+01  0.1857E+02
    -11.149  0.5892E+01  0.1919E+02
    -11.041  0.5778E+01  0.1982E+02
    -10.933  0.5723E+01  0.2044E+02
    -10.825  0.5781E+01  0.2106E+02
    -10.717  0.5383E+01  0.2168E+02
    -10.609  0.4562E+01  0.2220E+02
    -10.501  0.5166E+01  0.2273E+02
    -10.393  0.5342E+01  0.2330E+02
    -10.285  0.5434E+01  0.2388E+02
    -10.177  0.5631E+01  0.2448E+02
    -10.069  0.5876E+01  0.2510E+02
     -9.961  0.7240E+01  0.2579E+02
     -9.853  0.1064E+02  0.2673E+02
     -9.745  0.7233E+01  0.2769E+02
     -9.637  0.5625E+01  0.2835E+02
     -9.529  0.5910E+01  0.2906E+02
     -9.421  0.3646E+01  0.2960E+02
     -9.312  0.3276E+01  0.2998E+02
     -9.204  0.2907E+01  0.3031E+02
     -9.096  0.2538E+01  0.3060E+02
     -8.988  0.2342E+01  0.3086E+02
     -8.880  0.3361E+01  0.3117E+02
     -8.772  0.2085E+01  0.3146E+02
     -8.664  0.1521E+01  0.3162E+02
     -8.556  0.2405E+01  0.3183E+02
     -8.448  0.5797E+01  0.3221E+02
     -8.340  0.4642E+01  0.3298E+02
     -8.232  0.3870E+01  0.3342E+02
     -8.124  0.4198E+01  0.3386E+02
     -8.016  0.7659E+01  0.3445E+02
     -7.908  0.6115E+01  0.3523E+02
     -7.800  0.7182E+01  0.3595E+02
     -7.692  0.8270E+01  0.3679E+02
     -7.584  0.8487E+01  0.3773E+02
     -7.476  0.6328E+01  0.3851E+02
     -7.368  0.6068E+01  0.3918E+02
     -7.259  0.5809E+01  0.3983E+02
     -7.151  0.5572E+01  0.4044E+02
     -7.043  0.5377E+01  0.4103E+02
     -6.935  0.5197E+01  0.4160E+02
     -6.827  0.5006E+01  0.4215E+02
     -6.719  0.4855E+01  0.4269E+02
     -6.611  0.4826E+01  0.4321E+02
     -6.503  0.4796E+01  0.4373E+02
     -6.395  0.4670E+01  0.4424E+02
     -6.287  0.4435E+01  0.4474E+02
     -6.179  0.4380E+01  0.4521E+02
     -6.071  0.3988E+01  0.4562E+02
     -5.963  0.4203E+01  0.4606E+02
     -5.855  0.4831E+01  0.4655E+02
     -5.747  0.5614E+01  0.4711E+02
     -5.639  0.6411E+01  0.4777E+02
     -5.531  0.9708E+01  0.4862E+02
     -5.423  0.8997E+01  0.4969E+02
     -5.315  0.6718E+01  0.5054E+02
     -5.206  0.4439E+01  0.5115E+02
     -5.098  0.2662E+01  0.5151E+02
     -4.990  0.2880E+01  0.5180E+02
     -4.882  0.4055E+01  0.5217E+02
     -4.774  0.5382E+01  0.5268E+02
     -4.666  0.6892E+01  0.5334E+02
     -4.558  0.8135E+01  0.5417E+02
     -4.450  0.7047E+01  0.5500E+02
     -4.342  0.5802E+01  0.5569E+02
     -4.234  0.6323E+01  0.5632E+02
     -4.126  0.7379E+01  0.5712E+02
     -4.018  0.6862E+01  0.5789E+02
     -3.910  0.6344E+01  0.5860E+02
     -3.802  0.6461E+01  0.5928E+02
     -3.694  0.6190E+01  0.5996E+02
     -3.586  0.1200E+02  0.6101E+02
     -3.478  0.8894E+01  0.6215E+02
     -3.370  0.8035E+01  0.6307E+02
     -3.262  0.7264E+01  0.6389E+02
     -3.153  0.6761E+01  0.6464E+02
     -3.045  0.7433E+01  0.6540E+02
     -2.937  0.8479E+01  0.6626E+02
     -2.829  0.1002E+02  0.6725E+02
     -2.721  0.1420E+02  0.6854E+02
     -2.613  0.1292E+02  0.7009E+02
     -2.505  0.1169E+02  0.7138E+02
     -2.397  0.1287E+02  0.7272E+02
     -2.289  0.1358E+02  0.7407E+02
     -2.181  0.1408E+02  0.7564E+02
     -2.073  0.1393E+02  0.7709E+02
     -1.965  0.1360E+02  0.7894E+02
     -1.857  0.1265E+02  0.8020E+02
     -1.749  0.1675E+02  0.8223E+02
     -1.641  0.1848E+02  0.8414E+02
     -1.533  0.1522E+02  0.8603E+02
     -1.425  0.1232E+02  0.8754E+02
     -1.317  0.1045E+02  0.8875E+02
     -1.209  0.9271E+01  0.8982E+02
     -1.100  0.7531E+01  0.9077E+02
     -0.992  0.1044E+02  0.9172E+02
     -0.884  0.1329E+02  0.9304E+02
     -0.776  0.1403E+02  0.9446E+02
     -0.668  0.1057E+02  0.9600E+02
     -0.560  0.9654E+01  0.9702E+02
     -0.452  0.1088E+02  0.9813E+02
     -0.344  0.1036E+02  0.9925E+02
     -0.236  0.1106E+02  0.1004E+03
     -0.128  0.9532E+01  0.1015E+03
     -0.020  0.9233E+01  0.1025E+03
      0.088  0.9574E+01  0.1036E+03
      0.196  0.9729E+01  0.1047E+03
      0.304  0.9322E+01  0.1057E+03
      0.412  0.9205E+01  0.1067E+03
      0.520  0.9460E+01  0.1077E+03
      0.628  0.9424E+01  0.1087E+03
      0.736  0.9279E+01  0.1097E+03
      0.844  0.9363E+01  0.1107E+03
      0.953  0.9051E+01  0.1117E+03
      1.061  0.9457E+01  0.1127E+03
      1.169  0.9609E+01  0.1138E+03
      1.277  0.9944E+01  0.1148E+03
      1.385  0.1032E+02  0.1159E+03
      1.493  0.7832E+01  0.1169E+03
      1.601  0.6682E+01  0.1176E+03
      1.709  0.6133E+01  0.1183E+03
      1.817  0.4999E+01  0.1189E+03
      1.925  0.3868E+01  0.1194E+03
      2.033  0.3925E+01  0.1198E+03
      2.141  0.6214E+01  0.1203E+03
      2.249  0.8259E+01  0.1212E+03
      2.357  0.5947E+01  0.1221E+03
      2.465  0.9389E+01  0.1228E+03
      2.573  0.6880E+01  0.1237E+03
      2.681  0.5300E+01  0.1244E+03
      2.789  0.4464E+01  0.1249E+03
      2.897  0.3790E+01  0.1253E+03
      3.006  0.3298E+01  0.1257E+03
      3.114  0.3143E+01  0.1261E+03
      3.222  0.2890E+01  0.1264E+03
      3.330  0.2481E+01  0.1267E+03
      3.438  0.2109E+01  0.1269E+03
      3.546  0.1867E+01  0.1272E+03
      3.654  0.1631E+01  0.1273E+03
      3.762  0.1391E+01  0.1275E+03
      3.870  0.1157E+01  0.1276E+03
      3.978  0.9423E+00  0.1278E+03
      4.086  0.7257E+00  0.1279E+03
      4.194  0.5245E+00  0.1279E+03
      4.302  0.3374E+00  0.1280E+03
      4.410  0.1623E+00  0.1280E+03
      4.518  0.5317E-03  0.1280E+03
      4.626  0.1084E+00  0.1280E+03
      4.734  0.2406E+00  0.1280E+03
      4.842  0.3862E+00  0.1281E+03
      4.950  0.5487E+00  0.1281E+03
      5.059  0.7342E+00  0.1282E+03
      5.167  0.9622E+00  0.1283E+03
      5.275  0.1317E+01  0.1284E+03
      5.383  0.1691E+01  0.1286E+03
      5.491  0.2035E+01  0.1288E+03
      5.599  0.2401E+01  0.1290E+03
      5.707  0.3153E+01  0.1293E+03
      5.815  0.3244E+01  0.1296E+03
      5.923  0.4191E+01  0.1300E+03
      6.031  0.6448E+01  0.1306E+03
      6.139  0.7960E+01  0.1316E+03
      6.247  0.8399E+01  0.1325E+03
      6.355  0.7952E+01  0.1334E+03
      6.463  0.8002E+01  0.1343E+03
      6.571  0.6427E+01  0.1351E+03
      6.679  0.6117E+01  0.1357E+03
      6.787  0.5679E+01  0.1364E+03
      6.895  0.5055E+01  0.1370E+03
      7.003  0.4523E+01  0.1375E+03
      7.111  0.3738E+01  0.1379E+03
      7.220  0.3565E+01  0.1383E+03
      7.328  0.3795E+01  0.1387E+03
      7.436  0.4320E+01  0.1391E+03
      7.544  0.4630E+01  0.1396E+03
      7.652  0.4708E+01  0.1401E+03
      7.760  0.4542E+01  0.1406E+03
      7.868  0.4392E+01  0.1411E+03
      7.976  0.4233E+01  0.1416E+03
      8.084  0.4073E+01  0.1420E+03
      8.192  0.3892E+01  0.1425E+03
      8.300  0.3742E+01  0.1429E+03
      8.408  0.3614E+01  0.1433E+03
      8.516  0.3529E+01  0.1437E+03
      8.624  0.3457E+01  0.1440E+03
      8.732  0.3415E+01  0.1444E+03
      8.840  0.3650E+01  0.1448E+03
      8.948  0.3788E+01  0.1452E+03
      9.056  0.3948E+01  0.1456E+03
      9.164  0.4101E+01  0.1460E+03
      9.273  0.4188E+01  0.1465E+03
      9.381  0.4183E+01  0.1469E+03
      9.489  0.4011E+01  0.1474E+03
      9.597  0.3983E+01  0.1478E+03
      9.705  0.3956E+01  0.1482E+03
      9.813  0.3973E+01  0.1487E+03
      9.921  0.3995E+01  0.1491E+03
     10.029  0.4069E+01  0.1495E+03
     10.137  0.4173E+01  0.1500E+03
     10.245  0.4316E+01  0.1504E+03
     10.353  0.4350E+01  0.1509E+03
     10.461  0.5092E+01  0.1514E+03
     10.569  0.5768E+01  0.1520E+03
     10.677  0.5281E+01  0.1526E+03
     10.785  0.4571E+01  0.1531E+03
     10.893  0.4567E+01  0.1536E+03
     11.001  0.4301E+01  0.1542E+03
     11.109  0.3495E+01  0.1546E+03
     11.217  0.3940E+01  0.1550E+03
     11.326  0.4073E+01  0.1554E+03
     11.434  0.3258E+01  0.1558E+03
     11.542  0.2566E+01  0.1561E+03
     11.650  0.3331E+01  0.1564E+03
     11.758  0.5290E+01  0.1569E+03
     11.866  0.6576E+01  0.1576E+03
     11.974  0.9659E+01  0.1584E+03
     12.082  0.1210E+02  0.1596E+03
     12.190  0.1398E+02  0.1610E+03
     12.298  0.1374E+02  0.1625E+03
     12.406  0.1126E+02  0.1639E+03
     12.514  0.8675E+01  0.1650E+03
     12.622  0.6788E+01  0.1658E+03
     12.730  0.5586E+01  0.1665E+03
     12.838  0.5410E+01  0.1671E+03
     12.946  0.3196E+01  0.1675E+03
     13.054  0.1875E+01  0.1678E+03
     13.162  0.7978E+00  0.1680E+03
     13.270  0.5238E-01  0.1680E+03
     13.379  0.0000E+00  0.1680E+03
     13.487  0.0000E+00  0.1680E+03
     13.595  0.0000E+00  0.1680E+03
     13.703  0.0000E+00  0.1680E+03
     13.811  0.0000E+00  0.1680E+03
     13.919  0.0000E+00  0.1680E+03
     14.027  0.0000E+00  0.1680E+03
     14.135  0.0000E+00  0.1680E+03
     14.243  0.0000E+00  0.1680E+03
     14.351  0.0000E+00  0.1680E+03
     14.459  0.0000E+00  0.1680E+03
     14.567  0.0000E+00  0.1680E+03
     14.675  0.0000E+00  0.1680E+03
     14.783  0.0000E+00  0.1680E+03
     14.891  0.0000E+00  0.1680E+03
     14.999  0.0000E+00  0.1680E+03
     15.107  0.0000E+00  0.1680E+03
     15.215  0.0000E+00  0.1680E+03
     15.323  0.0000E+00  0.1680E+03
