   32   32    1    1
  0.8992511E+01  0.4932875E-09  0.4932875E-09  0.1366141E-08  0.5000000E-15
  1.000000000000000E-004
  CAR 
 graphite                                
    128    163     84
 
  0.0000000E+00  0.0000000E+00  0.0000000E+00  0.3086420E-02
    1      -15.092266
    2      -14.966004
    3      -14.965355
    4      -14.831307
    5       -9.778820
    6       -9.770480
    7       -9.767371
    8       -9.727422
    9       -9.727223
   10       -9.719381
   11       -9.715689
   12       -9.715685
   13       -9.713828
   14       -9.683223
   15       -9.672372
   16       -9.669947
   17       -8.708462
   18       -8.704963
   19       -8.703344
   20       -8.681500
   21       -8.677618
   22       -8.675812
   23       -8.675017
   24       -8.675013
   25       -8.671703
   26       -8.636047
   27       -8.631454
   28       -8.628924
   29       -3.904932
   30       -3.093186
   31       -3.091572
   32       -2.111484
   33       -1.881103
   34       -1.878324
   35       -1.859958
   36       -1.858721
   37       -1.855241
   38       -1.855237
   39       -1.854490
   40       -1.836543
   41       -1.835147
   42       -1.833471
   43       -1.830962
   44       -1.812054
   45        1.506450
   46        1.517130
   47        1.521559
   48        1.527642
   49        1.531346
   50        1.537691
   51        1.541175
   52        1.551187
   53        1.805455
   54        1.806739
   55        1.808687
   56        2.164882
   57        2.166390
   58        2.168781
   59        2.172495
   60        2.172504
   61        2.173613
   62        2.420316
   63        2.433998
   64        2.435822
   65        6.031639
   66        6.033717
   67        6.034112
   68        6.173563
   69        6.179527
   70        6.183780
   71        6.184922
   72        6.185199
   73        6.190660
   74        6.652432
   75        6.665630
   76        6.668729
   77        8.683325
   78       11.181274
   79       11.184513
   80       11.741886
   81       11.745432
   82       11.778741
   83       11.910413
   84       11.918708
 
  0.1111111E+00  0.0000000E+00  0.0000000E+00  0.6172840E-02
    1      -15.018699
    2      -14.892935
    3      -14.892289
    4      -14.758856
    5      -10.561848
    6      -10.472591
    7      -10.471765
    8      -10.379467
    9      -10.024652
   10      -10.016345
   11       -9.947965
   12       -9.947484
   13       -9.938831
   14       -9.938607
   15       -9.870139
   16       -9.860916
   17       -8.400733
   18       -8.394250
   19       -8.340468
   20       -8.337347
   21       -8.332206
   22       -8.331868
   23       -8.271121
   24       -8.264146
   25       -7.879914
   26       -7.810476
   27       -7.809052
   28       -7.736558
   29       -3.815605
   30       -3.006205
   31       -3.004593
   32       -2.105328
   33       -2.086030
   34       -2.079571
   35       -2.079058
   36       -2.060732
   37       -2.058968
   38       -2.052741
   39       -2.033269
   40       -2.027623
   41       -1.807791
   42       -1.785869
   43       -1.782879
   44       -1.760998
   45        1.221347
   46        1.226526
   47        1.235312
   48        1.239476
   49        1.250431
   50        1.354786
   51        1.364935
   52        1.369368
   53        1.377585
   54        1.692653
   55        1.695206
   56        1.743338
   57        1.745692
   58        2.113230
   59        2.114607
   60        2.120115
   61        2.120746
   62        2.261446
   63        2.465070
   64        2.477584
   65        6.114544
   66        6.116088
   67        6.304999
   68        6.310746
   69        6.315286
   70        6.317428
   71        6.422614
   72        6.725385
   73        6.729254
   74        6.787730
   75        6.799513
   76        7.260838
   77        8.772808
   78       11.260450
   79       11.263679
   80       11.783685
   81       11.949445
   82       11.951377
   83       12.084371
   84       12.120063
 
  0.2222222E+00  0.0000000E+00  0.0000000E+00  0.6172840E-02
    1      -14.798199
    2      -14.674056
    3      -14.673420
    4      -14.541848
    5      -11.572047
    6      -11.472212
    7      -11.471636
    8      -11.367481
    9      -10.370598
   10      -10.364855
   11      -10.283394
   12      -10.282438
   13      -10.276870
   14      -10.276612
   15      -10.191784
   16      -10.185720
   17       -7.719070
   18       -7.709812
   19       -7.652698
   20       -7.649960
   21       -7.642181
   22       -7.641708
   23       -7.580175
   24       -7.570884
   25       -6.554690
   26       -6.490007
   27       -6.488721
   28       -6.421789
   29       -3.548451
   30       -2.745939
   31       -2.744325
   32       -2.711455
   33       -2.693203
   34       -2.679544
   35       -2.679061
   36       -2.661851
   37       -2.659919
   38       -2.646211
   39       -2.627783
   40       -1.777066
   41       -1.592952
   42       -1.571526
   43       -1.568397
   44       -1.546936
   45        0.211041
   46        0.400327
   47        0.416964
   48        0.420604
   49        0.437924
   50        0.854181
   51        0.855979
   52        0.935601
   53        0.948518
   54        0.953239
   55        0.965037
   56        1.476117
   57        1.479232
   58        1.581741
   59        1.992242
   60        1.993064
   61        1.997554
   62        1.998742
   63        2.506664
   64        2.515253
   65        6.371249
   66        6.375218
   67        6.639567
   68        6.644920
   69        6.649331
   70        6.651262
   71        7.098686
   72        7.106964
   73        7.566381
   74        7.947863
   75        7.951004
   76        8.472676
   77        9.041930
   78       11.497051
   79       11.500266
   80       11.898208
   81       12.058283
   82       12.060188
   83       12.201537
   84       12.910852
 
  0.3333333E+00  0.0000000E+00  0.0000000E+00  0.6172840E-02
    1      -14.431917
    2      -14.310514
    3      -14.309892
    4      -14.181408
    5      -12.484450
    6      -12.377585
    7      -12.377038
    8      -12.264761
    9      -10.626529
   10      -10.622904
   11      -10.535419
   12      -10.534102
   13      -10.530907
   14      -10.530574
   15      -10.439107
   16      -10.435361
   17       -6.911678
   18       -6.900977
   19       -6.850658
   20       -6.847796
   21       -6.838908
   22       -6.838140
   23       -6.784788
   24       -6.774314
   25       -5.121683
   26       -5.065878
   27       -5.064402
   28       -5.007055
   29       -3.526226
   30       -3.510318
   31       -3.488221
   32       -3.488069
   33       -3.473074
   34       -3.470993
   35       -3.448893
   36       -3.432725
   37       -3.106220
   38       -2.315668
   39       -2.314055
   40       -1.363814
   41       -1.243912
   42       -1.223612
   43       -1.220267
   44       -1.199581
   45       -0.807379
   46       -0.784066
   47       -0.758359
   48       -0.755009
   49       -0.729043
   50       -0.099467
   51       -0.097847
   52        0.373611
   53        0.389121
   54        0.393502
   55        0.408655
   56        0.729357
   57        1.287952
   58        1.290641
   59        1.868484
   60        1.868935
   61        1.871998
   62        1.873817
   63        2.500436
   64        2.505665
   65        6.735801
   66        6.741109
   67        7.031370
   68        7.036270
   69        7.039563
   70        7.041109
   71        7.413422
   72        7.418174
   73        9.074068
   74        9.425290
   75        9.427907
   76        9.491517
   77        9.885243
   78       11.812085
   79       11.876097
   80       11.879501
   81       12.138876
   82       12.223424
   83       12.225530
   84       12.487714
 
  0.4444444E+00  0.0000000E+00  0.0000000E+00  0.6172840E-02
    1      -13.921830
    2      -13.804179
    3      -13.803566
    4      -13.679381
    5      -13.270906
    6      -13.158101
    7      -13.157552
    8      -13.038719
    9      -10.758339
   10      -10.756325
   11      -10.666088
   12      -10.664228
   13      -10.663178
   14      -10.662441
   15      -10.567500
   16      -10.565454
   17       -6.163146
   18       -6.155184
   19       -6.119678
   20       -6.116121
   21       -6.111045
   22       -6.109355
   23       -6.072879
   24       -6.065863
   25       -4.274407
   26       -4.265685
   27       -4.243448
   28       -4.242382
   29       -4.234888
   30       -4.232353
   31       -4.207990
   32       -4.198331
   33       -3.641637
   34       -3.595802
   35       -3.593928
   36       -3.546891
   37       -2.494027
   38       -2.170178
   39       -2.134568
   40       -2.132202
   41       -2.095414
   42       -1.722803
   43       -1.720254
   44       -1.718934
   45       -0.975221
   46       -0.973639
   47       -0.795762
   48       -0.778001
   49       -0.758644
   50       -0.754974
   51       -0.735602
   52       -0.222925
   53       -0.205201
   54       -0.201303
   55       -0.183419
   56       -0.087789
   57        1.183708
   58        1.185757
   59        1.793810
   60        1.794872
   61        1.795966
   62        1.798579
   63        2.482066
   64        2.484821
   65        7.023854
   66        7.027499
   67        7.299229
   68        7.304078
   69        7.305032
   70        7.305935
   71        7.591637
   72        7.594327
   73       10.116802
   74       10.694378
   75       10.911301
   76       10.963410
   77       10.967454
   78       11.347650
   79       12.199970
   80       12.210113
   81       12.283635
   82       12.349505
   83       12.404779
   84       12.407466
 
  0.6776264E-20  0.1111111E+00  0.0000000E+00  0.6172840E-02
    1      -15.018700
    2      -14.892938
    3      -14.892290
    4      -14.758858
    5      -10.561770
    6      -10.472426
    7      -10.471759
    8      -10.379373
    9      -10.024639
   10      -10.016643
   11       -9.947958
   12       -9.947482
   13       -9.939343
   14       -9.938715
   15       -9.870110
   16       -9.861283
   17       -8.400857
   18       -8.393040
   19       -8.340756
   20       -8.337348
   21       -8.331891
   22       -8.329564
   23       -8.271212
   24       -8.262803
   25       -7.880835
   26       -7.810958
   27       -7.810447
   28       -7.737516
   29       -3.815600
   30       -3.006198
   31       -3.004589
   32       -2.106635
   33       -2.085879
   34       -2.081979
   35       -2.079061
   36       -2.060732
   37       -2.058945
   38       -2.054085
   39       -2.033429
   40       -2.027618
   41       -1.806322
   42       -1.783340
   43       -1.782877
   44       -1.759872
   45        1.219501
   46        1.226449
   47        1.235313
   48        1.235501
   49        1.245619
   50        1.359682
   51        1.369367
   52        1.369811
   53        1.379521
   54        1.692444
   55        1.694175
   56        1.745099
   57        1.745880
   58        2.113217
   59        2.114610
   60        2.118110
   61        2.120284
   62        2.262523
   63        2.465090
   64        2.476407
   65        6.115151
   66        6.117298
   67        6.305426
   68        6.310695
   69        6.316068
   70        6.320404
   71        6.420871
   72        6.724258
   73        6.726880
   74        6.787875
   75        6.801599
   76        7.259059
   77        8.772813
   78       11.260473
   79       11.263701
   80       11.784164
   81       11.950368
   82       11.951407
   83       12.081943
   84       12.120847
 
  0.1111111E+00  0.1111111E+00  0.0000000E+00  0.6172840E-02
    1      -14.871525
    2      -14.746841
    3      -14.746203
    4      -14.614009
    5      -11.026736
    6      -11.023763
    7      -10.933256
    8      -10.929723
    9      -10.929703
   10      -10.927312
   11      -10.832163
   12      -10.829173
   13       -9.589609
   14       -9.539388
   15       -9.538477
   16       -9.496031
   17       -8.524353
   18       -8.498259
   19       -8.494703
   20       -8.455068
   21       -7.197789
   22       -7.194687
   23       -7.131174
   24       -7.128307
   25       -7.128286
   26       -7.124779
   27       -7.058794
   28       -7.055465
   29       -3.637243
   30       -2.832416
   31       -2.830806
   32       -2.768558
   33       -2.736756
   34       -2.735038
   35       -2.702682
   36       -1.962213
   37       -1.959237
   38       -1.938347
   39       -1.934120
   40       -1.934116
   41       -1.933197
   42       -1.910066
   43       -1.907709
   44       -1.860256
   45        0.696875
   46        0.706502
   47        0.709859
   48        0.720289
   49        0.792872
   50        0.795840
   51        1.039687
   52        1.049272
   53        1.053487
   54        1.060948
   55        1.383271
   56        1.386660
   57        1.386758
   58        1.388176
   59        2.026195
   60        2.028495
   61        2.073974
   62        2.430986
   63        2.433137
   64        2.682070
   65        6.012069
   66        6.101508
   67        6.106670
   68        6.487851
   69        6.911772
   70        6.914128
   71        7.266212
   72        7.268064
   73        7.268594
   74        7.272719
   75        7.786691
   76        7.789361
   77        8.952422
   78       11.419477
   79       11.422694
   80       12.155258
   81       12.159303
   82       12.319755
   83       12.324490
   84       12.325875
 
  0.2222222E+00  0.1111111E+00  0.0000000E+00  0.6172840E-02
    1      -14.578091
    2      -14.455549
    3      -14.454925
    4      -14.325181
    5      -11.991329
    6      -11.888315
    7      -11.887735
    8      -11.779903
    9      -11.367303
   10      -11.269316
   11      -11.268678
   12      -11.166190
   13       -9.638911
   14       -9.565113
   15       -9.564808
   16       -9.490601
   17       -8.054018
   18       -7.998088
   19       -7.995026
   20       -7.933705
   21       -6.413400
   22       -6.351319
   23       -6.350443
   24       -6.286600
   25       -5.814447
   26       -5.754789
   27       -5.753479
   28       -5.692191
   29       -3.676123
   30       -3.637129
   31       -3.635449
   32       -3.595428
   33       -3.282384
   34       -2.487182
   35       -2.486264
   36       -2.485356
   37       -2.455336
   38       -2.455175
   39       -2.423605
   40       -1.675227
   41       -1.651811
   42       -1.648751
   43       -1.625040
   44       -1.528216
   45       -0.257203
   46       -0.245497
   47       -0.239713
   48       -0.234281
   49       -0.217651
   50        0.433656
   51        0.435445
   52        0.460882
   53        0.496794
   54        0.509128
   55        0.513987
   56        0.525656
   57        1.098228
   58        1.099300
   59        1.217799
   60        1.818546
   61        2.212686
   62        2.633365
   63        2.635394
   64        2.984467
   65        5.992777
   66        6.109984
   67        6.114788
   68        6.437410
   69        7.489131
   70        7.836711
   71        7.839173
   72        8.272576
   73        8.280767
   74        8.638661
   75        8.641336
   76        9.112442
   77        9.312499
   78       11.735254
   79       11.738516
   80       12.258501
   81       12.454242
   82       12.460634
   83       12.462433
   84       12.808099
 
  0.3333333E+00  0.1111111E+00  0.0000000E+00  0.6172840E-02
    1      -14.139756
    2      -14.020486
    3      -14.019880
    4      -13.893861
    5      -12.841357
    6      -12.731804
    7      -12.731237
    8      -12.616069
    9      -11.576105
   10      -11.476389
   11      -11.475718
   12      -11.371265
   13       -9.782183
   14       -9.699544
   15       -9.699195
   16       -9.613730
   17       -7.287961
   18       -7.231917
   19       -7.228998
   20       -7.170958
   21       -5.615128
   22       -5.564351
   23       -5.562783
   24       -5.511097
   25       -4.614298
   26       -4.573560
   27       -4.571733
   28       -4.528982
   29       -4.365571
   30       -4.315584
   31       -4.314068
   32       -4.262853
   33       -3.184560
   34       -3.151304
   35       -3.150608
   36       -3.115816
   37       -2.754857
   38       -1.974687
   39       -1.973021
   40       -1.502779
   41       -1.474025
   42       -1.470796
   43       -1.442665
   44       -1.259049
   45       -1.237012
   46       -1.233790
   47       -1.216535
   48       -1.211514
   49       -1.036949
   50       -0.489891
   51       -0.488340
   52       -0.126680
   53       -0.110003
   54       -0.105308
   55       -0.088857
   56        0.252803
   57        0.368894
   58        0.914076
   59        0.915222
   60        1.676597
   61        2.214894
   62        2.723693
   63        2.725329
   64        3.239093
   65        6.001138
   66        6.229639
   67        6.233592
   68        6.538368
   69        7.995867
   70        8.291177
   71        8.293617
   72        8.617896
   73        9.834949
   74        9.852992
   75       10.144611
   76       10.147358
   77       10.539825
   78       11.442739
   79       12.173195
   80       12.177841
   81       12.550588
   82       12.629710
   83       12.631715
   84       12.862792
 
  0.4444444E+00  0.1111111E+00  0.0000000E+00  0.6172840E-02
    1      -13.561104
    2      -13.558179
    3      -13.447398
    4      -13.444584
    5      -13.443622
    6      -13.441764
    7      -13.324316
    8      -13.321352
    9      -11.646689
   10      -11.546463
   11      -11.545775
   12      -11.440727
   13       -9.836899
   14       -9.752602
   15       -9.752102
   16       -9.664601
   17       -6.780050
   18       -6.744564
   19       -6.741786
   20       -6.708187
   21       -5.145102
   22       -5.139178
   23       -5.117690
   24       -5.117092
   25       -5.114939
   26       -5.112866
   27       -5.088970
   28       -5.084914
   29       -3.600303
   30       -3.580994
   31       -3.578501
   32       -3.555109
   33       -2.907255
   34       -2.904154
   35       -2.867297
   36       -2.867254
   37       -2.865283
   38       -2.861128
   39       -2.825776
   40       -2.821857
   41       -2.063184
   42       -2.060785
   43       -1.305677
   44       -1.302688
   45       -1.301864
   46       -1.300095
   47       -0.735463
   48       -0.728385
   49       -0.714933
   50       -0.708539
   51       -0.706556
   52       -0.706341
   53       -0.688902
   54       -0.685067
   55       -0.399073
   56       -0.396413
   57        0.181536
   58        0.850395
   59        0.851598
   60        1.626105
   61        2.204841
   62        2.746885
   63        2.748043
   64        3.331883
   65        6.019433
   66        6.297993
   67        6.300885
   68        6.594405
   69        8.212724
   70        8.467846
   71        8.470614
   72        8.725356
   73       10.564761
   74       10.566368
   75       11.424776
   76       11.427978
   77       11.631319
   78       11.635310
   79       11.636241
   80       11.642459
   81       11.960867
   82       11.964228
   83       12.674155
   84       12.679165
 
 -0.4444444E+00  0.1111111E+00  0.0000000E+00  0.6172840E-02
    1      -14.140522
    2      -14.021254
    3      -14.020627
    4      -13.894623
    5      -12.840151
    6      -12.730585
    7      -12.730048
    8      -12.614866
    9      -11.577886
   10      -11.478123
   11      -11.477433
   12      -11.373065
   13       -9.779488
   14       -9.696762
   15       -9.696199
   16       -9.610739
   17       -7.279583
   18       -7.222752
   19       -7.221513
   20       -7.162788
   21       -5.626500
   22       -5.576175
   23       -5.573167
   24       -5.521921
   25       -4.626460
   26       -4.585145
   27       -4.584921
   28       -4.541573
   29       -4.367781
   30       -4.317966
   31       -4.316103
   32       -4.265056
   33       -3.170157
   34       -3.137496
   35       -3.135082
   36       -3.100925
   37       -2.755599
   38       -1.975372
   39       -1.973733
   40       -1.502683
   41       -1.473395
   42       -1.471566
   43       -1.443015
   44       -1.257022
   45       -1.235106
   46       -1.231509
   47       -1.215453
   48       -1.209395
   49       -1.037648
   50       -0.488883
   51       -0.487263
   52       -0.126305
   53       -0.109642
   54       -0.106305
   55       -0.089448
   56        0.251394
   57        0.369856
   58        0.912360
   59        0.913623
   60        1.674481
   61        2.215684
   62        2.726594
   63        2.727313
   64        3.244811
   65        6.002506
   66        6.233433
   67        6.235650
   68        6.540133
   69        7.990390
   70        8.286015
   71        8.289445
   72        8.615370
   73        9.835174
   74        9.852098
   75       10.144083
   76       10.147051
   77       10.538794
   78       11.444218
   79       12.172804
   80       12.177417
   81       12.547277
   82       12.626400
   83       12.629183
   84       12.859141
 
 -0.3333333E+00  0.1111111E+00  0.0000000E+00  0.6172840E-02
    1      -14.578642
    2      -14.456095
    3      -14.455457
    4      -14.325736
    5      -11.989906
    6      -11.886938
    7      -11.886400
    8      -11.778478
    9      -11.370891
   10      -11.272942
   11      -11.272276
   12      -11.169829
   13       -9.633078
   14       -9.558950
   15       -9.558371
   16       -9.483733
   17       -8.047198
   18       -7.989746
   19       -7.989049
   20       -7.926296
   21       -6.424984
   22       -6.363617
   23       -6.361104
   24       -6.297967
   25       -5.816838
   26       -5.757207
   27       -5.755757
   28       -5.694369
   29       -3.691967
   30       -3.652397
   31       -3.652017
   32       -3.611421
   33       -3.282925
   34       -2.487506
   35       -2.485905
   36       -2.468131
   37       -2.437940
   38       -2.435861
   39       -2.405131
   40       -1.673528
   41       -1.650199
   42       -1.646911
   43       -1.623314
   44       -1.528729
   45       -0.261002
   46       -0.246096
   47       -0.242620
   48       -0.237976
   49       -0.222994
   50        0.434803
   51        0.436630
   52        0.458215
   53        0.502475
   54        0.514150
   55        0.516643
   56        0.528894
   57        1.094851
   58        1.096213
   59        1.218758
   60        1.814238
   61        2.213308
   62        2.638739
   63        2.639188
   64        2.995747
   65        5.992317
   66        6.116216
   67        6.118453
   68        6.443571
   69        7.482044
   70        7.828400
   71        7.832415
   72        8.272499
   73        8.274588
   74        8.637755
   75        8.640671
   76        9.111168
   77        9.311749
   78       11.734644
   79       11.737897
   80       12.256848
   81       12.453647
   82       12.458264
   83       12.460318
   84       12.807075
 
 -0.2222222E+00  0.1111111E+00  0.0000000E+00  0.6172840E-02
    1      -14.871856
    2      -14.747179
    3      -14.746531
    4      -14.614343
    5      -11.030620
    6      -11.023601
    7      -10.935782
    8      -10.935184
    9      -10.928727
   10      -10.928099
   11      -10.836272
   12      -10.829147
   13       -9.580008
   14       -9.528614
   15       -9.528052
   16       -9.484248
   17       -8.521296
   18       -8.493115
   19       -8.492583
   20       -8.450778
   21       -7.206535
   22       -7.197873
   23       -7.139607
   24       -7.137262
   25       -7.130472
   26       -7.129150
   27       -7.067513
   28       -7.058943
   29       -3.637571
   30       -2.832735
   31       -2.831134
   32       -2.786333
   33       -2.754026
   34       -2.753483
   35       -2.720589
   36       -1.960193
   37       -1.940308
   38       -1.935989
   39       -1.932927
   40       -1.915657
   41       -1.913670
   42       -1.908460
   43       -1.888661
   44       -1.860568
   45        0.684823
   46        0.695285
   47        0.696562
   48        0.706617
   49        0.791015
   50        0.795130
   51        1.054974
   52        1.063108
   53        1.063319
   54        1.072250
   55        1.381118
   56        1.382650
   57        1.385860
   58        1.387954
   59        2.021121
   60        2.027626
   61        2.074183
   62        2.437797
   63        2.438287
   64        2.696744
   65        6.009829
   66        6.109081
   67        6.111570
   68        6.498292
   69        6.906008
   70        6.913477
   71        7.257282
   72        7.261710
   73        7.267168
   74        7.270669
   75        7.778626
   76        7.787482
   77        8.951958
   78       11.419046
   79       11.422261
   80       12.155514
   81       12.191580
   82       12.321615
   83       12.329967
   84       12.357733
 
 -0.1111111E+00  0.1111111E+00  0.0000000E+00  0.6172840E-02
    1      -15.018810
    2      -14.893044
    3      -14.892393
    4      -14.758966
    5      -10.569140
    6      -10.479821
    7      -10.479371
    8      -10.387039
    9      -10.016341
   10      -10.014055
   11       -9.940455
   12       -9.937334
   13       -9.937321
   14       -9.935948
   15       -9.861015
   16       -9.858810
   17       -8.396155
   18       -8.394377
   19       -8.334706
   20       -8.333499
   21       -8.333489
   22       -8.330951
   23       -8.266269
   24       -8.264312
   25       -7.888499
   26       -7.819541
   27       -7.817148
   28       -7.745211
   29       -3.815711
   30       -3.006304
   31       -3.004698
   32       -2.107091
   33       -2.104414
   34       -2.082718
   35       -2.078659
   36       -2.078655
   37       -2.078086
   38       -2.054180
   39       -2.052077
   40       -2.027726
   41       -1.786644
   42       -1.764285
   43       -1.762325
   44       -1.739942
   45        1.205142
   46        1.216806
   47        1.223215
   48        1.224125
   49        1.232613
   50        1.372951
   51        1.381542
   52        1.385191
   53        1.395727
   54        1.693743
   55        1.696206
   56        1.738807
   57        1.740585
   58        2.116793
   59        2.120746
   60        2.120840
   61        2.121525
   62        2.253146
   63        2.476056
   64        2.478049
   65        6.115314
   66        6.117493
   67        6.313760
   68        6.315654
   69        6.315910
   70        6.321036
   71        6.417250
   72        6.714945
   73        6.719754
   74        6.798157
   75        6.801194
   76        7.249062
   77        8.772656
   78       11.260319
   79       11.263546
   80       11.818663
   81       11.985537
   82       11.986050
   83       12.078063
   84       12.097860
 
  0.1355253E-19  0.2222222E+00  0.0000000E+00  0.6172840E-02
    1      -14.798205
    2      -14.674067
    3      -14.673421
    4      -14.541854
    5      -11.572083
    6      -11.472278
    7      -11.471640
    8      -11.367515
    9      -10.370748
   10      -10.364815
   11      -10.283848
   12      -10.282442
   13      -10.276796
   14      -10.276369
   15      -10.191873
   16      -10.185668
   17       -7.719231
   18       -7.708746
   19       -7.653082
   20       -7.649960
   21       -7.641731
   22       -7.639694
   23       -7.580232
   24       -7.569650
   25       -6.555550
   26       -6.490523
   27       -6.489982
   28       -6.422707
   29       -3.548432
   30       -2.745910
   31       -2.744310
   32       -2.712752
   33       -2.693257
   34       -2.681880
   35       -2.679065
   36       -2.661851
   37       -2.660114
   38       -2.647362
   39       -2.627927
   40       -1.777038
   41       -1.591409
   42       -1.568911
   43       -1.568395
   44       -1.545783
   45        0.211510
   46        0.398559
   47        0.416207
   48        0.416965
   49        0.434890
   50        0.855064
   51        0.856202
   52        0.939323
   53        0.952837
   54        0.953240
   55        0.966688
   56        1.475675
   57        1.478631
   58        1.582433
   59        1.991869
   60        1.992556
   61        1.996990
   62        1.997927
   63        2.506542
   64        2.514153
   65        6.371499
   66        6.376966
   67        6.640069
   68        6.644881
   69        6.650207
   70        6.654044
   71        7.098898
   72        7.108867
   73        7.564959
   74        7.946864
   75        7.949384
   76        8.471381
   77        9.041944
   78       11.497134
   79       11.500345
   80       11.898783
   81       12.059420
   82       12.060209
   83       12.202111
   84       12.904507
 
  0.1111111E+00  0.2222222E+00  0.0000000E+00  0.6172840E-02
    1      -14.578095
    2      -14.455558
    3      -14.454926
    4      -14.325186
    5      -11.991381
    6      -11.888413
    7      -11.887741
    8      -11.779955
    9      -11.367266
   10      -11.269249
   11      -11.268674
   12      -11.166156
   13       -9.638902
   14       -9.565111
   15       -9.564794
   16       -9.490594
   17       -8.053958
   18       -7.997972
   19       -7.995025
   20       -7.933647
   21       -6.412431
   22       -6.350460
   23       -6.349312
   24       -6.285578
   25       -5.815396
   26       -5.755463
   27       -5.754771
   28       -5.693210
   29       -3.676197
   30       -3.637129
   31       -3.635609
   32       -3.595516
   33       -3.282369
   34       -2.488000
   35       -2.486847
   36       -2.485361
   37       -2.457969
   38       -2.455191
   39       -2.424838
   40       -1.673644
   41       -1.649049
   42       -1.648747
   43       -1.623795
   44       -1.528193
   45       -0.258012
   46       -0.245526
   47       -0.239713
   48       -0.235690
   49       -0.219496