       N       E                     dE             d eps       ncg     rms          rms(c)
DAV:   1     0.601017518108E+03    0.60102E+03   -0.71507E+04 27384   0.159E+03
DAV:   2    -0.262226407956E+03   -0.86324E+03   -0.83253E+03 34140   0.312E+02
DAV:   3    -0.312846794841E+03   -0.50620E+02   -0.50130E+02 33252   0.760E+01
DAV:   4    -0.313824640574E+03   -0.97785E+00   -0.97603E+00 34920   0.114E+01
DAV:   5    -0.313853624693E+03   -0.28984E-01   -0.28971E-01 35160   0.184E+00    0.221E+01
DAV:   6    -0.299323696376E+03    0.14530E+02   -0.14976E+01 31296   0.107E+01    0.116E+01
DAV:   7    -0.294700520861E+03    0.46232E+01   -0.15825E+01 30840   0.110E+01    0.195E+00
DAV:   8    -0.294767317272E+03   -0.66796E-01   -0.41728E-01 30840   0.187E+00    0.348E-01
DAV:   9    -0.294768371502E+03   -0.10542E-02   -0.27553E-02 32268   0.491E-01    0.173E-01
DAV:  10    -0.294768412714E+03   -0.41212E-04   -0.58062E-03 34248   0.214E-01    0.118E-01
DAV:  11    -0.294769058758E+03   -0.64604E-03   -0.39398E-03 31752   0.155E-01    0.105E-01
DAV:  12    -0.294769277468E+03   -0.21871E-03   -0.24251E-03 31176   0.106E-01    0.643E-02
DAV:  13    -0.294769490370E+03   -0.21290E-03   -0.10330E-03 31344   0.841E-02    0.378E-02
DAV:  14    -0.294769555645E+03   -0.65275E-04   -0.50131E-04 31512   0.488E-02    0.203E-02
DAV:  15    -0.294769555086E+03    0.55836E-06   -0.26238E-04 33036   0.332E-02    0.232E-02
