       N       E                     dE             d eps       ncg     rms          rms(c)
DAV:   1     0.627569592225E+03    0.62757E+03   -0.71228E+04 26756   0.163E+03
DAV:   2    -0.257024905463E+03   -0.88459E+03   -0.83943E+03 33502   0.322E+02
DAV:   3    -0.312545968163E+03   -0.55521E+02   -0.54805E+02 31604   0.811E+01
DAV:   4    -0.313809844199E+03   -0.12639E+01   -0.12605E+01 33176   0.131E+01
DAV:   5    -0.313853321743E+03   -0.43478E-01   -0.43457E-01 33872   0.220E+00    0.221E+01
DAV:   6    -0.299324303651E+03    0.14529E+02   -0.15018E+01 29928   0.110E+01    0.116E+01
DAV:   7    -0.294701796876E+03    0.46225E+01   -0.15877E+01 29342   0.113E+01    0.195E+00
