   4   4   0   0
  0.3545204E+01  0.2467155E-09  0.2467155E-09  0.2690297E-09  0.5000000E-15
  1.000000000000000E-004
  CAR 
 graphite                                
     35.78893311    -13.37356996  301     19.56111634      1.00000000
    -13.374  0.0000E+00  0.0000E+00
    -13.210  0.0000E+00  0.0000E+00
    -13.046  0.0000E+00  0.0000E+00
    -12.882  0.0000E+00  0.0000E+00
    -12.718  0.0000E+00  0.0000E+00
    -12.554  0.0000E+00  0.0000E+00
    -12.390  0.0000E+00  0.0000E+00
    -12.226  0.0000E+00  0.0000E+00
    -12.063  0.0000E+00  0.0000E+00
    -11.899  0.0000E+00  0.0000E+00
    -11.735  0.0000E+00  0.0000E+00
    -11.571  0.0000E+00  0.0000E+00
    -11.407  0.0000E+00  0.0000E+00
    -11.243  0.0000E+00  0.0000E+00
    -11.079  0.5424E-04  0.1077E-05
    -10.915  0.2934E-03  0.2986E-04
    -10.752  0.4157E-03  0.9085E-04
    -10.588  0.4975E-03  0.1655E-03
    -10.424  0.5764E-03  0.2538E-03
    -10.260  0.6537E-03  0.3542E-03
    -10.096  0.7347E-03  0.4686E-03
     -9.932  0.7759E-03  0.5923E-03
     -9.768  0.8270E-03  0.7234E-03
     -9.604  0.8807E-03  0.8635E-03
     -9.441  0.9252E-03  0.1012E-02
     -9.277  0.9731E-03  0.1167E-02
     -9.113  0.1026E-02  0.1331E-02
     -8.949  0.1079E-02  0.1503E-02
     -8.785  0.1116E-02  0.1683E-02
     -8.621  0.1151E-02  0.1869E-02
     -8.457  0.1191E-02  0.2061E-02
     -8.293  0.1232E-02  0.2259E-02
     -8.130  0.1269E-02  0.2464E-02
     -7.966  0.1304E-02  0.2675E-02
     -7.802  0.1343E-02  0.2892E-02
     -7.638  0.1384E-02  0.3116E-02
     -7.474  0.1427E-02  0.3346E-02
     -7.310  0.1467E-02  0.3583E-02
     -7.146  0.1505E-02  0.3827E-02
     -6.982  0.1542E-02  0.4076E-02
     -6.819  0.1581E-02  0.4332E-02
     -6.655  0.1621E-02  0.4594E-02
     -6.491  0.1666E-02  0.4864E-02
     -6.327  0.1714E-02  0.5141E-02
     -6.163  0.1772E-02  0.5426E-02
     -5.999  0.1848E-02  0.5722E-02
     -5.835  0.1948E-02  0.6033E-02
     -5.671  0.2150E-02  0.6374E-02
     -5.508  0.2052E-02  0.6721E-02
     -5.344  0.2106E-02  0.7062E-02
     -5.180  0.2018E-02  0.7403E-02
     -5.016  0.1972E-02  0.7730E-02
     -4.852  0.1898E-02  0.8048E-02
     -4.688  0.1895E-02  0.8357E-02
     -4.524  0.1857E-02  0.8666E-02
     -4.360  0.1736E-02  0.8960E-02
     -4.197  0.1626E-02  0.9235E-02
     -4.033  0.1565E-02  0.9496E-02
     -3.869  0.1530E-02  0.9749E-02
     -3.705  0.1583E-02  0.1000E-01
     -3.541  0.1755E-02  0.1028E-01
     -3.377  0.1759E-02  0.1057E-01
     -3.213  0.1837E-02  0.1086E-01
     -3.049  0.1960E-02  0.1118E-01
     -2.886  0.1991E-02  0.1150E-01
     -2.722  0.2047E-02  0.1183E-01
     -2.558  0.2108E-02  0.1217E-01
     -2.394  0.2199E-02  0.1253E-01
     -2.230  0.2379E-02  0.1290E-01
     -2.066  0.2474E-02  0.1330E-01
     -1.902  0.2475E-02  0.1371E-01
     -1.738  0.2527E-02  0.1412E-01
     -1.575  0.2621E-02  0.1454E-01
     -1.411  0.2735E-02  0.1498E-01
     -1.247  0.2739E-02  0.1543E-01
     -1.083  0.2684E-02  0.1588E-01
     -0.919  0.2509E-02  0.1630E-01
     -0.755  0.2395E-02  0.1670E-01
     -0.591  0.2197E-02  0.1708E-01
     -0.427  0.2101E-02  0.1743E-01
     -0.264  0.2097E-02  0.1777E-01
     -0.100  0.2284E-02  0.1813E-01
      0.064  0.2192E-02  0.1850E-01
      0.228  0.2331E-02  0.1887E-01
      0.392  0.2516E-02  0.1927E-01
      0.556  0.2648E-02  0.1969E-01
      0.720  0.2669E-02  0.2013E-01
      0.884  0.2813E-02  0.2058E-01
      1.047  0.3074E-02  0.2106E-01
      1.211  0.3258E-02  0.2158E-01
      1.375  0.3284E-02  0.2212E-01
      1.539  0.3281E-02  0.2266E-01
      1.703  0.3130E-02  0.2319E-01
      1.867  0.3121E-02  0.2370E-01
      2.031  0.3109E-02  0.2421E-01
      2.195  0.3125E-02  0.2472E-01
      2.358  0.3140E-02  0.2523E-01
      2.522  0.3218E-02  0.2575E-01
      2.686  0.3299E-02  0.2629E-01
      2.850  0.2976E-02  0.2679E-01
      3.014  0.3074E-02  0.2729E-01
      3.178  0.3281E-02  0.2780E-01
      3.342  0.3362E-02  0.2835E-01
      3.506  0.3312E-02  0.2890E-01
      3.669  0.3313E-02  0.2944E-01
      3.833  0.3475E-02  0.2999E-01
      3.997  0.3910E-02  0.3060E-01
      4.161  0.3887E-02  0.3126E-01
      4.325  0.3767E-02  0.3187E-01
      4.489  0.4029E-02  0.3251E-01
      4.653  0.4067E-02  0.3318E-01
      4.817  0.3815E-02  0.3383E-01
      4.980  0.3560E-02  0.3443E-01
      5.144  0.3249E-02  0.3499E-01
      5.308  0.2937E-02  0.3550E-01
      5.472  0.2751E-02  0.3596E-01
      5.636  0.2640E-02  0.3640E-01
      5.800  0.2596E-02  0.3683E-01
      5.964  0.2745E-02  0.3726E-01
      6.128  0.2778E-02  0.3772E-01
      6.291  0.2803E-02  0.3817E-01
      6.455  0.2788E-02  0.3863E-01
      6.619  0.2743E-02  0.3909E-01
      6.783  0.2739E-02  0.3954E-01
      6.947  0.2712E-02  0.3998E-01
      7.111  0.2688E-02  0.4042E-01
      7.275  0.2678E-02  0.4086E-01
      7.439  0.2672E-02  0.4130E-01
      7.602  0.2659E-02  0.4174E-01
      7.766  0.2644E-02  0.4217E-01
      7.930  0.2620E-02  0.4261E-01
      8.094  0.2601E-02  0.4303E-01
      8.258  0.2583E-02  0.4346E-01
      8.422  0.2570E-02  0.4388E-01
      8.586  0.2563E-02  0.4430E-01
      8.750  0.2541E-02  0.4472E-01
      8.913  0.2528E-02  0.4513E-01
      9.077  0.2527E-02  0.4555E-01
      9.241  0.2574E-02  0.4596E-01
      9.405  0.2650E-02  0.4639E-01
      9.569  0.2748E-02  0.4683E-01
      9.733  0.2865E-02  0.4729E-01
      9.897  0.3015E-02  0.4778E-01
     10.061  0.3229E-02  0.4829E-01
     10.224  0.3677E-02  0.4884E-01
     10.388  0.4090E-02  0.4949E-01
     10.552  0.4334E-02  0.5018E-01
     10.716  0.4192E-02  0.5088E-01
     10.880  0.3631E-02  0.5153E-01
     11.044  0.2652E-02  0.5203E-01
     11.208  0.2271E-02  0.5243E-01
     11.372  0.2090E-02  0.5279E-01
     11.535  0.1943E-02  0.5312E-01
     11.699  0.1846E-02  0.5343E-01
     11.863  0.1776E-02  0.5372E-01
     12.027  0.1713E-02  0.5401E-01
     12.191  0.1686E-02  0.5429E-01
     12.355  0.1647E-02  0.5456E-01
     12.519  0.1641E-02  0.5483E-01
     12.683  0.1641E-02  0.5510E-01
     12.846  0.1672E-02  0.5537E-01
     13.010  0.1866E-02  0.5565E-01
     13.174  0.2546E-02  0.5601E-01
     13.338  0.2887E-02  0.5645E-01
     13.502  0.3525E-02  0.5697E-01
     13.666  0.5191E-02  0.5768E-01
     13.830  0.3925E-02  0.5837E-01
     13.994  0.4165E-02  0.5904E-01
     14.157  0.3519E-02  0.5971E-01
     14.321  0.2210E-02  0.6013E-01
     14.485  0.2610E-02  0.6051E-01
     14.649  0.3570E-02  0.6102E-01
     14.813  0.3571E-02  0.6162E-01
     14.977  0.3346E-02  0.6218E-01
     15.141  0.3524E-02  0.6274E-01
     15.305  0.4436E-02  0.6338E-01
     15.468  0.5201E-02  0.6417E-01
     15.632  0.5063E-02  0.6505E-01
     15.796  0.4743E-02  0.6584E-01
     15.960  0.4472E-02  0.6660E-01
     16.124  0.3886E-02  0.6729E-01
     16.288  0.3371E-02  0.6788E-01
     16.452  0.3427E-02  0.6843E-01
     16.616  0.3537E-02  0.6900E-01
     16.779  0.3665E-02  0.6959E-01
     16.943  0.3856E-02  0.7021E-01
     17.107  0.4010E-02  0.7085E-01
     17.271  0.4001E-02  0.7151E-01
     17.435  0.3955E-02  0.7216E-01
     17.599  0.4058E-02  0.7282E-01
     17.763  0.4077E-02  0.7349E-01
     17.927  0.4136E-02  0.7416E-01
     18.090  0.3980E-02  0.7483E-01
     18.254  0.3939E-02  0.7547E-01
     18.418  0.3869E-02  0.7611E-01
     18.582  0.3790E-02  0.7674E-01
     18.746  0.3754E-02  0.7736E-01
     18.910  0.3558E-02  0.7797E-01
     19.074  0.3176E-02  0.7851E-01
     19.238  0.3116E-02  0.7902E-01
     19.401  0.3066E-02  0.7953E-01
     19.565  0.2887E-02  0.8001E-01
     19.729  0.3010E-02  0.8049E-01
     19.893  0.3591E-02  0.8103E-01
     20.057  0.4339E-02  0.8168E-01
     20.221  0.5570E-02  0.8249E-01
     20.385  0.6467E-02  0.8350E-01
     20.549  0.6146E-02  0.8455E-01
     20.712  0.5343E-02  0.8549E-01
     20.876  0.4987E-02  0.8633E-01
     21.040  0.4657E-02  0.8713E-01
     21.204  0.4539E-02  0.8788E-01
     21.368  0.4381E-02  0.8861E-01
     21.532  0.3613E-02  0.8928E-01
     21.696  0.2957E-02  0.8981E-01
     21.860  0.2764E-02  0.9027E-01
     22.023  0.2703E-02  0.9072E-01
     22.187  0.2780E-02  0.9117E-01
     22.351  0.2830E-02  0.9162E-01
     22.515  0.2962E-02  0.9210E-01
     22.679  0.3192E-02  0.9260E-01
     22.843  0.3418E-02  0.9314E-01
     23.007  0.3894E-02  0.9375E-01
     23.171  0.4123E-02  0.9441E-01
     23.334  0.4547E-02  0.9511E-01
     23.498  0.5086E-02  0.9590E-01
     23.662  0.5877E-02  0.9680E-01
     23.826  0.6663E-02  0.9783E-01
     23.990  0.6706E-02  0.9894E-01
     24.154  0.5763E-02  0.9997E-01
     24.318  0.5413E-02  0.1009E+00
     24.482  0.4532E-02  0.1017E+00
     24.645  0.2700E-02  0.1023E+00
     24.809  0.2471E-02  0.1027E+00
     24.973  0.2122E-02  0.1031E+00
     25.137  0.1941E-02  0.1034E+00
     25.301  0.1983E-02  0.1037E+00
     25.465  0.1981E-02  0.1040E+00
     25.629  0.1932E-02  0.1043E+00
     25.793  0.1885E-02  0.1047E+00
     25.956  0.1844E-02  0.1050E+00
     26.120  0.1762E-02  0.1053E+00
     26.284  0.1807E-02  0.1056E+00
     26.448  0.1743E-02  0.1058E+00
     26.612  0.1650E-02  0.1061E+00
     26.776  0.1634E-02  0.1064E+00
     26.940  0.1647E-02  0.1067E+00
     27.104  0.1661E-02  0.1069E+00
     27.267  0.1675E-02  0.1072E+00
     27.431  0.1687E-02  0.1075E+00
     27.595  0.1696E-02  0.1078E+00
     27.759  0.1712E-02  0.1080E+00
     27.923  0.1732E-02  0.1083E+00
     28.087  0.1731E-02  0.1086E+00
     28.251  0.1724E-02  0.1089E+00
     28.415  0.1741E-02  0.1092E+00
     28.578  0.1775E-02  0.1095E+00
     28.742  0.1843E-02  0.1098E+00
     28.906  0.1903E-02  0.1101E+00
     29.070  0.1903E-02  0.1104E+00
     29.234  0.1932E-02  0.1107E+00
     29.398  0.1974E-02  0.1110E+00
     29.562  0.2024E-02  0.1113E+00
     29.726  0.2057E-02  0.1117E+00
     29.889  0.2106E-02  0.1120E+00
     30.053  0.2177E-02  0.1124E+00
     30.217  0.2274E-02  0.1127E+00
     30.381  0.2572E-02  0.1131E+00
     30.545  0.2454E-02  0.1135E+00
     30.709  0.2372E-02  0.1139E+00
     30.873  0.2376E-02  0.1143E+00
     31.037  0.2374E-02  0.1147E+00
     31.200  0.2430E-02  0.1151E+00
     31.364  0.2574E-02  0.1155E+00
     31.528  0.2664E-02  0.1159E+00
     31.692  0.2714E-02  0.1164E+00
     31.856  0.2680E-02  0.1168E+00
     32.020  0.2674E-02  0.1173E+00
     32.184  0.2623E-02  0.1177E+00
     32.348  0.2539E-02  0.1181E+00
     32.511  0.2533E-02  0.1185E+00
     32.675  0.4437E-02  0.1190E+00
     32.839  0.3071E-02  0.1197E+00
     33.003  0.3850E-03  0.1199E+00
     33.167  0.1348E-03  0.1200E+00
     33.331  0.4484E-04  0.1200E+00
     33.495  0.3172E-05  0.1200E+00
     33.659  0.0000E+00  0.1200E+00
     33.822  0.0000E+00  0.1200E+00
     33.986  0.0000E+00  0.1200E+00
     34.150  0.0000E+00  0.1200E+00
     34.314  0.0000E+00  0.1200E+00
     34.478  0.0000E+00  0.1200E+00
     34.642  0.0000E+00  0.1200E+00
     34.806  0.0000E+00  0.1200E+00
     34.970  0.0000E+00  0.1200E+00
     35.133  0.0000E+00  0.1200E+00
     35.297  0.0000E+00  0.1200E+00
     35.461  0.0000E+00  0.1200E+00
     35.625  0.0000E+00  0.1200E+00
     35.789  0.0000E+00  0.1200E+00
