       N       E                     dE             d eps       ncg     rms          rms(c)
DAV:   1     0.483809504060E+02    0.48381E+02   -0.99469E+03 10952   0.151E+03
DAV:   2    -0.137348008241E+02   -0.62116E+02   -0.55130E+02 14056   0.243E+02
DAV:   3    -0.157301525041E+02   -0.19954E+01   -0.19420E+01 14012   0.388E+01
DAV:   4    -0.157473983944E+02   -0.17246E-01   -0.17338E-01 12304   0.341E+00
DAV:   5    -0.157476579442E+02   -0.25955E-03   -0.26278E-03 13952   0.318E-01    0.815E+00
DAV:   6    -0.142770639333E+02    0.14706E+01   -0.13598E+00 11396   0.117E+01    0.405E+00
DAV:   7    -0.139288565577E+02    0.34821E+00   -0.44450E-01 12220   0.666E+00    0.115E+00
DAV:   8    -0.139079618579E+02    0.20895E-01   -0.47912E-02 12120   0.205E+00    0.173E-01
DAV:   9    -0.139079801316E+02   -0.18274E-04   -0.58176E-04 13052   0.263E-01    0.296E-02
DAV:  10    -0.139079638315E+02    0.16300E-04   -0.34741E-05 12700   0.608E-02    0.585E-03
DAV:  11    -0.139079638241E+02    0.73418E-08   -0.22765E-06 10500   0.164E-02
   1 F= -.14619444E+02 E0= -.14619444E+02  d E =-.146194E+02
