 running on    6 total cores
 distrk:  each k-point on    6 cores,    1 groups
 distr:  one band on    1 cores,    6 groups
 using from now: INCAR     
 vasp.5.3.5 31Mar14 (build Nov 02 2014 15:17:37) complex                        
  
 POSCAR found :  1 types and      32 ions
 scaLAPACK will be used

 ----------------------------------------------------------------------------- 
|                                                                             |
|           W    W    AA    RRRRR   N    N  II  N    N   GGGG   !!!           |
|           W    W   A  A   R    R  NN   N  II  NN   N  G    G  !!!           |
|           W    W  A    A  R    R  N N  N  II  N N  N  G       !!!           |
|           W WW W  AAAAAA  RRRRR   N  N N  II  N  N N  G  GGG   !            |
|           WW  WW  A    A  R   R   N   NN  II  N   NN  G    G                |
|           W    W  A    A  R    R  N    N  II  N    N   GGGG   !!!           |
|                                                                             |
|      For optimal performance we recommend to set                            |
|        NCORE= 4 - approx SQRT( number of cores)                             |
|      NCORE specifies how many cores store one orbital (NPAR=cpu/NCORE).     |
|      This setting can  greatly improve the performance of VASP for DFT.     |
|      The default, NPAR=number of cores might be grossly inefficient         |
|      on modern multi-core architectures or massively parallel machines.     |
|      Do your own testing !!!!                                               |
|      Unfortunately you need to use the default for GW and RPA calculations. |
|      (for HF NCORE is supported but not extensively tested yet)             |
|                                                                             |
 ----------------------------------------------------------------------------- 


 ----------------------------------------------------------------------------- 
|                                                                             |
|  ADVICE TO THIS USER RUNNING 'VASP/VAMP'   (HEAR YOUR MASTER'S VOICE ...):  |
|                                                                             |
|      You have a (more or less) 'large supercell' and for larger cells       |
|      it might be more efficient to use real space projection operators      |
|      So try LREAL= Auto  in the INCAR   file.                               |
|      Mind: If you want to do a very accurate calculations keep the          |
|      reciprocal projection scheme          (i.e. LREAL=.FALSE.)             |
|                                                                             |
 ----------------------------------------------------------------------------- 

 LDA part: xc-table for Pade appr. of Perdew
 POSCAR, INCAR and KPOINTS ok, starting setup
 FFT: planning ...
 WAVECAR not read
 WARNING: random wavefunctions but no delay for mixing, default for NELMDL
 entering main loop
       N       E                     dE             d eps       ncg     rms          rms(c)
DAV:   1     0.717588129678E+03    0.71759E+03   -0.83629E+04 12768   0.200E+03
DAV:   2    -0.253323252375E+03   -0.97091E+03   -0.93508E+03 15960   0.341E+02
DAV:   3    -0.312881359532E+03   -0.59558E+02   -0.58967E+02 15564   0.833E+01
DAV:   4    -0.314066697263E+03   -0.11853E+01   -0.11829E+01 16116   0.127E+01
DAV:   5    -0.314102365039E+03   -0.35668E-01   -0.35655E-01 16464   0.204E+00    0.221E+01
DAV:   6    -0.299560622221E+03    0.14542E+02   -0.14957E+01 14592   0.107E+01    0.116E+01
DAV:   7    -0.294917243332E+03    0.46434E+01   -0.15948E+01 14424   0.110E+01    0.198E+00
DAV:   8    -0.294993689528E+03   -0.76446E-01   -0.75618E-01 14964   0.220E+00    0.802E-01
DAV:   9    -0.294989924660E+03    0.37649E-02   -0.52323E-02 14880   0.794E-01    0.450E-01
DAV:  10    -0.294982315151E+03    0.76095E-02   -0.57274E-02 20196   0.536E-01    0.208E-01
DAV:  11    -0.294982817995E+03   -0.50284E-03   -0.22821E-02 14568   0.298E-01    0.187E-01
DAV:  12    -0.294983092587E+03   -0.27459E-03   -0.91088E-03 15192   0.160E-01    0.143E-01
DAV:  13    -0.294982937041E+03    0.15555E-03   -0.32280E-03 14832   0.118E-01    0.118E-01
DAV:  14    -0.294983428779E+03   -0.49174E-03   -0.88890E-03 17976   0.143E-01    0.140E-01
DAV:  15    -0.294983863991E+03   -0.43521E-03   -0.32026E-03 15456   0.998E-02    0.251E-01
DAV:  16    -0.294983223599E+03    0.64039E-03   -0.20875E-02 20328   0.191E-01    0.958E-02
DAV:  17    -0.294983021126E+03    0.20247E-03   -0.92675E-04 15420   0.659E-02    0.365E-02
DAV:  18    -0.294983054128E+03   -0.33002E-04   -0.33801E-04 15348   0.283E-02    0.579E-02
DAV:  19    -0.294983014482E+03    0.39646E-04   -0.44099E-04 19692   0.267E-02    0.188E-02
DAV:  20    -0.294983021441E+03   -0.69585E-05   -0.16422E-04 16548   0.157E-02    0.304E-02
DAV:  21    -0.294983012112E+03    0.93291E-05   -0.62600E-05 15600   0.105E-02    0.903E-03
DAV:  22    -0.294983011899E+03    0.21243E-06   -0.46298E-06 15336   0.457E-03    0.654E-03
DAV:  23    -0.294983012510E+03   -0.61086E-06   -0.49775E-06 20040   0.286E-03    0.975E-03
DAV:  24    -0.294983012438E+03    0.72607E-07   -0.60990E-07 15072   0.149E-03    0.944E-03
DAV:  25    -0.294983011631E+03    0.80628E-06   -0.51778E-06 16176   0.265E-03    0.321E-03
DAV:  26    -0.294983011649E+03   -0.17812E-07   -0.23723E-07 13848   0.791E-04    0.340E-03
DAV:  27    -0.294983011557E+03    0.91604E-07   -0.37792E-07  9096   0.718E-04    0.156E-03
DAV:  28    -0.294983011557E+03    0.93314E-09   -0.60745E-08  9900   0.480E-04
   1 F= -.29982316E+03 E0= -.29982316E+03  d E =0.000000E+00
