       N       E                     dE             d eps       ncg     rms          rms(c)
DAV:   1     0.717588129678E+03    0.71759E+03   -0.83629E+04 12768   0.200E+03
DAV:   2    -0.253323252375E+03   -0.97091E+03   -0.93508E+03 15960   0.341E+02
DAV:   3    -0.312881359532E+03   -0.59558E+02   -0.58967E+02 15564   0.833E+01
DAV:   4    -0.314066697263E+03   -0.11853E+01   -0.11829E+01 16116   0.127E+01
DAV:   5    -0.314102365039E+03   -0.35668E-01   -0.35655E-01 16464   0.204E+00    0.221E+01
DAV:   6    -0.299560622221E+03    0.14542E+02   -0.14957E+01 14592   0.107E+01    0.116E+01
DAV:   7    -0.294917243332E+03    0.46434E+01   -0.15948E+01 14424   0.110E+01    0.198E+00
DAV:   8    -0.294993689528E+03   -0.76446E-01   -0.75618E-01 14964   0.220E+00    0.802E-01
DAV:   9    -0.294989924660E+03    0.37649E-02   -0.52323E-02 14880   0.794E-01    0.450E-01
DAV:  10    -0.294982315151E+03    0.76095E-02   -0.57274E-02 20196   0.536E-01    0.208E-01
DAV:  11    -0.294982817995E+03   -0.50284E-03   -0.22821E-02 14568   0.298E-01    0.187E-01
DAV:  12    -0.294983092587E+03   -0.27459E-03   -0.91088E-03 15192   0.160E-01    0.143E-01
DAV:  13    -0.294982937041E+03    0.15555E-03   -0.32280E-03 14832   0.118E-01    0.118E-01
DAV:  14    -0.294983428779E+03   -0.49174E-03   -0.88890E-03 17976   0.143E-01    0.140E-01
