 vasp.5.3.5 31Mar14 (build Nov 02 2014 15:17:37) complex                        
  
 executed on        ion-Intel-MKL date 2016.10.20  10:38:33
 running on    6 total cores
 distrk:  each k-point on    6 cores,    1 groups
 distr:  one band on NCORES_PER_BAND=   1 cores,    6 groups


--------------------------------------------------------------------------------------------------------


 INCAR:
 POTCAR:   PAW_PBE C 08Apr2002                    

 ----------------------------------------------------------------------------- 
|                                                                             |
|           W    W    AA    RRRRR   N    N  II  N    N   GGGG   !!!           |
|           W    W   A  A   R    R  NN   N  II  NN   N  G    G  !!!           |
|           W    W  A    A  R    R  N N  N  II  N N  N  G       !!!           |
|           W WW W  AAAAAA  RRRRR   N  N N  II  N  N N  G  GGG   !            |
|           WW  WW  A    A  R   R   N   NN  II  N   NN  G    G                |
|           W    W  A    A  R    R  N    N  II  N    N   GGGG   !!!           |
|                                                                             |
|      For optimal performance we recommend to set                            |
|        NCORE= 4 - approx SQRT( number of cores)                             |
|      NCORE specifies how many cores store one orbital (NPAR=cpu/NCORE).     |
|      This setting can  greatly improve the performance of VASP for DFT.     |
|      The default, NPAR=number of cores might be grossly inefficient         |
|      on modern multi-core architectures or massively parallel machines.     |
|      Do your own testing !!!!                                               |
|      Unfortunately you need to use the default for GW and RPA calculations. |
|      (for HF NCORE is supported but not extensively tested yet)             |
|                                                                             |
 ----------------------------------------------------------------------------- 

 POTCAR:   PAW_PBE C 08Apr2002                    
   VRHFIN =C: s2p2                                                              
   LEXCH  = PE                                                                  
   EATOM  =   147.1560 eV,   10.8157 Ry                                         
                                                                                
   TITEL  = PAW_PBE C 08Apr2002                                                 
   LULTRA =        F    use ultrasoft PP ?                                      
   IUNSCR =        0    unscreen: 0-lin 1-nonlin 2-no                           
   RPACOR =     .000    partial core radius                                     
   POMASS =   12.011; ZVAL   =    4.000    mass and valenz                      
   RCORE  =    1.500    outmost cutoff radius                                   
   RWIGS  =    1.630; RWIGS  =     .863    wigner-seitz radius (au A)           
   ENMAX  =  400.000; ENMIN  =  300.000 eV                                      
   ICORE  =        2    local potential                                         
   LCOR   =        T    correct aug charges                                     
   LPAW   =        T    paw PP                                                  
   EAUG   =  644.873                                                            
   DEXC   =     .000                                                            
   RMAX   =    2.266    core radius for proj-oper                               
   RAUG   =    1.300    factor for augmentation sphere                          
   RDEP   =    1.501    radius for radial grids                                 
   RDEPT  =    1.300    core radius for aug-charge                              
   QCUT   =   -5.516; QGAM   =   11.032    optimization parameters              
                                                                                
   Description                                                                  
     l     E      TYP  RCUT    TYP  RCUT                                        
     0   .000     23  1.200                                                     
     0   .000     23  1.200                                                     
     1   .000     23  1.500                                                     
     1  2.500     23  1.500                                                     
     2   .000      7  1.500                                                     
  local pseudopotential read in
  atomic valenz-charges read in
  non local Contribution for L=           0  read in
    real space projection operators read in
  non local Contribution for L=           0  read in
    real space projection operators read in
  non local Contribution for L=           1  read in
    real space projection operators read in
  non local Contribution for L=           1  read in
    real space projection operators read in
    PAW grid and wavefunctions read in
 
   number of l-projection  operators is LMAX  =           4
   number of lm-projection operators is LMMAX =           8
 

 ----------------------------------------------------------------------------- 
|                                                                             |
|  ADVICE TO THIS USER RUNNING 'VASP/VAMP'   (HEAR YOUR MASTER'S VOICE ...):  |
|                                                                             |
|      You have a (more or less) 'large supercell' and for larger cells       |
|      it might be more efficient to use real space projection operators      |
|      So try LREAL= Auto  in the INCAR   file.                               |
|      Mind: If you want to do a very accurate calculations keep the          |
|      reciprocal projection scheme          (i.e. LREAL=.FALSE.)             |
|                                                                             |
 ----------------------------------------------------------------------------- 

 PAW_PBE C 08Apr2002                    :
 energy of atom  1       EATOM= -147.1560
 kinetic energy error for atom=    0.0016 (will be added to EATOM!!)
 
 
 POSCAR: C                                       
  positions in direct lattice
  No initial velocities read in
 exchange correlation table for  LEXCH =        8
   RHO(1)=    0.500       N(1)  =     2000
   RHO(2)=  100.500       N(2)  =     4000
 


--------------------------------------------------------------------------------------------------------


 ion  position               nearest neighbor table
   1  0.499  0.000  0.124-  19 1.42  18 1.42  20 1.43
   2  1.000  0.000  0.125-  17 1.42  20 1.42  19 1.42
   3  0.500  0.500  0.125-  20 1.42  17 1.42  18 1.42
   4  1.000  0.500  0.125-  19 1.42  18 1.42  17 1.42
   5  0.500  0.000  0.625-  22 1.42  23 1.42  24 1.42
   6  1.000  0.000  0.625-  21 1.42  24 1.42  23 1.42
   7  0.500  0.500  0.625-  24 1.42  21 1.42  22 1.42
   8  1.000  0.500  0.625-  23 1.42  22 1.42  21 1.42
   9  0.000  0.500  0.375-  27 1.42  26 1.42  28 1.42
  10  0.500  0.500  0.375-  28 1.42  25 1.42  27 1.42
  11  0.000  1.000  0.375-  25 1.42  28 1.42  26 1.42
  12  0.500  1.000  0.375-  26 1.42  27 1.42  25 1.42
  13  0.000  0.500  0.875-  31 1.42  30 1.42  32 1.42
  14  0.500  0.500  0.875-  32 1.42  29 1.42  31 1.42
  15  0.000  1.000  0.875-  29 1.42  32 1.42  30 1.42
  16  0.500  1.000  0.875-  30 1.42  31 1.42  29 1.42
  17  0.166  0.334  0.125-   2 1.42   3 1.42   4 1.42
  18  0.666  0.334  0.125-   4 1.42   1 1.42   3 1.42
  19  0.166  0.834  0.125-   1 1.42   4 1.42   2 1.42
  20  0.666  0.834  0.125-   3 1.42   2 1.42   1 1.43
  21  0.166  0.334  0.625-   6 1.42   7 1.42   8 1.42
  22  0.666  0.334  0.625-   5 1.42   8 1.42   7 1.42
  23  0.166  0.834  0.625-   8 1.42   5 1.42   6 1.42
  24  0.666  0.834  0.625-   7 1.42   6 1.42   5 1.42
  25  0.334  0.166  0.375-  11 1.42  10 1.42  12 1.42
  26  0.834  0.166  0.375-  12 1.42   9 1.42  11 1.42
  27  0.334  0.666  0.375-   9 1.42  12 1.42  10 1.42
  28  0.834  0.666  0.375-  10 1.42  11 1.42   9 1.42
  29  0.334  0.166  0.875-  15 1.42  14 1.42  16 1.42
  30  0.834  0.166  0.875-  16 1.42  13 1.42  15 1.42
  31  0.334  0.666  0.875-  13 1.42  16 1.42  14 1.42
  32  0.834  0.666  0.875-  14 1.42  15 1.42  13 1.42
 
  LATTYP: Found a base centered orthorhombic cell.
 ALAT       =     4.9295501972
 B/A-ratio  =     1.7336081796
 C/A-ratio  =     2.7982353283
  
  Lattice vectors:
  
 A1 = (   4.9328744980,  -0.0019192860,   0.0000000000)
 A2 = (  -2.4680993993,   4.2710349859,   0.0000000000)
 A3 = (   0.0000000000,   0.0000000000,  13.7940415145)


Analysis of symmetry for initial positions (statically):
=====================================================================
 Subroutine PRICEL returns:
 Original cell was already a primitive cell.
 

 Routine SETGRP: Setting up the symmetry group for a 
 base centered orthorhombic supercell.


 Subroutine GETGRP returns: Found  1 space group operations
 (whereof  1 operations were pure point group operations)
 out of a pool of  8 trial point group operations.


The static configuration has the point symmetry C_1 .


Analysis of symmetry for dynamics (positions and initial velocities):
=====================================================================
 Subroutine PRICEL returns:
 Original cell was already a primitive cell.
 

 Routine SETGRP: Setting up the symmetry group for a 
 base centered orthorhombic supercell.


 Subroutine GETGRP returns: Found  1 space group operations
 (whereof  1 operations were pure point group operations)
 out of a pool of  8 trial point group operations.


The dynamic configuration has the point symmetry C_1 .
 
 
 KPOINTS: B4C B11C-CBC                            

Automatic generation of k-mesh.
Space group operators:
 irot       det(A)        alpha          n_x          n_y          n_z        tau_x        tau_y        tau_z
    1     1.000000     0.000000     1.000000     0.000000     0.000000     0.000000     0.000000     0.000000
 
 Subroutine IBZKPT returns following result:
 ===========================================
 
 Found     76 irreducible k-points:
 
 Following reciprocal coordinates:
            Coordinates               Weight
  0.000000  0.000000  0.000000      1.000000
  0.166667  0.000000  0.000000      2.000000
  0.333333  0.000000  0.000000      2.000000
  0.500000  0.000000  0.000000      1.000000
  0.000000  0.166667  0.000000      2.000000
  0.166667  0.166667  0.000000      2.000000
  0.333333  0.166667  0.000000      2.000000
  0.500000  0.166667  0.000000      2.000000
 -0.333333  0.166667  0.000000      2.000000
 -0.166667  0.166667  0.000000      2.000000
  0.000000  0.333333  0.000000      2.000000
  0.166667  0.333333  0.000000      2.000000
  0.333333  0.333333  0.000000      2.000000
  0.500000  0.333333  0.000000      2.000000
 -0.333333  0.333333  0.000000      2.000000
 -0.166667  0.333333  0.000000      2.000000
 -0.000000  0.500000  0.000000      1.000000
  0.166667  0.500000  0.000000      2.000000
  0.333333  0.500000  0.000000      2.000000
  0.500000  0.500000  0.000000      1.000000
  0.000000  0.000000  0.250000      2.000000
  0.166667  0.000000  0.250000      2.000000
  0.333333  0.000000  0.250000      2.000000
  0.500000  0.000000  0.250000      2.000000
 -0.333333  0.000000  0.250000      2.000000
 -0.166667  0.000000  0.250000      2.000000
  0.000000  0.166667  0.250000      2.000000
  0.166667  0.166667  0.250000      2.000000
  0.333333  0.166667  0.250000      2.000000
  0.500000  0.166667  0.250000      2.000000
 -0.333333  0.166667  0.250000      2.000000
 -0.166667  0.166667  0.250000      2.000000
  0.000000  0.333333  0.250000      2.000000
  0.166667  0.333333  0.250000      2.000000
  0.333333  0.333333  0.250000      2.000000
  0.500000  0.333333  0.250000      2.000000
 -0.333333  0.333333  0.250000      2.000000
 -0.166667  0.333333  0.250000      2.000000
 -0.000000  0.500000  0.250000      2.000000
  0.166667  0.500000  0.250000      2.000000
  0.333333  0.500000  0.250000      2.000000
  0.500000  0.500000  0.250000      2.000000
 -0.333333  0.500000  0.250000      2.000000
 -0.166667  0.500000  0.250000      2.000000
 -0.000000 -0.333333  0.250000      2.000000
  0.166667 -0.333333  0.250000      2.000000
  0.333333 -0.333333  0.250000      2.000000
  0.500000 -0.333333  0.250000      2.000000
 -0.333333 -0.333333  0.250000      2.000000
 -0.166667 -0.333333  0.250000      2.000000
  0.000000 -0.166667  0.250000      2.000000
  0.166667 -0.166667  0.250000      2.000000
  0.333333 -0.166667  0.250000      2.000000
  0.500000 -0.166667  0.250000      2.000000
 -0.333333 -0.166667  0.250000      2.000000
 -0.166667 -0.166667  0.250000      2.000000
  0.000000  0.000000  0.500000      1.000000
  0.166667  0.000000  0.500000      2.000000
  0.333333  0.000000  0.500000      2.000000
  0.500000  0.000000  0.500000      1.000000
  0.000000  0.166667  0.500000      2.000000
  0.166667  0.166667  0.500000      2.000000
  0.333333  0.166667  0.500000      2.000000
  0.500000  0.166667  0.500000      2.000000
 -0.333333  0.166667  0.500000      2.000000
 -0.166667  0.166667  0.500000      2.000000
  0.000000  0.333333  0.500000      2.000000
  0.166667  0.333333  0.500000      2.000000
  0.333333  0.333333  0.500000      2.000000
  0.500000  0.333333  0.500000      2.000000
 -0.333333  0.333333  0.500000      2.000000
 -0.166667  0.333333  0.500000      2.000000
 -0.000000  0.500000  0.500000      1.000000
  0.166667  0.500000  0.500000      2.000000
  0.333333  0.500000  0.500000      2.000000
  0.500000  0.500000  0.500000      1.000000
 
 Following cartesian coordinates:
            Coordinates               Weight
  0.000000  0.000000  0.000000      1.000000
  0.033795  0.019529  0.000000      2.000000
  0.067589  0.039058  0.000000      2.000000
  0.101384  0.058586  0.000000      1.000000
  0.000015  0.039031  0.000000      2.000000
  0.033810  0.058560  0.000000      2.000000
  0.067604  0.078089  0.000000      2.000000
  0.101399  0.097618  0.000000      2.000000
 -0.067574 -0.000026  0.000000      2.000000
 -0.033779  0.019503  0.000000      2.000000
  0.000030  0.078063  0.000000      2.000000
  0.033825  0.097591  0.000000      2.000000
  0.067619  0.117120  0.000000      2.000000
  0.101414  0.136649  0.000000      2.000000
 -0.067559  0.039005  0.000000      2.000000
 -0.033764  0.058534  0.000000      2.000000
  0.000046  0.117094  0.000000      1.000000
  0.033840  0.136623  0.000000      2.000000
  0.067635  0.156152  0.000000      2.000000
  0.101429  0.175680  0.000000      1.000000
  0.000000  0.000000  0.018124      2.000000
  0.033795  0.019529  0.018124      2.000000
  0.067589  0.039058  0.018124      2.000000
  0.101384  0.058586  0.018124      2.000000
 -0.067589 -0.039058  0.018124      2.000000
 -0.033795 -0.019529  0.018124      2.000000
  0.000015  0.039031  0.018124      2.000000
  0.033810  0.058560  0.018124      2.000000
  0.067604  0.078089  0.018124      2.000000
  0.101399  0.097618  0.018124      2.000000
 -0.067574 -0.000026  0.018124      2.000000
 -0.033779  0.019503  0.018124      2.000000
  0.000030  0.078063  0.018124      2.000000
  0.033825  0.097591  0.018124      2.000000
  0.067619  0.117120  0.018124      2.000000
  0.101414  0.136649  0.018124      2.000000
 -0.067559  0.039005  0.018124      2.000000
 -0.033764  0.058534  0.018124      2.000000
  0.000046  0.117094  0.018124      2.000000
  0.033840  0.136623  0.018124      2.000000
  0.067635  0.156152  0.018124      2.000000
  0.101429  0.175680  0.018124      2.000000
 -0.067543  0.078036  0.018124      2.000000
 -0.033749  0.097565  0.018124      2.000000
 -0.000030 -0.078063  0.018124      2.000000
  0.033764 -0.058534  0.018124      2.000000
  0.067559 -0.039005  0.018124      2.000000
  0.101353 -0.019476  0.018124      2.000000
 -0.067619 -0.117120  0.018124      2.000000
 -0.033825 -0.097591  0.018124      2.000000
 -0.000015 -0.039031  0.018124      2.000000
  0.033779 -0.019503  0.018124      2.000000
  0.067574  0.000026  0.018124      2.000000
  0.101368  0.019555  0.018124      2.000000
 -0.067604 -0.078089  0.018124      2.000000
 -0.033810 -0.058560  0.018124      2.000000
  0.000000  0.000000  0.036248      1.000000
  0.033795  0.019529  0.036248      2.000000
  0.067589  0.039058  0.036248      2.000000
  0.101384  0.058586  0.036248      1.000000
  0.000015  0.039031  0.036248      2.000000
  0.033810  0.058560  0.036248      2.000000
  0.067604  0.078089  0.036248      2.000000
  0.101399  0.097618  0.036248      2.000000
 -0.067574 -0.000026  0.036248      2.000000
 -0.033779  0.019503  0.036248      2.000000
  0.000030  0.078063  0.036248      2.000000
  0.033825  0.097591  0.036248      2.000000
  0.067619  0.117120  0.036248      2.000000
  0.101414  0.136649  0.036248      2.000000
 -0.067559  0.039005  0.036248      2.000000
 -0.033764  0.058534  0.036248      2.000000
  0.000046  0.117094  0.036248      1.000000
  0.033840  0.136623  0.036248      2.000000
  0.067635  0.156152  0.036248      2.000000
  0.101429  0.175680  0.036248      1.000000
 
 TETIRR: Found    432 inequivalent tetrahedra from      864


--------------------------------------------------------------------------------------------------------




 Dimension of arrays:
   k-points           NKPTS =     76   k-points in BZ     NKDIM =     76   number of bands    NBANDS=     84
   number of dos      NEDOS =    301   number of ions     NIONS =     32
   non local maximal  LDIM  =      4   non local SUM 2l+1 LMDIM =      8
   total plane-waves  NPLWV = 294912
   max r-space proj   IRMAX =      1   max aug-charges    IRDMAX=  12176
   dimension x,y,z NGX =    48 NGY =   48 NGZ =  128
   dimension x,y,z NGXF=    96 NGYF=   96 NGZF=  256
   support grid    NGXF=    96 NGYF=   96 NGZF=  256
   ions per type =              32
 NGX,Y,Z   is equivalent  to a cutoff of  16.18, 16.18, 15.43 a.u.
 NGXF,Y,Z  is equivalent  to a cutoff of  32.35, 32.35, 30.85 a.u.


 I would recommend the setting:
   dimension x,y,z NGX =    46 NGY =   46 NGZ =  127
 SYSTEM =  graphite                                
 POSCAR =  C                                       

 Startparameter for this run:
   NWRITE =      2    write-flag & timer
   PREC   = accura    normal or accurate (medium, high low for compatibility)
   ISTART =      0    job   : 0-new  1-cont  2-samecut
   ICHARG =      2    charge: 1-file 2-atom 10-const
   ISPIN  =      1    spin polarized calculation?
   LNONCOLLINEAR =      F non collinear calculations
   LSORBIT =      F    spin-orbit coupling
   INIWAV =      1    electr: 0-lowe 1-rand  2-diag
   LASPH  =      F    aspherical Exc in radial PAW
   METAGGA=      F    non-selfconsistent MetaGGA calc.

 Electronic Relaxation 1
   ENCUT  =  800.0 eV  58.80 Ry    7.67 a.u.  11.38 11.38 31.81*2*pi/ulx,y,z
   ENINI  =  800.0     initial cutoff
   ENAUG  =  644.9 eV  augmentation charge cutoff
   NELM   =    200;   NELMIN=  2; NELMDL=  0     # of ELM steps 
   EDIFF  = 0.1E-07   stopping-criterion for ELM
   LREAL  =      F    real-space projection
   NLSPLINE    = F    spline interpolate recip. space projectors
   LCOMPAT=      F    compatible to vasp.4.4
   GGA_COMPAT  = T    GGA compatible to vasp.4.4-vasp.4.6
   LMAXPAW     = -100 max onsite density
   LMAXMIX     =    2 max onsite mixed and CHGCAR
   VOSKOWN=      0    Vosko Wilk Nusair interpolation
   ROPT   =    0.00000
 Ionic relaxation
   EDIFFG = 0.1E-02   stopping-criterion for IOM
   NSW    =      0    number of steps for IOM
   NBLOCK =      1;   KBLOCK =      1    inner block; outer block 
   IBRION =     -1    ionic relax: 0-MD 1-quasi-New 2-CG
   NFREE  =      0    steps in history (QN), initial steepest desc. (CG)
   ISIF   =      2    stress and relaxation
   IWAVPR =     10    prediction:  0-non 1-charg 2-wave 3-comb
   ISYM   =      2    0-nonsym 1-usesym 2-fastsym
   LCORR  =      T    Harris-Foulkes like correction to forces

   POTIM  = 0.5000    time-step for ionic-motion
   TEIN   =    0.0    initial temperature
   TEBEG  =    0.0;   TEEND  =   0.0 temperature during run
   SMASS  =  -3.00    Nose mass-parameter (am)
   estimated Nose-frequenzy (Omega)   =  0.10E-29 period in steps =****** mass=  -0.556E-27a.u.
   SCALEE = 1.0000    scale energy and forces
   NPACO  =    256;   APACO  = 16.0  distance and # of slots for P.C.
   PSTRESS=    0.0 pullay stress

  Mass of Ions in am
   POMASS =  12.01
  Ionic Valenz
   ZVAL   =   4.00
  Atomic Wigner-Seitz radii
   RWIGS  =  -1.00
  virtual crystal weights 
   VCA    =   1.00
   NELECT =     128.0000    total number of electrons
   NUPDOWN=      -1.0000    fix difference up-down

 DOS related values:
   EMIN   =  10.00;   EMAX   =-10.00  energy-range for DOS
   EFERMI =   0.00
   ISMEAR =    -5;   SIGMA  =   0.20  broadening in eV -4-tet -1-fermi 0-gaus

 Electronic relaxation 2 (details)
   IALGO  =     38    algorithm
   LDIAG  =      T    sub-space diagonalisation (order eigenvalues)
   LSUBROT=      F    optimize rotation matrix (better conditioning)
   TURBO    =      0    0=normal 1=particle mesh
   IRESTART =      0    0=no restart 2=restart with 2 vectors
   NREBOOT  =      0    no. of reboots
   NMIN     =      0    reboot dimension
   EREF     =   0.00    reference energy to select bands
   IMIX   =      4    mixing-type and parameters
     AMIX     =   0.40;   BMIX     =  1.00
     AMIX_MAG =   1.60;   BMIX_MAG =  1.00
     AMIN     =   0.10
     WC   =   100.;   INIMIX=   1;  MIXPRE=   1;  MAXMIX= -45

 Intra band minimization:
   WEIMIN = 0.0000     energy-eigenvalue tresh-hold
   EBREAK =  0.30E-10  absolut break condition
   DEPER  =   0.30     relativ break condition  

   TIME   =   0.40     timestep for ELM

  volume/ion in A,a.u.               =       9.08        61.27
  Fermi-wavevector in a.u.,A,eV,Ry     =   1.245668  2.353972 21.112023  1.551690
  Thomas-Fermi vector in A             =   2.379880
 
 Write flags
   LWAVE  =      F    write WAVECAR
   LCHARG =      F    write CHGCAR
   LVTOT  =      F    write LOCPOT, total local potential
   LVHAR  =      F    write LOCPOT, Hartree potential only
   LELF   =      F    write electronic localiz. function (ELF)
   LORBIT =      0    0 simple, 1 ext, 2 COOP (PROOUT)


 Dipole corrections
   LMONO  =      F    monopole corrections only (constant potential shift)
   LDIPOL =      F    correct potential (dipole corrections)
   IDIPOL =      0    1-x, 2-y, 3-z, 4-all directions 
   EPSILON=  1.0000000 bulk dielectric constant

 Exchange correlation treatment:
   GGA     =    PE    GGA type
   LEXCH   =     8    internal setting for exchange type
   VOSKOWN=      0    Vosko Wilk Nusair interpolation
   LHFCALC =     F    Hartree Fock is set to
   LHFONE  =     F    Hartree Fock one center treatment
   AEXX    =    0.0000 exact exchange contribution

 Linear response parameters
   LEPSILON=     F    determine dielectric tensor
   LRPA    =     F    only Hartree local field effects (RPA)
   LNABLA  =     F    use nabla operator in PAW spheres
   LVEL    =     F    velocity operator in full k-point grid
   LINTERFAST=   F  fast interpolation
   KINTER  =     0    interpolate to denser k-point grid
   CSHIFT  =0.1000    complex shift for real part using Kramers Kronig
   OMEGAMAX=  -1.0    maximum frequency
   DEG_THRESHOLD= 0.2000000E-02 threshold for treating states as degnerate
   RTIME   =    0.100 relaxation time in fs

 Orbital magnetization related:
   ORBITALMAG=     F  switch on orbital magnetization
   LCHIMAG   =     F  perturbation theory with respect to B field
   DQ        =  0.001000  dq finite difference perturbation B field



--------------------------------------------------------------------------------------------------------


 Static calculation
 charge density and potential will be updated during run
 non-spin polarized calculation
 Variant of blocked Davidson
 Davidson routine will perform the subspace rotation
 perform sub-space diagonalisation
    after iterative eigenvector-optimisation
 modified Broyden-mixing scheme, WC =      100.0
 initial mixing is a Kerker type mixing with AMIX =  0.4000 and BMIX =      1.0000
 Hartree-type preconditioning will be used
 using additional bands           20
 reciprocal scheme for non local part
 calculate Harris-corrections to forces 
   (improved forces if not selfconsistent)
 use gradient corrections 
 use of overlap-Matrix (Vanderbilt PP)
 Fermi weights with tetrahedron method with Bloechl corrections


--------------------------------------------------------------------------------------------------------


  energy-cutoff  :      800.00
  volume of cell :      290.55
      direct lattice vectors                 reciprocal lattice vectors
     4.932874498 -0.001919286  0.000000000     0.202767147  0.117172881  0.000000000
    -2.468099399  4.271034986  0.000000000     0.000091118  0.234187941  0.000000000
     0.000000000  0.000000000 13.794041515     0.000000000  0.000000000  0.072495070

  length of vectors
     4.932874871  4.932874871 13.794041515     0.234187958  0.234187958  0.072495070


 
 k-points in units of 2pi/SCALE and weight: B4C B11C-CBC                            
   0.00000000  0.00000000  0.00000000       0.007
   0.03379452  0.01952881  0.00000000       0.014
   0.06758905  0.03905763  0.00000000       0.014
   0.10138357  0.05858644  0.00000000       0.007
   0.00001519  0.03903132  0.00000000       0.014
   0.03380971  0.05856014  0.00000000       0.014
   0.06760424  0.07808895  0.00000000       0.014
   0.10139876  0.09761776  0.00000000       0.014
  -0.06757386 -0.00002630  0.00000000       0.014
  -0.03377934  0.01950251  0.00000000       0.014
   0.00003037  0.07806265  0.00000000       0.014
   0.03382490  0.09759146  0.00000000       0.014
   0.06761942  0.11712027  0.00000000       0.014
   0.10141395  0.13664909  0.00000000       0.014
  -0.06755868  0.03900502  0.00000000       0.014
  -0.03376415  0.05853383  0.00000000       0.014
   0.00004556  0.11709397  0.00000000       0.007
   0.03384008  0.13662278  0.00000000       0.014
   0.06763461  0.15615160  0.00000000       0.014
   0.10142913  0.17568041  0.00000000       0.007
   0.00000000  0.00000000  0.01812377       0.014
   0.03379452  0.01952881  0.01812377       0.014
   0.06758905  0.03905763  0.01812377       0.014
   0.10138357  0.05858644  0.01812377       0.014
  -0.06758905 -0.03905763  0.01812377       0.014
  -0.03379452 -0.01952881  0.01812377       0.014
   0.00001519  0.03903132  0.01812377       0.014
   0.03380971  0.05856014  0.01812377       0.014
   0.06760424  0.07808895  0.01812377       0.014
   0.10139876  0.09761776  0.01812377       0.014
  -0.06757386 -0.00002630  0.01812377       0.014
  -0.03377934  0.01950251  0.01812377       0.014
   0.00003037  0.07806265  0.01812377       0.014
   0.03382490  0.09759146  0.01812377       0.014
   0.06761942  0.11712027  0.01812377       0.014
   0.10141395  0.13664909  0.01812377       0.014
  -0.06755868  0.03900502  0.01812377       0.014
  -0.03376415  0.05853383  0.01812377       0.014
   0.00004556  0.11709397  0.01812377       0.014
   0.03384008  0.13662278  0.01812377       0.014
   0.06763461  0.15615160  0.01812377       0.014
   0.10142913  0.17568041  0.01812377       0.014
  -0.06754349  0.07803634  0.01812377       0.014
  -0.03374897  0.09756516  0.01812377       0.014
  -0.00003037 -0.07806265  0.01812377       0.014
   0.03376415 -0.05853383  0.01812377       0.014
   0.06755868 -0.03900502  0.01812377       0.014
   0.10135320 -0.01947621  0.01812377       0.014
  -0.06761942 -0.11712027  0.01812377       0.014
  -0.03382490 -0.09759146  0.01812377       0.014
  -0.00001519 -0.03903132  0.01812377       0.014
   0.03377934 -0.01950251  0.01812377       0.014
   0.06757386  0.00002630  0.01812377       0.014
   0.10136839  0.01955512  0.01812377       0.014
  -0.06760424 -0.07808895  0.01812377       0.014
  -0.03380971 -0.05856014  0.01812377       0.014
   0.00000000  0.00000000  0.03624753       0.007
   0.03379452  0.01952881  0.03624753       0.014
   0.06758905  0.03905763  0.03624753       0.014
   0.10138357  0.05858644  0.03624753       0.007
   0.00001519  0.03903132  0.03624753       0.014
   0.03380971  0.05856014  0.03624753       0.014
   0.06760424  0.07808895  0.03624753       0.014
   0.10139876  0.09761776  0.03624753       0.014
  -0.06757386 -0.00002630  0.03624753       0.014
  -0.03377934  0.01950251  0.03624753       0.014
   0.00003037  0.07806265  0.03624753       0.014
   0.03382490  0.09759146  0.03624753       0.014
   0.06761942  0.11712027  0.03624753       0.014
   0.10141395  0.13664909  0.03624753       0.014
  -0.06755868  0.03900502  0.03624753       0.014
  -0.03376415  0.05853383  0.03624753       0.014
   0.00004556  0.11709397  0.03624753       0.007
   0.03384008  0.13662278  0.03624753       0.014
   0.06763461  0.15615160  0.03624753       0.014
   0.10142913  0.17568041  0.03624753       0.007
 
 k-points in reciprocal lattice and weights: B4C B11C-CBC                            
   0.00000000  0.00000000  0.00000000       0.007
   0.16666667  0.00000000  0.00000000       0.014
   0.33333333  0.00000000  0.00000000       0.014
   0.50000000  0.00000000  0.00000000       0.007
   0.00000000  0.16666667  0.00000000       0.014
   0.16666667  0.16666667  0.00000000       0.014
   0.33333333  0.16666667  0.00000000       0.014
   0.50000000  0.16666667  0.00000000       0.014
  -0.33333333  0.16666667  0.00000000       0.014
  -0.16666667  0.16666667  0.00000000       0.014
   0.00000000  0.33333333  0.00000000       0.014
   0.16666667  0.33333333  0.00000000       0.014
   0.33333333  0.33333333  0.00000000       0.014
   0.50000000  0.33333333  0.00000000       0.014
  -0.33333333  0.33333333  0.00000000       0.014
  -0.16666667  0.33333333  0.00000000       0.014
  -0.00000000  0.50000000  0.00000000       0.007
   0.16666667  0.50000000  0.00000000       0.014
   0.33333333  0.50000000  0.00000000       0.014
   0.50000000  0.50000000  0.00000000       0.007
   0.00000000  0.00000000  0.25000000       0.014
   0.16666667  0.00000000  0.25000000       0.014
   0.33333333  0.00000000  0.25000000       0.014
   0.50000000  0.00000000  0.25000000       0.014
  -0.33333333  0.00000000  0.25000000       0.014
  -0.16666667  0.00000000  0.25000000       0.014
   0.00000000  0.16666667  0.25000000       0.014
   0.16666667  0.16666667  0.25000000       0.014
   0.33333333  0.16666667  0.25000000       0.014
   0.50000000  0.16666667  0.25000000       0.014
  -0.33333333  0.16666667  0.25000000       0.014
  -0.16666667  0.16666667  0.25000000       0.014
   0.00000000  0.33333333  0.25000000       0.014
   0.16666667  0.33333333  0.25000000       0.014
   0.33333333  0.33333333  0.25000000       0.014
   0.50000000  0.33333333  0.25000000       0.014
  -0.33333333  0.33333333  0.25000000       0.014
  -0.16666667  0.33333333  0.25000000       0.014
  -0.00000000  0.50000000  0.25000000       0.014
   0.16666667  0.50000000  0.25000000       0.014
   0.33333333  0.50000000  0.25000000       0.014
   0.50000000  0.50000000  0.25000000       0.014
  -0.33333333  0.50000000  0.25000000       0.014
  -0.16666667  0.50000000  0.25000000       0.014
  -0.00000000 -0.33333333  0.25000000       0.014
   0.16666667 -0.33333333  0.25000000       0.014
   0.33333333 -0.33333333  0.25000000       0.014
   0.50000000 -0.33333333  0.25000000       0.014
  -0.33333333 -0.33333333  0.25000000       0.014
  -0.16666667 -0.33333333  0.25000000       0.014
   0.00000000 -0.16666667  0.25000000       0.014
   0.16666667 -0.16666667  0.25000000       0.014
   0.33333333 -0.16666667  0.25000000       0.014
   0.50000000 -0.16666667  0.25000000       0.014
  -0.33333333 -0.16666667  0.25000000       0.014
  -0.16666667 -0.16666667  0.25000000       0.014
   0.00000000  0.00000000  0.50000000       0.007
   0.16666667  0.00000000  0.50000000       0.014
   0.33333333  0.00000000  0.50000000       0.014
   0.50000000  0.00000000  0.50000000       0.007
   0.00000000  0.16666667  0.50000000       0.014
   0.16666667  0.16666667  0.50000000       0.014
   0.33333333  0.16666667  0.50000000       0.014
   0.50000000  0.16666667  0.50000000       0.014
  -0.33333333  0.16666667  0.50000000       0.014
  -0.16666667  0.16666667  0.50000000       0.014
   0.00000000  0.33333333  0.50000000       0.014
   0.16666667  0.33333333  0.50000000       0.014
   0.33333333  0.33333333  0.50000000       0.014
   0.50000000  0.33333333  0.50000000       0.014
  -0.33333333  0.33333333  0.50000000       0.014
  -0.16666667  0.33333333  0.50000000       0.014
  -0.00000000  0.50000000  0.50000000       0.007
   0.16666667  0.50000000  0.50000000       0.014
   0.33333333  0.50000000  0.50000000       0.014
   0.50000000  0.50000000  0.50000000       0.007
 
 position of ions in fractional coordinates (direct lattice) 
   0.49899069  0.00032672  0.12431738
   0.99967330  0.00032672  0.12500000
   0.49967330  0.50032672  0.12500000
   0.99967330  0.50032672  0.12500000
   0.49967330  0.00032672  0.62500000
   0.99967330  0.00032672  0.62500000
   0.49967330  0.50032672  0.62500000
   0.99967330  0.50032672  0.62500000
   0.00032672  0.49967330  0.37500000
   0.50032672  0.49967330  0.37500000
   0.00032672  0.99967330  0.37500000
   0.50032672  0.99967330  0.37500000
   0.00032672  0.49967330  0.87500000
   0.50032672  0.49967330  0.87500000
   0.00032672  0.99967330  0.87500000
   0.50032672  0.99967330  0.87500000
   0.16629246  0.33370753  0.12500000
   0.66629246  0.33370753  0.12500000
   0.16629246  0.83370753  0.12500000
   0.66629246  0.83370753  0.12500000
   0.16629246  0.33370753  0.62500000
   0.66629246  0.33370753  0.62500000
   0.16629246  0.83370753  0.62500000
   0.66629246  0.83370753  0.62500000
   0.33370753  0.16629246  0.37500000
   0.83370753  0.16629246  0.37500000
   0.33370753  0.66629246  0.37500000
   0.83370753  0.66629246  0.37500000
   0.33370753  0.16629246  0.87500000
   0.83370753  0.16629246  0.87500000
   0.33370753  0.66629246  0.87500000
   0.83370753  0.66629246  0.87500000
 
 position of ions in cartesian coordinates  (Angst):
   2.46065207  0.00043772  1.71483916
   4.93045658 -0.00052323  1.72425519
   1.22996963  2.13595390  1.72425519
   3.69640688  2.13499426  1.72425519
   2.46401933  0.00043641  8.62127595
   4.93045658 -0.00052323  8.62127595
   1.22996963  2.13595390  8.62127595
   3.69640688  2.13499426  8.62127595
  -1.23163172  2.13412154  5.17276557
   1.23480553  2.13316189  5.17276557
  -2.46568142  4.26963903  5.17276557
   0.00075583  4.26867939  5.17276557
  -1.23163172  2.13412154 12.06978633
   1.23480553  2.13316189 12.06978633
  -2.46568142  4.26963903 12.06978633
   0.00075583  4.26867939 12.06978633
  -0.00332350  1.42495737  1.72425519
   2.46311374  1.42399773  1.72425519
  -1.23737320  3.56047486  1.72425519
   1.22906405  3.55951522  1.72425519
  -0.00332350  1.42495737  8.62127595
   2.46311374  1.42399773  8.62127595
  -1.23737320  3.56047486  8.62127595
   1.22906405  3.55951522  8.62127595
   1.23571103  0.70960044  5.17276557
   3.70214828  0.70864080  5.17276557
   0.00166133  2.84511794  5.17276557
   2.46809858  2.84415829  5.17276557
   1.23571103  0.70960044 12.06978633
   3.70214828  0.70864080 12.06978633
   0.00166133  2.84511794 12.06978633
   2.46809858  2.84415829 12.06978633
 


--------------------------------------------------------------------------------------------------------


 k-point  1 :   0.0000 0.0000 0.0000  plane waves:   14911
 k-point  2 :   0.1667 0.0000 0.0000  plane waves:   14960
 k-point  3 :   0.3333 0.0000 0.0000  plane waves:   14932
 k-point  4 :   0.5000 0.0000 0.0000  plane waves:   14928
 k-point  5 :   0.0000 0.1667 0.0000  plane waves:   14960
 k-point  6 :   0.1667 0.1667 0.0000  plane waves:   14935
 k-point  7 :   0.3333 0.1667 0.0000  plane waves:   14925
 k-point  8 :   0.5000 0.1667 0.0000  plane waves:   14925
 k-point  9 :  -0.3333 0.1667 0.0000  plane waves:   14933
 k-point 10 :  -0.1667 0.1667 0.0000  plane waves:   14950
 k-point 11 :   0.0000 0.3333 0.0000  plane waves:   14932
 k-point 12 :   0.1667 0.3333 0.0000  plane waves:   14925
 k-point 13 :   0.3333 0.3333 0.0000  plane waves:   14946
 k-point 14 :   0.5000 0.3333 0.0000  plane waves:   14917
 k-point 15 :  -0.3333 0.3333 0.0000  plane waves:   14922
 k-point 16 :  -0.1667 0.3333 0.0000  plane waves:   14933
 k-point 17 :  -0.0000 0.5000 0.0000  plane waves:   14928
 k-point 18 :   0.1667 0.5000 0.0000  plane waves:   14925
 k-point 19 :   0.3333 0.5000 0.0000  plane waves:   14917
 k-point 20 :   0.5000 0.5000 0.0000  plane waves:   14924
 k-point 21 :   0.0000 0.0000 0.2500  plane waves:   14926
 k-point 22 :   0.1667 0.0000 0.2500  plane waves:   14958
 k-point 23 :   0.3333 0.0000 0.2500  plane waves:   14923
 k-point 24 :   0.5000 0.0000 0.2500  plane waves:   14938
 k-point 25 :  -0.3333 0.0000 0.2500  plane waves:   14923
 k-point 26 :  -0.1667 0.0000 0.2500  plane waves:   14958
 k-point 27 :   0.0000 0.1667 0.2500  plane waves:   14958
 k-point 28 :   0.1667 0.1667 0.2500  plane waves:   14940
 k-point 29 :   0.3333 0.1667 0.2500  plane waves:   14907
 k-point 30 :   0.5000 0.1667 0.2500  plane waves:   14902
 k-point 31 :  -0.3333 0.1667 0.2500  plane waves:   14941
 k-point 32 :  -0.1667 0.1667 0.2500  plane waves:   14967
 k-point 33 :   0.0000 0.3333 0.2500  plane waves:   14923
 k-point 34 :   0.1667 0.3333 0.2500  plane waves:   14907
 k-point 35 :   0.3333 0.3333 0.2500  plane waves:   14919
 k-point 36 :   0.5000 0.3333 0.2500  plane waves:   14904
 k-point 37 :  -0.3333 0.3333 0.2500  plane waves:   14927
 k-point 38 :  -0.1667 0.3333 0.2500  plane waves:   14941
 k-point 39 :  -0.0000 0.5000 0.2500  plane waves:   14938
 k-point 40 :   0.1667 0.5000 0.2500  plane waves:   14902
 k-point 41 :   0.3333 0.5000 0.2500  plane waves:   14904
 k-point 42 :   0.5000 0.5000 0.2500  plane waves:   14936
 k-point 43 :  -0.3333 0.5000 0.2500  plane waves:   14904
 k-point 44 :  -0.1667 0.5000 0.2500  plane waves:   14902
 k-point 45 :  -0.0000-0.3333 0.2500  plane waves:   14923
 k-point 46 :   0.1667-0.3333 0.2500  plane waves:   14941
 k-point 47 :   0.3333-0.3333 0.2500  plane waves:   14927
 k-point 48 :   0.5000-0.3333 0.2500  plane waves:   14904
 k-point 49 :  -0.3333-0.3333 0.2500  plane waves:   14919
 k-point 50 :  -0.1667-0.3333 0.2500  plane waves:   14907
 k-point 51 :   0.0000-0.1667 0.2500  plane waves:   14958
 k-point 52 :   0.1667-0.1667 0.2500  plane waves:   14967
 k-point 53 :   0.3333-0.1667 0.2500  plane waves:   14941
 k-point 54 :   0.5000-0.1667 0.2500  plane waves:   14902
 k-point 55 :  -0.3333-0.1667 0.2500  plane waves:   14907
 k-point 56 :  -0.1667-0.1667 0.2500  plane waves:   14940
 k-point 57 :   0.0000 0.0000 0.5000  plane waves:   14984
 k-point 58 :   0.1667 0.0000 0.5000  plane waves:   14962
 k-point 59 :   0.3333 0.0000 0.5000  plane waves:   14926
 k-point 60 :   0.5000 0.0000 0.5000  plane waves:   14932
 k-point 61 :   0.0000 0.1667 0.5000  plane waves:   14962
 k-point 62 :   0.1667 0.1667 0.5000  plane waves:   14940
 k-point 63 :   0.3333 0.1667 0.5000  plane waves:   14916
 k-point 64 :   0.5000 0.1667 0.5000  plane waves:   14914
 k-point 65 :  -0.3333 0.1667 0.5000  plane waves:   14942
 k-point 66 :  -0.1667 0.1667 0.5000  plane waves:   14972
 k-point 67 :   0.0000 0.3333 0.5000  plane waves:   14926
 k-point 68 :   0.1667 0.3333 0.5000  plane waves:   14916
 k-point 69 :   0.3333 0.3333 0.5000  plane waves:   14886
 k-point 70 :   0.5000 0.3333 0.5000  plane waves:   14912
 k-point 71 :  -0.3333 0.3333 0.5000  plane waves:   14934
 k-point 72 :  -0.1667 0.3333 0.5000  plane waves:   14942
 k-point 73 :  -0.0000 0.5000 0.5000  plane waves:   14932
 k-point 74 :   0.1667 0.5000 0.5000  plane waves:   14914
 k-point 75 :   0.3333 0.5000 0.5000  plane waves:   14912
 k-point 76 :   0.5000 0.5000 0.5000  plane waves:   14932

 maximum and minimum number of plane-waves per node :     14984    14886

 maximum number of plane-waves:     14984
 maximum index in each direction: 
   IXMAX=   11   IYMAX=   11   IZMAX=   31
   IXMIN=  -11   IYMIN=  -11   IZMIN=  -32

 NGX is ok and might be reduce to  46
 NGY is ok and might be reduce to  46
 NGZ is ok and might be reduce to 128

 serial   3D FFT for wavefunctions
 parallel 3D FFT for charge:
    minimum data exchange during FFTs selected (reduces bandwidth)


 total amount of memory used by VASP on root node   415501. kBytes
========================================================================

   base      :      30000. kBytes
   nonl-proj :      80575. kBytes
   fftplans  :      14475. kBytes
   grid      :      30806. kBytes
   one-center:         98. kBytes
   wavefun   :     259547. kBytes
 
     INWAV:  cpu time    0.00: real time    0.00
 Broyden mixing: mesh for mixing (old mesh)
   NGX = 23   NGY = 23   NGZ = 63
  (NGX  = 96   NGY  = 96   NGZ  =256)
  gives a total of  33327 points

 initial charge density was supplied:
 charge density of overlapping atoms calculated
 number of electron     128.0000000 magnetization 
 keeping initial charge density in first step


--------------------------------------------------------------------------------------------------------


 Maximum index for augmentation-charges         1965 (set IRDMAX)


--------------------------------------------------------------------------------------------------------


 First call to EWALD:  gamma=   0.268
 Maximum number of real-space cells 4x 4x 2
 Maximum number of reciprocal cells 2x 2x 5

 FEWALD executed in parallel
    FEWALD:  cpu time    0.02: real time    0.04


----------------------------------------- Iteration    1(   1)  ---------------------------------------


    POTLOK:  cpu time    1.30: real time    2.60
    SETDIJ:  cpu time    0.10: real time    0.21
     EDDAV:  cpu time  418.33: real time  837.12
 BZINTS: Fermi energy: 16.992754;128.000000 electrons
         Band energy: 142.480523;  BLOECHL correction: -0.144480
       DOS:  cpu time    0.10: real time    0.18
    --------------------------------------------
      LOOP:  cpu time  419.83: real time  840.13

 eigenvalue-minimisations  : 12768
 total energy-change (2. order) : 0.7175881E+03  (-0.8362882E+04)
 number of electron     128.0000000 magnetization 
 augmentation part      128.0000000 magnetization 

 Free energy of the ion-electron system (eV)
  ---------------------------------------------------
  alpha Z        PSCENC =       287.16055492
  Ewald energy   TEWEN  =     -3548.47811035
  -Hartree energ DENC   =     -1278.44645854
  -exchange      EXHF   =         0.00000000
  -V(xc)+E(xc)   XCENC  =       442.74542010
  PAW double counting   =      1210.60617908    -1247.42152856
  entropy T*S    EENTRO =         0.00000000
  eigenvalues    EBANDS =       142.48052257
  atomic energy  EATOM  =      4708.94155045
  ---------------------------------------------------
  free energy    TOTEN  =       717.58812968 eV

  energy without entropy =      717.58812968  energy(sigma->0) =      717.58812968


--------------------------------------------------------------------------------------------------------




----------------------------------------- Iteration    1(   2)  ---------------------------------------


     EDDAV:  cpu time  467.30: real time  935.03
 BZINTS: Fermi energy:  3.621985;128.000000 electrons
         Band energy:-828.430859;  BLOECHL correction: -0.000653
       DOS:  cpu time    0.06: real time    0.13
    --------------------------------------------
      LOOP:  cpu time  467.38: real time  935.22

 eigenvalue-minimisations  : 15960
 total energy-change (2. order) :-0.9709114E+03  (-0.9350844E+03)
 number of electron     128.0000000 magnetization 
 augmentation part      128.0000000 magnetization 

 Free energy of the ion-electron system (eV)
  ---------------------------------------------------
  alpha Z        PSCENC =       287.16055492
  Ewald energy   TEWEN  =     -3548.47811035
  -Hartree energ DENC   =     -1278.44645854
  -exchange      EXHF   =         0.00000000
  -V(xc)+E(xc)   XCENC  =       442.74542010
  PAW double counting   =      1210.60617908    -1247.42152856
  entropy T*S    EENTRO =         0.00000000
  eigenvalues    EBANDS =      -828.43085948
  atomic energy  EATOM  =      4708.94155045
  ---------------------------------------------------
  free energy    TOTEN  =      -253.32325237 eV

  energy without entropy =     -253.32325237  energy(sigma->0) =     -253.32325237


--------------------------------------------------------------------------------------------------------




----------------------------------------- Iteration    1(   3)  ---------------------------------------


     EDDAV:  cpu time  461.32: real time  923.08
 BZINTS: Fermi energy:  2.895587;128.000000 electrons
         Band energy:-887.988967;  BLOECHL correction: -0.000002
       DOS:  cpu time    0.06: real time    0.12
    --------------------------------------------
      LOOP:  cpu time  461.38: real time  923.23

 eigenvalue-minimisations  : 15564
 total energy-change (2. order) :-0.5955811E+02  (-0.5896696E+02)
 number of electron     128.0000000 magnetization 
 augmentation part      128.0000000 magnetization 

 Free energy of the ion-electron system (eV)
  ---------------------------------------------------
  alpha Z        PSCENC =       287.16055492
  Ewald energy   TEWEN  =     -3548.47811035
  -Hartree energ DENC   =     -1278.44645854
  -exchange      EXHF   =         0.00000000
  -V(xc)+E(xc)   XCENC  =       442.74542010
  PAW double counting   =      1210.60617908    -1247.42152856
  entropy T*S    EENTRO =         0.00000000
  eigenvalues    EBANDS =      -887.98896664
  atomic energy  EATOM  =      4708.94155045
  ---------------------------------------------------
  free energy    TOTEN  =      -312.88135953 eV

  energy without entropy =     -312.88135953  energy(sigma->0) =     -312.88135953


--------------------------------------------------------------------------------------------------------




----------------------------------------- Iteration    1(   4)  ---------------------------------------


     EDDAV:  cpu time  481.63: real time  963.75
 BZINTS: Fermi energy:  2.887271;128.000000 electrons
         Band energy:-889.174304;  BLOECHL correction:  0.000000
       DOS:  cpu time    0.05: real time    0.10
    --------------------------------------------
      LOOP:  cpu time  481.70: real time  963.90

 eigenvalue-minimisations  : 16116
 total energy-change (2. order) :-0.1185338E+01  (-0.1182945E+01)
 number of electron     128.0000000 magnetization 
 augmentation part      128.0000000 magnetization 

 Free energy of the ion-electron system (eV)
  ---------------------------------------------------
  alpha Z        PSCENC =       287.16055492
  Ewald energy   TEWEN  =     -3548.47811035
  -Hartree energ DENC   =     -1278.44645854
  -exchange      EXHF   =         0.00000000
  -V(xc)+E(xc)   XCENC  =       442.74542010
  PAW double counting   =      1210.60617908    -1247.42152856
  entropy T*S    EENTRO =         0.00000000
  eigenvalues    EBANDS =      -889.17430437
  atomic energy  EATOM  =      4708.94155045
  ---------------------------------------------------
  free energy    TOTEN  =      -314.06669726 eV

  energy without entropy =     -314.06669726  energy(sigma->0) =     -314.06669726


--------------------------------------------------------------------------------------------------------




----------------------------------------- Iteration    1(   5)  ---------------------------------------


     EDDAV:  cpu time  486.22: real time  972.93
 BZINTS: Fermi energy:  2.886915;128.000000 electrons
         Band energy:-889.209972;  BLOECHL correction:  0.000000
       DOS:  cpu time    0.04: real time    0.08
    CHARGE:  cpu time    5.53: real time   11.06
    MIXING:  cpu time    0.10: real time    0.21
    --------------------------------------------
      LOOP:  cpu time  491.90: real time  984.32

 eigenvalue-minimisations  : 16464
 total energy-change (2. order) :-0.3566778E-01  (-0.3565530E-01)
 number of electron     127.9999994 magnetization 
 augmentation part        3.3941204 magnetization 

 Broyden mixing:
  rms(total) = 0.22090E+01    rms(broyden)= 0.22089E+01
  rms(prec ) = 0.25926E+01
  weight for this iteration     100.00

 Free energy of the ion-electron system (eV)
  ---------------------------------------------------
  alpha Z        PSCENC =       287.16055492
  Ewald energy   TEWEN  =     -3548.47811035
  -Hartree energ DENC   =     -1278.44645854
  -exchange      EXHF   =         0.00000000
  -V(xc)+E(xc)   XCENC  =       442.74542010
  PAW double counting   =      1210.60617908    -1247.42152856
  entropy T*S    EENTRO =         0.00000000
  eigenvalues    EBANDS =      -889.20997215
  atomic energy  EATOM  =      4708.94155045
  ---------------------------------------------------
  free energy    TOTEN  =      -314.10236504 eV

  energy without entropy =     -314.10236504  energy(sigma->0) =     -314.10236504


--------------------------------------------------------------------------------------------------------




----------------------------------------- Iteration    1(   6)  ---------------------------------------


    POTLOK:  cpu time    1.23: real time    2.46
    SETDIJ:  cpu time    0.11: real time    0.20
     EDDAV:  cpu time  447.95: real time  896.35
 BZINTS: Fermi energy:  3.670702;128.000000 electrons
         Band energy:-746.060105;  BLOECHL correction:  0.000000
       DOS:  cpu time    0.03: real time    0.06
    CHARGE:  cpu time    5.68: real time   11.37
    MIXING:  cpu time    0.10: real time    0.22
    --------------------------------------------
      LOOP:  cpu time  455.11: real time  910.68

 eigenvalue-minimisations  : 14592
 total energy-change (2. order) : 0.1454174E+02  (-0.1495689E+01)
 number of electron     127.9999994 magnetization 
 augmentation part        3.2379427 magnetization 

 Broyden mixing:
  rms(total) = 0.11593E+01    rms(broyden)= 0.11593E+01
  rms(prec ) = 0.13523E+01
  weight for this iteration     100.00

 eigenvalues of (default mixing * dielectric matrix)
  average eigenvalue GAMMA=   2.0343
  2.0343

 Free energy of the ion-electron system (eV)
  ---------------------------------------------------
  alpha Z        PSCENC =       287.16055492
  Ewald energy   TEWEN  =     -3548.47811035
  -Hartree energ DENC   =     -1412.57868554
  -exchange      EXHF   =         0.00000000
  -V(xc)+E(xc)   XCENC  =       451.15603300
  PAW double counting   =      1642.26683236    -1681.96869201
  entropy T*S    EENTRO =         0.00000000
  eigenvalues    EBANDS =      -746.06010506
  atomic energy  EATOM  =      4708.94155045
  ---------------------------------------------------
  free energy    TOTEN  =      -299.56062222 eV

  energy without entropy =     -299.56062222  energy(sigma->0) =     -299.56062222


--------------------------------------------------------------------------------------------------------




----------------------------------------- Iteration    1(   7)  ---------------------------------------


    POTLOK:  cpu time    1.34: real time    2.67
    SETDIJ:  cpu time    0.11: real time    0.21
     EDDAV:  cpu time  446.49: real time  893.46
 BZINTS: Fermi energy:  4.447240;128.000000 electrons
         Band energy:-599.220696;  BLOECHL correction:  0.000000
       DOS:  cpu time    0.04: real time    0.07
    CHARGE:  cpu time    5.69: real time   11.40
    MIXING:  cpu time    0.13: real time    0.26
    --------------------------------------------
      LOOP:  cpu time  453.81: real time  908.10

 eigenvalue-minimisations  : 14424
 total energy-change (2. order) : 0.4643379E+01  (-0.1594806E+01)
 number of electron     127.9999994 magnetization 
 augmentation part        3.0713493 magnetization 

 Broyden mixing:
  rms(total) = 0.19778E+00    rms(broyden)= 0.19776E+00
  rms(prec ) = 0.21540E+00
  weight for this iteration     100.00

 eigenvalues of (default mixing * dielectric matrix)
  average eigenvalue GAMMA=   2.0774
  2.0774  2.0774

 Free energy of the ion-electron system (eV)
  ---------------------------------------------------
  alpha Z        PSCENC =       287.16055492
  Ewald energy   TEWEN  =     -3548.47811035
  -Hartree energ DENC   =     -1562.04333388
  -exchange      EXHF   =         0.00000000
  -V(xc)+E(xc)   XCENC  =       460.76663946
  PAW double counting   =      2181.58150060    -2223.62534806
  entropy T*S    EENTRO =         0.00000000
  eigenvalues    EBANDS =      -599.22069648
  atomic energy  EATOM  =      4708.94155045
  ---------------------------------------------------
  free energy    TOTEN  =      -294.91724333 eV

  energy without entropy =     -294.91724333  energy(sigma->0) =     -294.91724333


--------------------------------------------------------------------------------------------------------




----------------------------------------- Iteration    1(   8)  ---------------------------------------


    POTLOK:  cpu time    1.13: real time    2.25
    SETDIJ:  cpu time    0.09: real time    0.18
     EDDAV:  cpu time  455.76: real time  911.97
 BZINTS: Fermi energy:  4.401958;128.000000 electrons
         Band energy:-601.377155;  BLOECHL correction:  0.000000
       DOS:  cpu time    0.03: real time    0.07
    CHARGE:  cpu time    5.53: real time   11.07
    MIXING:  cpu time    0.12: real time    0.25
    --------------------------------------------
      LOOP:  cpu time  462.68: real time  925.82

 eigenvalue-minimisations  : 14964
 total energy-change (2. order) :-0.7644620E-01  (-0.7561829E-01)
 number of electron     127.9999994 magnetization 
 augmentation part        3.0646277 magnetization 

 Broyden mixing:
  rms(total) = 0.80208E-01    rms(broyden)= 0.80204E-01
  rms(prec ) = 0.10387E+00
  weight for this iteration     100.00

 eigenvalues of (default mixing * dielectric matrix)
  average eigenvalue GAMMA=   1.6598
  2.3596  2.0539  0.5660

 Free energy of the ion-electron system (eV)
  ---------------------------------------------------
  alpha Z        PSCENC =       287.16055492
  Ewald energy   TEWEN  =     -3548.47811035
  -Hartree energ DENC   =     -1560.51649736
  -exchange      EXHF   =         0.00000000
  -V(xc)+E(xc)   XCENC  =       460.68022569
  PAW double counting   =      2205.72001026    -2247.12426804
  entropy T*S    EENTRO =         0.00000000
  eigenvalues    EBANDS =      -601.37715510
  atomic energy  EATOM  =      4708.94155045
  ---------------------------------------------------
  free energy    TOTEN  =      -294.99368953 eV

  energy without entropy =     -294.99368953  energy(sigma->0) =     -294.99368953


--------------------------------------------------------------------------------------------------------




----------------------------------------- Iteration    1(   9)  ---------------------------------------


    POTLOK:  cpu time    1.24: real time    2.47
    SETDIJ:  cpu time    0.08: real time    0.16
     EDDAV:  cpu time  451.68: real time  903.79
 BZINTS: Fermi energy:  4.425263;128.000000 electrons
         Band energy:-600.469734;  BLOECHL correction:  0.000000
       DOS:  cpu time    0.03: real time    0.06
    CHARGE:  cpu time    5.69: real time   11.38
    MIXING:  cpu time    0.11: real time    0.23
    --------------------------------------------
      LOOP:  cpu time  458.85: real time  918.14

 eigenvalue-minimisations  : 14880
 total energy-change (2. order) : 0.3764868E-02  (-0.5232252E-02)
 number of electron     127.9999994 magnetization 
 augmentation part        3.0620733 magnetization 

 Broyden mixing:
  rms(total) = 0.44964E-01    rms(broyden)= 0.44964E-01
  rms(prec ) = 0.68874E-01
  weight for this iteration     100.00

 eigenvalues of (default mixing * dielectric matrix)
  average eigenvalue GAMMA=   1.4947
  2.4043  2.0288  0.7728  0.7728

 Free energy of the ion-electron system (eV)
  ---------------------------------------------------
  alpha Z        PSCENC =       287.16055492
  Ewald energy   TEWEN  =     -3548.47811035
  -Hartree energ DENC   =     -1561.69216959
  -exchange      EXHF   =         0.00000000
  -V(xc)+E(xc)   XCENC  =       460.76966279
  PAW double counting   =      2218.16603401    -2259.38771274
  entropy T*S    EENTRO =         0.00000000
  eigenvalues    EBANDS =      -600.46973415
  atomic energy  EATOM  =      4708.94155045
  ---------------------------------------------------
  free energy    TOTEN  =      -294.98992466 eV

  energy without entropy =     -294.98992466  energy(sigma->0) =     -294.98992466


--------------------------------------------------------------------------------------------------------




----------------------------------------- Iteration    1(  10)  ---------------------------------------


    POTLOK:  cpu time    1.17: real time    2.33
    SETDIJ:  cpu time    0.07: real time    0.13
     EDDAV:  cpu time  559.74: real time 1120.03
 BZINTS: Fermi energy:  4.428535;128.000000 electrons
         Band energy:-599.520639;  BLOECHL correction:  0.000000
       DOS:  cpu time    0.05: real time    0.09
    CHARGE:  cpu time    5.70: real time   11.40
    MIXING:  cpu time    0.05: real time    0.11
    --------------------------------------------
      LOOP:  cpu time  566.78: real time 1134.12

 eigenvalue-minimisations  : 20196
 total energy-change (2. order) : 0.7609509E-02  (-0.5727442E-02)
 number of electron     127.9999994 magnetization 
 augmentation part        3.0614426 magnetization 

 Broyden mixing:
  rms(total) = 0.20823E-01    rms(broyden)= 0.20818E-01
  rms(prec ) = 0.32571E-01
  weight for this iteration     100.00

 eigenvalues of (default mixing * dielectric matrix)
  average eigenvalue GAMMA=   1.3376
  2.4708  1.9961  0.8201  0.7005  0.7005

 Free energy of the ion-electron system (eV)
  ---------------------------------------------------
  alpha Z        PSCENC =       287.16055492
  Ewald energy   TEWEN  =     -3548.47811035
  -Hartree energ DENC   =     -1562.70367564
  -exchange      EXHF   =         0.00000000
  -V(xc)+E(xc)   XCENC  =       460.84022603
  PAW double counting   =      2220.72555409    -2261.94777594
  entropy T*S    EENTRO =         0.00000000
  eigenvalues    EBANDS =      -599.52063872
  atomic energy  EATOM  =      4708.94155045
  ---------------------------------------------------
  free energy    TOTEN  =      -294.98231515 eV

  energy without entropy =     -294.98231515  energy(sigma->0) =     -294.98231515


--------------------------------------------------------------------------------------------------------




----------------------------------------- Iteration    1(  11)  ---------------------------------------


    POTLOK:  cpu time    1.45: real time    2.90
    SETDIJ:  cpu time    0.07: real time    0.14
     EDDAV:  cpu time  461.47: real time  923.40
 BZINTS: Fermi energy:  4.429907;128.000000 electrons
         Band energy:-599.120365;  BLOECHL correction:  0.000000
       DOS:  cpu time    0.05: real time    0.09
    CHARGE:  cpu time    5.74: real time   11.49
    MIXING:  cpu time    0.09: real time    0.20
    --------------------------------------------
      LOOP:  cpu time  468.89: real time  938.24

 eigenvalue-minimisations  : 14568
 total energy-change (2. order) :-0.5028445E-03  (-0.2282130E-02)
 number of electron     127.9999994 magnetization 
 augmentation part        3.0609499 magnetization 

 Broyden mixing:
  rms(total) = 0.18719E-01    rms(broyden)= 0.18719E-01
  rms(prec ) = 0.36476E-01
  weight for this iteration     100.00

 eigenvalues of (default mixing * dielectric matrix)
  average eigenvalue GAMMA=   1.2528
  2.5513  1.9429  1.3629  0.7226  0.7226  0.2145

 Free energy of the ion-electron system (eV)
  ---------------------------------------------------
  alpha Z        PSCENC =       287.16055492
  Ewald energy   TEWEN  =     -3548.47811035
  -Hartree energ DENC   =     -1563.13720034
  -exchange      EXHF   =         0.00000000
  -V(xc)+E(xc)   XCENC  =       460.87018709
  PAW double counting   =      2221.98830431    -2263.20773904
  entropy T*S    EENTRO =         0.00000000
  eigenvalues    EBANDS =      -599.12036504
  atomic energy  EATOM  =      4708.94155045
  ---------------------------------------------------
  free energy    TOTEN  =      -294.98281800 eV

  energy without entropy =     -294.98281800  energy(sigma->0) =     -294.98281800


--------------------------------------------------------------------------------------------------------




----------------------------------------- Iteration    1(  12)  ---------------------------------------


    POTLOK:  cpu time    1.34: real time    2.68
    SETDIJ:  cpu time    0.07: real time    0.14
     EDDAV:  cpu time  466.26: real time  933.00
 BZINTS: Fermi energy:  4.434578;128.000000 electrons
         Band energy:-598.546327;  BLOECHL correction:  0.000000
       DOS:  cpu time    0.05: real time    0.10
    CHARGE:  cpu time    5.70: real time   11.40
    MIXING:  cpu time    0.05: real time    0.12
    --------------------------------------------
      LOOP:  cpu time  473.48: real time  947.45

 eigenvalue-minimisations  : 15192
 total energy-change (2. order) :-0.2745917E-03  (-0.9108761E-03)
 number of electron     127.9999994 magnetization 
 augmentation part        3.0604793 magnetization 

 Broyden mixing:
  rms(total) = 0.14269E-01    rms(broyden)= 0.14268E-01
  rms(prec ) = 0.25986E-01
  weight for this iteration     100.00

 eigenvalues of (default mixing * dielectric matrix)
  average eigenvalue GAMMA=   1.2079
  2.5244  1.9893  1.5763  0.8401  0.6845  0.6845  0.1561

 Free energy of the ion-electron system (eV)
  ---------------------------------------------------
  alpha Z        PSCENC =       287.16055492
  Ewald energy   TEWEN  =     -3548.47811035
  -Hartree energ DENC   =     -1563.75372161
  -exchange      EXHF   =         0.00000000
  -V(xc)+E(xc)   XCENC  =       460.91289581
  PAW double counting   =      2223.35047823    -2264.57041313
  entropy T*S    EENTRO =         0.00000000
  eigenvalues    EBANDS =      -598.54632691
  atomic energy  EATOM  =      4708.94155045
  ---------------------------------------------------
  free energy    TOTEN  =      -294.98309259 eV

  energy without entropy =     -294.98309259  energy(sigma->0) =     -294.98309259


--------------------------------------------------------------------------------------------------------




----------------------------------------- Iteration    1(  13)  ---------------------------------------


    POTLOK:  cpu time    1.25: real time    2.49
    SETDIJ:  cpu time    0.09: real time    0.19
     EDDAV:  cpu time  450.58: real time  901.60
 BZINTS: Fermi energy:  4.433520;128.000000 electrons
         Band energy:-598.383536;  BLOECHL correction: -0.000000
       DOS:  cpu time    0.06: real time    0.10
    CHARGE:  cpu time    5.68: real time   11.37
    MIXING:  cpu time    0.17: real time    0.34
    --------------------------------------------
      LOOP:  cpu time  457.83: real time  916.10

 eigenvalue-minimisations  : 14832
 total energy-change (2. order) : 0.1555460E-03  (-0.3228047E-03)
 number of electron     127.9999994 magnetization 
 augmentation part        3.0601952 magnetization 

 Broyden mixing:
  rms(total) = 0.11777E-01    rms(broyden)= 0.11777E-01
  rms(prec ) = 0.22306E-01
  weight for this iteration     100.00

 eigenvalues of (default mixing * dielectric matrix)
  average eigenvalue GAMMA=   1.1897
  2.4151  2.4151  1.8172  1.1601  0.6827  0.6827  0.2084  0.1366

 Free energy of the ion-electron system (eV)
  ---------------------------------------------------
  alpha Z        PSCENC =       287.16055492
  Ewald energy   TEWEN  =     -3548.47811035
  -Hartree energ DENC   =     -1563.92997101
  -exchange      EXHF   =         0.00000000
  -V(xc)+E(xc)   XCENC  =       460.92571364
  PAW double counting   =      2223.06304589    -2264.28218491
  entropy T*S    EENTRO =         0.00000000
  eigenvalues    EBANDS =      -598.38353569
  atomic energy  EATOM  =      4708.94155045
  ---------------------------------------------------
  free energy    TOTEN  =      -294.98293704 eV

  energy without entropy =     -294.98293704  energy(sigma->0) =     -294.98293704


--------------------------------------------------------------------------------------------------------




----------------------------------------- Iteration    1(  14)  ---------------------------------------


    POTLOK:  cpu time    1.23: real time    2.46
    SETDIJ:  cpu time    0.09: real time    0.19
     EDDAV:  cpu time  507.55: real time 1015.47
 BZINTS: Fermi energy:  4.436482;128.000000 electrons
         Band energy:-598.322879;  BLOECHL correction:  0.000000
       DOS:  cpu time    0.03: real time    0.05
    CHARGE:  cpu time    5.68: real time   11.36
    MIXING:  cpu time    0.04: real time    0.08
    --------------------------------------------
      LOOP:  cpu time  514.63: real time 1029.62

 eigenvalue-minimisations  : 17976
 total energy-change (2. order) :-0.4917378E-03  (-0.8889050E-03)
 number of electron     127.9999994 magnetization 
 augmentation part        3.0603400 magnetization 

 Broyden mixing:
  rms(total) = 0.14037E-01    rms(broyden)= 0.14037E-01
  rms(prec ) = 0.27331E-01
  weight for this iteration     100.00

 eigenvalues of (default mixing * dielectric matrix)
  average eigenvalue GAMMA=   1.1442
  2.8375  2.4326  1.9587  0.9172  0.7502  0.7502  0.3767  0.1489  0.1261

 Free energy of the ion-electron system (eV)
  ---------------------------------------------------
  alpha Z        PSCENC =       287.16055492
  Ewald energy   TEWEN  =     -3548.47811035
  -Hartree energ DENC   =     -1563.99828482
  -exchange      EXHF   =         0.00000000
  -V(xc)+E(xc)   XCENC  =       460.93124419
  PAW double counting   =      2222.37953987    -2263.59704435
  entropy T*S    EENTRO =         0.00000000
  eigenvalues    EBANDS =      -598.32287870
  atomic energy  EATOM  =      4708.94155045
  ---------------------------------------------------
  free energy    TOTEN  =      -294.98342878 eV

  energy without entropy =     -294.98342878  energy(sigma->0) =     -294.98342878


--------------------------------------------------------------------------------------------------------




----------------------------------------- Iteration    1(  15)  ---------------------------------------


    POTLOK:  cpu time    1.37: real time    2.73
    SETDIJ:  cpu time    0.04: real time    0.08
     EDDAV:  cpu time  457.96: real time  916.33
 BZINTS: Fermi energy:  4.438111;128.000000 electrons
         Band energy:-598.030494;  BLOECHL correction:  0.000000
       DOS:  cpu time    0.07: real time    0.15
    CHARGE:  cpu time    5.78: real time   11.56
    MIXING:  cpu time    0.19: real time    0.39
    --------------------------------------------
      LOOP:  cpu time  465.41: real time  931.25

 eigenvalue-minimisations  : 15456
 total energy-change (2. order) :-0.4352124E-03  (-0.3202567E-03)
 number of electron     127.9999994 magnetization 
 augmentation part        3.0601614 magnetization 

 Broyden mixing:
  rms(total) = 0.25065E-01    rms(broyden)= 0.25064E-01
  rms(prec ) = 0.40325E-01
  weight for this iteration     100.00

 eigenvalues of (default mixing * dielectric matrix)
  average eigenvalue GAMMA=   1.1141
  2.9122  2.4391  1.9420  0.8709  0.8800  0.8800  0.4688  0.4688  0.1525  0.1273

 Free energy of the ion-electron system (eV)
  ---------------------------------------------------
  alpha Z        PSCENC =       287.16055492
  Ewald energy   TEWEN  =     -3548.47811035
  -Hartree energ DENC   =     -1564.31330306
  -exchange      EXHF   =         0.00000000
  -V(xc)+E(xc)   XCENC  =       460.95348613
  PAW double counting   =      2222.68890150    -2263.90644933
  entropy T*S    EENTRO =         0.00000000
  eigenvalues    EBANDS =      -598.03049427
  atomic energy  EATOM  =      4708.94155045
  ---------------------------------------------------
  free energy    TOTEN  =      -294.98386399 eV

  energy without entropy =     -294.98386399  energy(sigma->0) =     -294.98386399


--------------------------------------------------------------------------------------------------------




----------------------------------------- Iteration    1(  16)  ---------------------------------------


    POTLOK:  cpu time    1.29: real time    2.57
    SETDIJ:  cpu time    0.07: real time    0.14
     EDDAV:  cpu time  572.93: real time 1146.44
 BZINTS: Fermi energy:  4.436842;128.000000 electrons
         Band energy:-598.037254;  BLOECHL correction:  0.000000
       DOS:  cpu time    0.04: real time    0.07
    CHARGE:  cpu time    5.63: real time   11.26
    MIXING:  cpu time    0.14: real time    0.28
    --------------------------------------------
      LOOP:  cpu time  580.09: real time 1160.78

 eigenvalue-minimisations  : 20328
 total energy-change (2. order) : 0.6403924E-03  (-0.2087476E-02)
 number of electron     127.9999994 magnetization 
 augmentation part        3.0601259 magnetization 

 Broyden mixing:
  rms(total) = 0.95779E-02    rms(broyden)= 0.95749E-02
  rms(prec ) = 0.15571E-01
  weight for this iteration     100.00

 eigenvalues of (default mixing * dielectric matrix)
  average eigenvalue GAMMA=   1.1012
  2.8890  2.4544  1.9092  1.0516  1.0516  0.8203  0.8203  0.4189  0.4189  0.1526
  0.1269

 Free energy of the ion-electron system (eV)
  ---------------------------------------------------
  alpha Z        PSCENC =       287.16055492
  Ewald energy   TEWEN  =     -3548.47811035
  -Hartree energ DENC   =     -1564.30719428
  -exchange      EXHF   =         0.00000000
  -V(xc)+E(xc)   XCENC  =       460.95303600
  PAW double counting   =      2222.56620230    -2263.78200839
  entropy T*S    EENTRO =         0.00000000
  eigenvalues    EBANDS =      -598.03725426
  atomic energy  EATOM  =      4708.94155045
  ---------------------------------------------------
  free energy    TOTEN  =      -294.98322360 eV

  energy without entropy =     -294.98322360  energy(sigma->0) =     -294.98322360


--------------------------------------------------------------------------------------------------------




----------------------------------------- Iteration    1(  17)  ---------------------------------------


    POTLOK:  cpu time    1.29: real time    2.58
    SETDIJ:  cpu time    0.08: real time    0.15
     EDDAV:  cpu time  473.84: real time  948.11
 BZINTS: Fermi energy:  4.435557;128.000000 electrons
         Band energy:-598.048350;  BLOECHL correction:  0.000000
       DOS:  cpu time    0.06: real time    0.11
    CHARGE:  cpu time    5.72: real time   11.44
    MIXING:  cpu time    0.09: real time    0.19
    --------------------------------------------
      LOOP:  cpu time  481.08: real time  962.61

 eigenvalue-minimisations  : 15420
 total energy-change (2. order) : 0.2024727E-03  (-0.9267494E-04)
 number of electron     127.9999994 magnetization 
 augmentation part        3.0601459 magnetization 

 Broyden mixing:
  rms(total) = 0.36550E-02    rms(broyden)= 0.36549E-02
  rms(prec ) = 0.46748E-02
  weight for this iteration     100.00

 eigenvalues of (default mixing * dielectric matrix)
  average eigenvalue GAMMA=   1.0662
  2.9145  2.4444  1.9122  1.1110  1.1110  0.7604  0.7604  0.7293  0.3855  0.3855
  0.1526  0.1270

 Free energy of the ion-electron system (eV)
  ---------------------------------------------------
  alpha Z        PSCENC =       287.16055492
  Ewald energy   TEWEN  =     -3548.47811035
  -Hartree energ DENC   =     -1564.29548990
  -exchange      EXHF   =         0.00000000
  -V(xc)+E(xc)   XCENC  =       460.95210305
  PAW double counting   =      2222.46318292    -2263.67846267
  entropy T*S    EENTRO =         0.00000000
  eigenvalues    EBANDS =      -598.04834956
  atomic energy  EATOM  =      4708.94155045
  ---------------------------------------------------
  free energy    TOTEN  =      -294.98302113 eV

  energy without entropy =     -294.98302113  energy(sigma->0) =     -294.98302113


--------------------------------------------------------------------------------------------------------




----------------------------------------- Iteration    1(  18)  ---------------------------------------


    POTLOK:  cpu time    1.29: real time    2.56
    SETDIJ:  cpu time    0.14: real time    0.29
     EDDAV:  cpu time  473.65: real time  947.76
 BZINTS: Fermi energy:  4.435567;128.000000 electrons
         Band energy:-598.042293;  BLOECHL correction:  0.000000
       DOS:  cpu time    0.06: real time    0.12
    CHARGE:  cpu time    5.67: real time   11.34
    MIXING:  cpu time    0.06: real time    0.13
    --------------------------------------------
      LOOP:  cpu time  480.87: real time  962.21

 eigenvalue-minimisations  : 15348
 total energy-change (2. order) :-0.3300181E-04  (-0.3380123E-04)
 number of electron     127.9999994 magnetization 
 augmentation part        3.0601446 magnetization 

 Broyden mixing:
  rms(total) = 0.57901E-02    rms(broyden)= 0.57900E-02
  rms(prec ) = 0.96564E-02
  weight for this iteration     100.00

 eigenvalues of (default mixing * dielectric matrix)
  average eigenvalue GAMMA=   1.0691
  2.9282  2.4952  1.9002  1.1666  1.1666  1.1131  0.8123  0.8123  0.4001  0.4001
  0.4239  0.1526  0.1270

 Free energy of the ion-electron system (eV)
  ---------------------------------------------------
  alpha Z        PSCENC =       287.16055492
  Ewald energy   TEWEN  =     -3548.47811035
  -Hartree energ DENC   =     -1564.30194389
  -exchange      EXHF   =         0.00000000
  -V(xc)+E(xc)   XCENC  =       460.95244112
  PAW double counting   =      2222.45638584    -2263.67163883
  entropy T*S    EENTRO =         0.00000000
  eigenvalues    EBANDS =      -598.04229339
  atomic energy  EATOM  =      4708.94155045
  ---------------------------------------------------
  free energy    TOTEN  =      -294.98305413 eV

  energy without entropy =     -294.98305413  energy(sigma->0) =     -294.98305413


--------------------------------------------------------------------------------------------------------




----------------------------------------- Iteration    1(  19)  ---------------------------------------


    POTLOK:  cpu time    1.33: real time    2.65
    SETDIJ:  cpu time    0.07: real time    0.15
     EDDAV:  cpu time  564.26: real time  959.93
 BZINTS: Fermi energy:  4.435667;128.000000 electrons
         Band energy:-598.038076;  BLOECHL correction: -0.000000
       DOS:  cpu time    0.06: real time    0.06
    CHARGE:  cpu time   11.17: real time   11.18
    MIXING:  cpu time    0.17: real time    0.17
    --------------------------------------------
      LOOP:  cpu time  577.07: real time  974.16

 eigenvalue-minimisations  : 19692
 total energy-change (2. order) : 0.3964553E-04  (-0.4409924E-04)
 number of electron     127.9999994 magnetization 
 augmentation part        3.0601445 magnetization 

 Broyden mixing:
  rms(total) = 0.18792E-02    rms(broyden)= 0.18787E-02
  rms(prec ) = 0.29000E-02
  weight for this iteration     100.00

 eigenvalues of (default mixing * dielectric matrix)
  average eigenvalue GAMMA=   1.1014
  2.9470  2.5026  1.8829  1.4549  1.4549  1.2416  0.9144  0.8065  0.8065  0.4124
  0.4124  0.3043  0.1526  0.1270

 Free energy of the ion-electron system (eV)
  ---------------------------------------------------
  alpha Z        PSCENC =       287.16055492
  Ewald energy   TEWEN  =     -3548.47811035
  -Hartree energ DENC   =     -1564.30625997
  -exchange      EXHF   =         0.00000000
  -V(xc)+E(xc)   XCENC  =       460.95264586
  PAW double counting   =      2222.42693958    -2263.64225909
  entropy T*S    EENTRO =         0.00000000
  eigenvalues    EBANDS =      -598.03807589
  atomic energy  EATOM  =      4708.94155045
  ---------------------------------------------------
  free energy    TOTEN  =      -294.98301448 eV

  energy without entropy =     -294.98301448  energy(sigma->0) =     -294.98301448


--------------------------------------------------------------------------------------------------------




----------------------------------------- Iteration    1(  20)  ---------------------------------------


    POTLOK:  cpu time    2.11: real time    2.11
    SETDIJ:  cpu time    0.10: real time    0.10
     EDDAV:  cpu time  516.00: real time  516.25
 BZINTS: Fermi energy:  4.435698;128.000000 electrons
         Band energy:-598.033746;  BLOECHL correction: -0.000000
       DOS:  cpu time    0.05: real time    0.05
    CHARGE:  cpu time   11.01: real time   11.02
    MIXING:  cpu time    0.07: real time    0.07
    --------------------------------------------
      LOOP:  cpu time  529.34: real time  529.60

 eigenvalue-minimisations  : 16548
 total energy-change (2. order) :-0.6958476E-05  (-0.1642208E-04)
 number of electron     127.9999994 magnetization 
 augmentation part        3.0601436 magnetization 

 Broyden mixing:
  rms(total) = 0.30432E-02    rms(broyden)= 0.30431E-02
  rms(prec ) = 0.51258E-02
  weight for this iteration     100.00

 eigenvalues of (default mixing * dielectric matrix)
  average eigenvalue GAMMA=   1.1313
  3.0082  2.4819  2.0574  2.0574  1.3961  1.3961  0.9971  0.7806  0.7806  0.6199
  0.4113  0.4113  0.2924  0.1526  0.1270

 Free energy of the ion-electron system (eV)
  ---------------------------------------------------
  alpha Z        PSCENC =       287.16055492
  Ewald energy   TEWEN  =     -3548.47811035
  -Hartree energ DENC   =     -1564.31081932
  -exchange      EXHF   =         0.00000000
  -V(xc)+E(xc)   XCENC  =       460.95286717
  PAW double counting   =      2222.41673947    -2263.63205786
  entropy T*S    EENTRO =         0.00000000
  eigenvalues    EBANDS =      -598.03374592
  atomic energy  EATOM  =      4708.94155045
  ---------------------------------------------------
  free energy    TOTEN  =      -294.98302144 eV

  energy without entropy =     -294.98302144  energy(sigma->0) =     -294.98302144


--------------------------------------------------------------------------------------------------------




----------------------------------------- Iteration    1(  21)  ---------------------------------------


    POTLOK:  cpu time    1.75: real time    1.75
    SETDIJ:  cpu time    0.09: real time    0.09
     EDDAV:  cpu time  496.03: real time  496.27
 BZINTS: Fermi energy:  4.435725;128.000000 electrons
         Band energy:-598.030591;  BLOECHL correction: -0.000000
       DOS:  cpu time    0.05: real time    0.05
    CHARGE:  cpu time   11.13: real time   11.14
    MIXING:  cpu time    0.23: real time    0.23
    --------------------------------------------
      LOOP:  cpu time  509.28: real time  509.53

 eigenvalue-minimisations  : 15600
 total energy-change (2. order) : 0.9329142E-05  (-0.6260050E-05)
 number of electron     127.9999994 magnetization 
 augmentation part        3.0601418 magnetization 

 Broyden mixing:
  rms(total) = 0.90276E-03    rms(broyden)= 0.90264E-03
  rms(prec ) = 0.11914E-02
  weight for this iteration     100.00

 eigenvalues of (default mixing * dielectric matrix)
  average eigenvalue GAMMA=   1.1440
  3.0125  2.5082  2.2878  2.0184  1.4555  1.4555  0.9380  0.8293  0.8293  0.7885
  0.7885  0.4115  0.4115  0.2904  0.1526  0.1270

 Free energy of the ion-electron system (eV)
  ---------------------------------------------------
  alpha Z        PSCENC =       287.16055492
  Ewald energy   TEWEN  =     -3548.47811035
  -Hartree energ DENC   =     -1564.31411703
  -exchange      EXHF   =         0.00000000
  -V(xc)+E(xc)   XCENC  =       460.95300483
[...]
     79      11.7650      0.00000
     80      11.7688      0.00000
     81      12.3963      0.00000
     82      12.3979      0.00000
     83      12.6472      0.00000
     84      12.6491      0.00000

 k-point    75 :       0.3333    0.5000    0.5000
  band No.  band energies     occupation 
      1     -13.9872      2.00000
      2     -13.9870      2.00000
      3     -13.8286      2.00000
      4     -13.8283      2.00000
      5     -13.0176      2.00000
      6     -13.0173      2.00000
      7     -12.8692      2.00000
      8     -12.8689      2.00000
      9     -12.0594      2.00000
     10     -12.0592      2.00000
     11     -11.9211      2.00000
     12     -11.9209      2.00000
     13      -9.3871      2.00000
     14      -9.3865      2.00000
     15      -9.2856      2.00000
     16      -9.2850      2.00000
     17      -7.5183      2.00000
     18      -7.5159      2.00000
     19      -7.4503      2.00000
     20      -7.4481      2.00000
     21      -5.2153      2.00000
     22      -5.2131      2.00000
     23      -5.1624      2.00000
     24      -5.1600      2.00000
     25      -5.0507      2.00000
     26      -5.0495      2.00000
     27      -4.9931      2.00000
     28      -4.9918      2.00000
     29      -4.0723      2.00000
     30      -4.0703      2.00000
     31      -4.0110      2.00000
     32      -4.0089      2.00000
     33      -3.0168      2.00000
     34      -3.0151      2.00000
     35      -2.9772      2.00000
     36      -2.9754      2.00000
     37      -2.3611      2.00000
     38      -2.3602      2.00000
     39      -1.9855      2.00000
     40      -1.9820      2.00000
     41      -1.9474      2.00000
     42      -1.9430      2.00000
     43      -1.4703      2.00000
     44      -1.4678      2.00000
     45      -1.4378      2.00000
     46      -1.4356      2.00000
     47      -1.2281      2.00000
     48      -1.2267      2.00000
     49      -1.2191      2.00000
     50      -1.2180      2.00000
     51      -0.5847      2.00000
     52      -0.5798      2.00000
     53      -0.5592      2.00000
     54      -0.5558      2.00000
     55      -0.1512      2.00000
     56      -0.1501      2.00000
     57      -0.1090      2.00000
     58      -0.1078      2.00000
     59       0.8851      2.00000
     60       0.8864      2.00000
     61       2.7762      2.00000
     62       2.7784      2.00000
     63       3.3963      2.00000
     64       3.3991      2.00000
     65       5.5895      0.00000
     66       5.5927      0.00000
     67       5.9107      0.00000
     68       5.9140      0.00000
     69       8.6832      0.00000
     70       8.6850      0.00000
     71       9.0553      0.00000
     72       9.0574      0.00000
     73      10.1546      0.00000
     74      10.1573      0.00000
     75      10.5723      0.00000
     76      10.5818      0.00000
     77      10.5828      0.00000
     78      10.5933      0.00000
     79      11.7615      0.00000
     80      11.7653      0.00000
     81      12.3930      0.00000
     82      12.3950      0.00000
     83      12.6450      0.00000
     84      12.6471      0.00000

 k-point    76 :       0.5000    0.5000    0.5000
  band No.  band energies     occupation 
      1     -13.6651      2.00000
      2     -13.6625      2.00000
      3     -13.6625      2.00000
      4     -13.6596      2.00000
      5     -13.5098      2.00000
      6     -13.5073      2.00000
      7     -13.5073      2.00000
      8     -13.5043      2.00000
      9     -10.8239      2.00000
     10     -10.8222      2.00000
     11     -10.8222      2.00000
     12     -10.8205      2.00000
     13     -10.6993      2.00000
     14     -10.6976      2.00000
     15     -10.6976      2.00000
     16     -10.6958      2.00000
     17      -6.0860      2.00000
     18      -6.0816      2.00000
     19      -6.0814      2.00000
     20      -6.0814      2.00000
     21      -6.0435      2.00000
     22      -6.0399      2.00000
     23      -6.0397      2.00000
     24      -6.0397      2.00000
     25      -4.4948      2.00000
     26      -4.4948      2.00000
     27      -4.4935      2.00000
     28      -4.4912      2.00000
     29      -4.4637      2.00000
     30      -4.4637      2.00000
     31      -4.4623      2.00000
     32      -4.4591      2.00000
     33      -2.9894      2.00000
     34      -2.9890      2.00000
     35      -2.9890      2.00000
     36      -2.9839      2.00000
     37      -2.9344      2.00000
     38      -2.9340      2.00000
     39      -2.9340      2.00000
     40      -2.9277      2.00000
     41      -1.9791      2.00000
     42      -1.9765      2.00000
     43      -1.9764      2.00000
     44      -1.9742      2.00000
     45      -0.8669      2.00000
     46      -0.8640      2.00000
     47      -0.8639      2.00000
     48      -0.8615      2.00000
     49      -0.5835      2.00000
     50      -0.5735      2.00000
     51      -0.5735      2.00000
     52      -0.5720      2.00000
     53      -0.5534      2.00000
     54      -0.5477      2.00000
     55      -0.5477      2.00000
     56      -0.5460      2.00000
     57       1.2850      2.00000
     58       1.2860      2.00000
     59       1.2861      2.00000
     60       1.2892      2.00000
     61       2.1595      2.00000
     62       2.1605      2.00000
     63       2.1607      2.00000
     64       2.1644      2.00000
     65       7.0742      0.00000
     66       7.0788      0.00000
     67       7.0790      0.00000
     68       7.0798      0.00000
     69       7.4269      0.00000
     70       7.4319      0.00000
     71       7.4321      0.00000
     72       7.4328      0.00000
     73      10.9134      0.00000
     74      10.9186      0.00000
     75      10.9193      0.00000
     76      10.9239      0.00000
     77      11.5344      0.00000
     78      11.5397      0.00000
     79      11.5404      0.00000
     80      11.5483      0.00000
     81      11.8517      0.00000
     82      11.8534      0.00000
     83      11.8541      0.00000
     84      11.8590      0.00000


--------------------------------------------------------------------------------------------------------


 soft charge-density along one line, spin component           1
         0         1         2         3         4         5         6         7         8         9
 total charge-density along one line
 
 pseudopotential strength for first ion, spin component:           1
  9.787   0.006  -0.000   0.000  -0.000   0.000  -0.000   0.000
  0.006  -0.002   0.000  -0.000  -0.000   0.000  -0.000   0.000
 -0.000   0.000  -3.958  -0.000  -0.000  -0.015  -0.000  -0.000
  0.000  -0.000  -0.000  -3.952   0.000  -0.000  -0.012   0.000
 -0.000  -0.000  -0.000   0.000  -3.958  -0.000   0.000  -0.015
  0.000   0.000  -0.015  -0.000  -0.000  -0.764  -0.000  -0.000
 -0.000  -0.000  -0.000  -0.012   0.000  -0.000  -0.764   0.000
  0.000   0.000  -0.000   0.000  -0.015  -0.000   0.000  -0.764
 total augmentation occupancy for first ion, spin component:           1
  1.468  -1.121   0.000  -0.001  -0.003   0.000   0.001  -0.001
 -1.121   1.059  -0.000  -0.007   0.003  -0.000  -0.002   0.001
  0.000  -0.000   1.222  -0.000   0.003   0.228   0.000   0.001
 -0.001  -0.007  -0.000   0.927  -0.000   0.000   0.105  -0.000
 -0.003   0.003   0.003  -0.000   1.221   0.001  -0.000   0.228
  0.000  -0.000   0.228   0.000   0.001   0.048   0.000   0.000
  0.001  -0.002   0.000   0.105  -0.000   0.000   0.013  -0.000
 -0.001   0.001   0.001  -0.000   0.228   0.000  -0.000   0.048


------------------------ aborting loop because EDIFF is reached ----------------------------------------


    CHARGE:  cpu time   11.13: real time   11.13
    FORLOC:  cpu time    0.16: real time    0.16
    FORNL :  cpu time   69.69: real time   69.72
    STRESS:  cpu time  126.91: real time  126.97
    FORHAR:  cpu time    0.55: real time    0.55
    MIXING:  cpu time    0.10: real time    0.11
    OFIELD:  cpu time    0.00: real time    0.00

 ---------------------------------------------------------------------------------------------

         DFTD3 V3.0 Rev 1        
 IVDW         = 12
 DF pbe       
 parameters
 VDW_S6       =    1.0000
 VDW_S8       =    0.7875
 VDW_A1       =    0.4289
 VDW_A2       =    4.4407
 k1-k3        =   16.0000    1.3333   -4.0000
 VDW_RADIUS   =   50.2022 A
 VDW_CNRADIUS =   21.1671 A
 Edisp (eV)   -4.84014

 E6    (eV) :    -3.4736
 E8    (eV) :    -1.3665
 % E8        : 28.23
    FORVDW:  cpu time    0.22: real time    0.22

  FORCE on cell =-STRESS in cart. coord.  units (eV):
  Direction    XX          YY          ZZ          XY          YZ          ZX
  --------------------------------------------------------------------------------------
  Alpha Z   287.16055   287.16055   287.16055
  Ewald     754.88478   754.41161 -5057.79240     0.32664     0.00059    -0.00909
  Hartree  1383.79190  1383.80565 -1203.27995     0.11584     0.00029    -0.00226
  E(xc)    -467.47119  -467.47782  -484.91791    -0.00281     0.00005    -0.00012
  Local   -3756.03362 -3755.68244  4374.34431    -0.40028    -0.00003     0.00760
  n-local  -111.74168  -111.85531  -102.38078    -0.09377     0.00078    -0.00171
  augment   -12.36286   -12.36191   -11.33394    -0.00033    -0.00001     0.00005
  Kinetic  1922.13732  1922.89725  2202.31783     0.52538    -0.01094     0.02510
  Fock        0.00000     0.00000     0.00000     0.00000     0.00000     0.00000
  vdW        -0.78774    -0.77826    -5.82532     0.00787    -0.00000    -0.00001
  -------------------------------------------------------------------------------------
  Total      -0.42253     0.11934    -1.70759     0.47854    -0.00928     0.01955
  in kB      -2.32989     0.65807    -9.41603     2.63876    -0.05115     0.10781
  external pressure =       -3.70 kB  Pullay stress =        0.00 kB


 VOLUME and BASIS-vectors are now :
 -----------------------------------------------------------------------------
  energy-cutoff  :      800.00
  volume of cell :      290.55
      direct lattice vectors                 reciprocal lattice vectors
     4.932874498 -0.001919286  0.000000000     0.202767147  0.117172881  0.000000000
    -2.468099399  4.271034986  0.000000000     0.000091118  0.234187941  0.000000000
     0.000000000  0.000000000 13.794041515     0.000000000  0.000000000  0.072495070

  length of vectors
     4.932874871  4.932874871 13.794041515     0.234187958  0.234187958  0.072495070


 FORCES acting on ions
    electron-ion (+dipol)            ewald-force                    non-local-force                 convergence-correction
 -----------------------------------------------------------------------------------------------
   -.857E+00 0.649E-01 0.180E+01   0.956E+00 -.592E-01 -.184E+01   0.859E-01 0.308E-02 0.173E+00   -.214E-04 -.185E-04 0.299E-03
   0.724E-01 0.668E-01 -.390E+00   -.105E+00 -.620E-01 0.372E+00   -.248E-01 0.300E-02 0.212E-01   -.130E-04 -.181E-04 0.312E-03
   -.975E-01 -.313E-01 -.390E+00   0.890E-01 0.502E-01 0.372E+00   -.143E-01 0.894E-02 0.211E-01   -.169E-04 -.208E-04 0.313E-03
   -.980E-01 0.165E+00 -.390E+00   0.893E-01 -.175E+00 0.372E+00   -.143E-01 -.315E-02 0.213E-01   -.161E-04 -.159E-04 0.313E-03
   -.115E+00 0.675E-01 0.939E-01   0.108E+00 -.621E-01 -.943E-01   -.461E-02 0.310E-02 -.309E-02   0.118E-03 -.102E-04 -.173E-03
   -.115E+00 0.675E-01 0.933E-01   0.107E+00 -.621E-01 -.937E-01   -.460E-02 0.310E-02 -.312E-02   0.116E-03 -.971E-05 -.173E-03
   -.115E+00 0.675E-01 0.933E-01   0.108E+00 -.621E-01 -.937E-01   -.461E-02 0.309E-02 -.312E-02   0.117E-03 -.987E-05 -.173E-03
   -.115E+00 0.675E-01 0.933E-01   0.108E+00 -.622E-01 -.937E-01   -.461E-02 0.310E-02 -.312E-02   0.117E-03 -.109E-04 -.173E-03
   0.117E+00 -.657E-01 0.842E-01   -.108E+00 0.586E-01 -.820E-01   0.524E-02 -.351E-02 0.319E-02   0.407E-04 -.162E-04 -.172E-02
   0.117E+00 -.724E-01 0.839E-01   -.108E+00 0.655E-01 -.819E-01   0.533E-02 -.364E-02 0.341E-02   0.406E-04 -.160E-04 -.172E-02
   0.122E+00 -.691E-01 0.840E-01   -.114E+00 0.621E-01 -.818E-01   0.540E-02 -.367E-02 0.329E-02   0.401E-04 -.169E-04 -.172E-02
   0.110E+00 -.692E-01 0.133E+00   -.101E+00 0.622E-01 -.131E+00   0.520E-02 -.361E-02 0.296E-02   0.407E-04 -.165E-04 -.172E-02
   0.116E+00 -.621E-01 0.806E-01   -.108E+00 0.585E-01 -.818E-01   0.523E-02 -.246E-02 0.330E-02   0.409E-04 -.294E-04 0.157E-02
   0.116E+00 -.692E-01 0.807E-01   -.108E+00 0.658E-01 -.817E-01   0.511E-02 -.259E-02 0.307E-02   0.422E-04 -.304E-04 0.157E-02
   0.122E+00 -.655E-01 0.807E-01   -.114E+00 0.621E-01 -.818E-01   0.529E-02 -.243E-02 0.319E-02   0.425E-04 -.296E-04 0.157E-02
   0.109E+00 -.654E-01 0.131E+00   -.101E+00 0.620E-01 -.132E+00   0.509E-02 -.250E-02 0.301E-02   0.411E-04 -.291E-04 0.157E-02
   0.197E+00 -.664E-01 -.327E+00   -.182E+00 0.621E-01 0.325E+00   0.573E-02 -.261E-02 -.989E-02   0.234E-04 0.155E-04 0.310E-03
   -.108E+00 -.595E-01 -.851E+00   0.120E+00 0.543E-01 0.883E+00   -.185E-01 -.227E-02 -.795E-01   0.189E-04 0.155E-04 0.315E-03
   0.438E+00 0.250E+00 -.855E+00   -.477E+00 -.284E+00 0.888E+00   -.117E-01 0.131E-02 -.798E-01   0.208E-04 0.159E-04 0.315E-03
   0.448E+00 -.386E+00 -.847E+00   -.488E+00 0.412E+00 0.878E+00   -.106E-01 -.705E-02 -.792E-01   0.210E-04 0.145E-04 0.315E-03
   0.113E+00 -.665E-01 0.934E-01   -.107E+00 0.619E-01 -.936E-01   0.396E-02 -.270E-02 0.882E-03   -.116E-03 0.939E-05 -.175E-03
   0.113E+00 -.665E-01 0.937E-01   -.107E+00 0.619E-01 -.939E-01   0.396E-02 -.270E-02 0.877E-03   -.114E-03 0.904E-05 -.175E-03
   0.113E+00 -.665E-01 0.937E-01   -.107E+00 0.619E-01 -.939E-01   0.396E-02 -.270E-02 0.875E-03   -.114E-03 0.890E-05 -.175E-03
   0.113E+00 -.665E-01 0.937E-01   -.107E+00 0.619E-01 -.939E-01   0.396E-02 -.270E-02 0.875E-03   -.115E-03 0.993E-05 -.175E-03
   -.133E+00 0.765E-01 0.949E-01   0.125E+00 -.702E-01 -.929E-01   -.482E-02 0.321E-02 -.123E-02   -.409E-04 0.173E-04 -.172E-02
   -.975E-01 0.802E-01 0.107E+00   0.892E-01 -.740E-01 -.105E+00   -.486E-02 0.331E-02 -.933E-03   -.434E-04 0.174E-04 -.172E-02
   -.118E+00 0.479E-01 0.101E+00   0.110E+00 -.414E-01 -.990E-01   -.492E-02 0.329E-02 -.109E-02   -.427E-04 0.195E-04 -.172E-02
   -.113E+00 0.683E-01 0.793E-01   0.104E+00 -.620E-01 -.773E-01   -.473E-02 0.327E-02 -.704E-03   -.420E-04 0.184E-04 -.172E-02
   -.962E-01 0.524E-01 0.104E+00   0.890E-01 -.494E-01 -.106E+00   -.439E-02 0.207E-02 -.101E-02   -.444E-04 0.309E-04 0.157E-02
   -.132E+00 0.563E-01 0.914E-01   0.125E+00 -.536E-01 -.925E-01   -.438E-02 0.217E-02 -.128E-02   -.443E-04 0.318E-04 0.157E-02
   -.117E+00 0.851E-01 0.976E-01   0.111E+00 -.826E-01 -.990E-01   -.446E-02 0.211E-02 -.111E-02   -.450E-04 0.307E-04 0.157E-02
   -.111E+00 0.646E-01 0.760E-01   0.104E+00 -.619E-01 -.771E-01   -.427E-02 0.212E-02 -.743E-03   -.433E-04 0.304E-04 0.157E-02
 -----------------------------------------------------------------------------------------------
   -.511E-04 0.155E-04 0.397E-02   0.211E-13 0.167E-13 0.128E-12   0.308E-04 -.138E-04 -.390E-02   0.818E-05 -.282E-05 -.839E-04
 
 
 POSITION                                       TOTAL-FORCE (eV/Angst)
 -----------------------------------------------------------------------------------
      2.46065      0.00044      1.71484         0.186571      0.008726      0.132550
      4.93046     -0.00052      1.72426        -0.058905      0.007835      0.003570
      1.22997      2.13595      1.72426        -0.023164      0.028478      0.003639
      3.69641      2.13499      1.72426        -0.023271     -0.012831      0.003588
      2.46402      0.00044      8.62128        -0.011625      0.008522     -0.003612
      4.93046     -0.00052      8.62128        -0.011649      0.008522     -0.003633
      1.22997      2.13595      8.62128        -0.011640      0.008527     -0.003633
      3.69641      2.13499      8.62128        -0.011640      0.008516     -0.003633
     -1.23163      2.13412      5.17277         0.014400     -0.010674      0.003728
      1.23481      2.13316      5.17277         0.014532     -0.010596      0.003774
     -2.46568      4.26964      5.17277         0.014401     -0.010751      0.003749
      0.00076      4.26868      5.17277         0.014536     -0.010661      0.003222
     -1.23163      2.13412     12.06979         0.013919     -0.006106      0.003701
      1.23481      2.13316     12.06979         0.013778     -0.006037      0.003649
     -2.46568      4.26964     12.06979         0.013789     -0.005938      0.003676
      0.00076      4.26868     12.06979         0.013912     -0.006007      0.003298
     -0.00332      1.42496      1.72426         0.020218     -0.006924     -0.011868
      2.46311      1.42400      1.72426        -0.006451     -0.007405     -0.047361
     -1.23737      3.56047      1.72426        -0.051239     -0.032737     -0.046963
      1.22906      3.55952      1.72426        -0.050787      0.018639     -0.047680
     -0.00332      1.42496      8.62128         0.009700     -0.007320      0.000531
      2.46311      1.42400      8.62128         0.009700     -0.007320      0.000521
     -1.23737      3.56047      8.62128         0.009699     -0.007321      0.000519
      1.22906      3.55952      8.62128         0.009698     -0.007319      0.000518
      1.23571      0.70960      5.17277        -0.012972      0.009603     -0.000848
      3.70215      0.70864      5.17277        -0.013311      0.009525     -0.000875
      0.00166      2.84512      5.17277        -0.013071      0.009846     -0.000871
      2.46810      2.84416      5.17277        -0.013213      0.009662     -0.000312
      1.23571      0.70960     12.06979        -0.011697      0.005056     -0.000914
      3.70215      0.70864     12.06979        -0.011263      0.004973     -0.000857
      0.00166      2.84512     12.06979        -0.011408      0.004629     -0.000856
      2.46810      2.84416     12.06979        -0.011548      0.004887     -0.000316
 -----------------------------------------------------------------------------------
    total drift:                               -0.000012     -0.000001     -0.000017


--------------------------------------------------------------------------------------------------------



  FREE ENERGIE OF THE ION-ELECTRON SYSTEM (eV)
  ---------------------------------------------------
  free  energy   TOTEN  =      -299.82315640 eV

  energy  without entropy=     -299.82315640  energy(sigma->0) =     -299.82315640
 


--------------------------------------------------------------------------------------------------------


    POTLOK:  cpu time    2.12: real time    2.12


--------------------------------------------------------------------------------------------------------


     LOOP+:  cpu time13783.06: real time22832.67
    4ORBIT:  cpu time    0.00: real time    0.00
 BZINTS: Fermi energy:  4.435417;128.000000 electrons
         Band energy:-598.026822;  BLOECHL correction: -0.000000

 total amount of memory used by VASP on root node   415501. kBytes
========================================================================

   base      :      30000. kBytes
   nonl-proj :      80575. kBytes
   fftplans  :      14475. kBytes
   grid      :      30806. kBytes
   one-center:         98. kBytes
   wavefun   :     259547. kBytes
 
  
  
 General timing and accounting informations for this job:
 ========================================================
  
                  Total CPU time used (sec):    13934.572
                            User time (sec):     6300.419
                          System time (sec):     7634.153
                         Elapsed time (sec):    23135.998
  
                   Maximum memory used (kb):      507456.
                   Average memory used (kb):           0.
  
                          Minor page faults:     52032421
                          Major page faults:            0
                 Voluntary context switches:         1114
