 vasp.5.3.5 31Mar14 (build Nov 02 2014 15:17:37) complex                        
  
 executed on        ion-Intel-MKL date 2016.10.20  10:38:33
 running on    6 total cores
 distrk:  each k-point on    6 cores,    1 groups
 distr:  one band on NCORES_PER_BAND=   1 cores,    6 groups


--------------------------------------------------------------------------------------------------------


 INCAR:
 POTCAR:   PAW_PBE C 08Apr2002                    

 ----------------------------------------------------------------------------- 
|                                                                             |
|           W    W    AA    RRRRR   N    N  II  N    N   GGGG   !!!           |
|           W    W   A  A   R    R  NN   N  II  NN   N  G    G  !!!           |
|           W    W  A    A  R    R  N N  N  II  N N  N  G       !!!           |
|           W WW W  AAAAAA  RRRRR   N  N N  II  N  N N  G  GGG   !            |
|           WW  WW  A    A  R   R   N   NN  II  N   NN  G    G                |
|           W    W  A    A  R    R  N    N  II  N    N   GGGG   !!!           |
|                                                                             |
|      For optimal performance we recommend to set                            |
|        NCORE= 4 - approx SQRT( number of cores)                             |
|      NCORE specifies how many cores store one orbital (NPAR=cpu/NCORE).     |
|      This setting can  greatly improve the performance of VASP for DFT.     |
|      The default, NPAR=number of cores might be grossly inefficient         |
|      on modern multi-core architectures or massively parallel machines.     |
|      Do your own testing !!!!                                               |
|      Unfortunately you need to use the default for GW and RPA calculations. |
|      (for HF NCORE is supported but not extensively tested yet)             |
|                                                                             |
 ----------------------------------------------------------------------------- 

 POTCAR:   PAW_PBE C 08Apr2002                    
   VRHFIN =C: s2p2                                                              
   LEXCH  = PE                                                                  
   EATOM  =   147.1560 eV,   10.8157 Ry                                         
                                                                                
   TITEL  = PAW_PBE C 08Apr2002                                                 
   LULTRA =        F    use ultrasoft PP ?                                      
   IUNSCR =        0    unscreen: 0-lin 1-nonlin 2-no                           
   RPACOR =     .000    partial core radius                                     
   POMASS =   12.011; ZVAL   =    4.000    mass and valenz                      
   RCORE  =    1.500    outmost cutoff radius                                   
   RWIGS  =    1.630; RWIGS  =     .863    wigner-seitz radius (au A)           
   ENMAX  =  400.000; ENMIN  =  300.000 eV                                      
   ICORE  =        2    local potential                                         
   LCOR   =        T    correct aug charges                                     
   LPAW   =        T    paw PP                                                  
   EAUG   =  644.873                                                            
   DEXC   =     .000                                                            
   RMAX   =    2.266    core radius for proj-oper                               
   RAUG   =    1.300    factor for augmentation sphere                          
   RDEP   =    1.501    radius for radial grids                                 
   RDEPT  =    1.300    core radius for aug-charge                              
   QCUT   =   -5.516; QGAM   =   11.032    optimization parameters              
                                                                                
   Description                                                                  
     l     E      TYP  RCUT    TYP  RCUT                                        
     0   .000     23  1.200                                                     
     0   .000     23  1.200                                                     
     1   .000     23  1.500                                                     
     1  2.500     23  1.500                                                     
     2   .000      7  1.500                                                     
  local pseudopotential read in
  atomic valenz-charges read in
  non local Contribution for L=           0  read in
    real space projection operators read in
  non local Contribution for L=           0  read in
    real space projection operators read in
  non local Contribution for L=           1  read in
    real space projection operators read in
  non local Contribution for L=           1  read in
    real space projection operators read in
    PAW grid and wavefunctions read in
 
   number of l-projection  operators is LMAX  =           4
   number of lm-projection operators is LMMAX =           8
 

 ----------------------------------------------------------------------------- 
|                                                                             |
|  ADVICE TO THIS USER RUNNING 'VASP/VAMP'   (HEAR YOUR MASTER'S VOICE ...):  |
|                                                                             |
|      You have a (more or less) 'large supercell' and for larger cells       |
|      it might be more efficient to use real space projection operators      |
|      So try LREAL= Auto  in the INCAR   file.                               |
|      Mind: If you want to do a very accurate calculations keep the          |
|      reciprocal projection scheme          (i.e. LREAL=.FALSE.)             |
|                                                                             |
 ----------------------------------------------------------------------------- 

 PAW_PBE C 08Apr2002                    :
 energy of atom  1       EATOM= -147.1560
 kinetic energy error for atom=    0.0016 (will be added to EATOM!!)
 
 
 POSCAR: C                                       
  positions in direct lattice
  No initial velocities read in
 exchange correlation table for  LEXCH =        8
   RHO(1)=    0.500       N(1)  =     2000
   RHO(2)=  100.500       N(2)  =     4000
 


--------------------------------------------------------------------------------------------------------


 ion  position               nearest neighbor table
   1  0.499  0.000  0.124-  19 1.42  18 1.42  20 1.43
   2  1.000  0.000  0.125-  17 1.42  20 1.42  19 1.42
   3  0.500  0.500  0.125-  20 1.42  17 1.42  18 1.42
   4  1.000  0.500  0.125-  19 1.42  18 1.42  17 1.42
   5  0.500  0.000  0.625-  22 1.42  23 1.42  24 1.42
   6  1.000  0.000  0.625-  21 1.42  24 1.42  23 1.42
   7  0.500  0.500  0.625-  24 1.42  21 1.42  22 1.42
   8  1.000  0.500  0.625-  23 1.42  22 1.42  21 1.42
   9  0.000  0.500  0.375-  27 1.42  26 1.42  28 1.42
  10  0.500  0.500  0.375-  28 1.42  25 1.42  27 1.42
  11  0.000  1.000  0.375-  25 1.42  28 1.42  26 1.42
  12  0.500  1.000  0.375-  26 1.42  27 1.42  25 1.42
  13  0.000  0.500  0.875-  31 1.42  30 1.42  32 1.42
  14  0.500  0.500  0.875-  32 1.42  29 1.42  31 1.42
  15  0.000  1.000  0.875-  29 1.42  32 1.42  30 1.42
  16  0.500  1.000  0.875-  30 1.42  31 1.42  29 1.42
  17  0.166  0.334  0.125-   2 1.42   3 1.42   4 1.42
  18  0.666  0.334  0.125-   4 1.42   1 1.42   3 1.42
  19  0.166  0.834  0.125-   1 1.42   4 1.42   2 1.42
  20  0.666  0.834  0.125-   3 1.42   2 1.42   1 1.43
  21  0.166  0.334  0.625-   6 1.42   7 1.42   8 1.42
  22  0.666  0.334  0.625-   5 1.42   8 1.42   7 1.42
  23  0.166  0.834  0.625-   8 1.42   5 1.42   6 1.42
  24  0.666  0.834  0.625-   7 1.42   6 1.42   5 1.42
  25  0.334  0.166  0.375-  11 1.42  10 1.42  12 1.42
  26  0.834  0.166  0.375-  12 1.42   9 1.42  11 1.42
  27  0.334  0.666  0.375-   9 1.42  12 1.42  10 1.42
  28  0.834  0.666  0.375-  10 1.42  11 1.42   9 1.42
  29  0.334  0.166  0.875-  15 1.42  14 1.42  16 1.42
  30  0.834  0.166  0.875-  16 1.42  13 1.42  15 1.42
  31  0.334  0.666  0.875-  13 1.42  16 1.42  14 1.42
  32  0.834  0.666  0.875-  14 1.42  15 1.42  13 1.42
 
  LATTYP: Found a base centered orthorhombic cell.
 ALAT       =     4.9295501972
 B/A-ratio  =     1.7336081796
 C/A-ratio  =     2.7982353283
  
  Lattice vectors:
  
 A1 = (   4.9328744980,  -0.0019192860,   0.0000000000)
 A2 = (  -2.4680993993,   4.2710349859,   0.0000000000)
 A3 = (   0.0000000000,   0.0000000000,  13.7940415145)


Analysis of symmetry for initial positions (statically):
=====================================================================
 Subroutine PRICEL returns:
 Original cell was already a primitive cell.
 

 Routine SETGRP: Setting up the symmetry group for a 
 base centered orthorhombic supercell.


 Subroutine GETGRP returns: Found  1 space group operations
 (whereof  1 operations were pure point group operations)
 out of a pool of  8 trial point group operations.


The static configuration has the point symmetry C_1 .


Analysis of symmetry for dynamics (positions and initial velocities):
=====================================================================
 Subroutine PRICEL returns:
 Original cell was already a primitive cell.
 

 Routine SETGRP: Setting up the symmetry group for a 
 base centered orthorhombic supercell.


 Subroutine GETGRP returns: Found  1 space group operations
 (whereof  1 operations were pure point group operations)
 out of a pool of  8 trial point group operations.


The dynamic configuration has the point symmetry C_1 .
 
 
 KPOINTS: B4C B11C-CBC                            

Automatic generation of k-mesh.
Space group operators:
 irot       det(A)        alpha          n_x          n_y          n_z        tau_x        tau_y        tau_z
    1     1.000000     0.000000     1.000000     0.000000     0.000000     0.000000     0.000000     0.000000
 
 Subroutine IBZKPT returns following result:
 ===========================================
 
 Found     76 irreducible k-points:
 
 Following reciprocal coordinates:
            Coordinates               Weight
  0.000000  0.000000  0.000000      1.000000
  0.166667  0.000000  0.000000      2.000000
  0.333333  0.000000  0.000000      2.000000
  0.500000  0.000000  0.000000      1.000000
  0.000000  0.166667  0.000000      2.000000
  0.166667  0.166667  0.000000      2.000000
  0.333333  0.166667  0.000000      2.000000
  0.500000  0.166667  0.000000      2.000000
 -0.333333  0.166667  0.000000      2.000000
 -0.166667  0.166667  0.000000      2.000000
  0.000000  0.333333  0.000000      2.000000
  0.166667  0.333333  0.000000      2.000000
  0.333333  0.333333  0.000000      2.000000
  0.500000  0.333333  0.000000      2.000000
 -0.333333  0.333333  0.000000      2.000000
 -0.166667  0.333333  0.000000      2.000000
 -0.000000  0.500000  0.000000      1.000000
  0.166667  0.500000  0.000000      2.000000
  0.333333  0.500000  0.000000      2.000000
  0.500000  0.500000  0.000000      1.000000
  0.000000  0.000000  0.250000      2.000000
  0.166667  0.000000  0.250000      2.000000
  0.333333  0.000000  0.250000      2.000000
  0.500000  0.000000  0.250000      2.000000
 -0.333333  0.000000  0.250000      2.000000
 -0.166667  0.000000  0.250000      2.000000
  0.000000  0.166667  0.250000      2.000000
  0.166667  0.166667  0.250000      2.000000
  0.333333  0.166667  0.250000      2.000000
  0.500000  0.166667  0.250000      2.000000
 -0.333333  0.166667  0.250000      2.000000
 -0.166667  0.166667  0.250000      2.000000
  0.000000  0.333333  0.250000      2.000000
  0.166667  0.333333  0.250000      2.000000
  0.333333  0.333333  0.250000      2.000000
  0.500000  0.333333  0.250000      2.000000
 -0.333333  0.333333  0.250000      2.000000
 -0.166667  0.333333  0.250000      2.000000
 -0.000000  0.500000  0.250000      2.000000
  0.166667  0.500000  0.250000      2.000000
  0.333333  0.500000  0.250000      2.000000
  0.500000  0.500000  0.250000      2.000000
 -0.333333  0.500000  0.250000      2.000000
 -0.166667  0.500000  0.250000      2.000000
 -0.000000 -0.333333  0.250000      2.000000
  0.166667 -0.333333  0.250000      2.000000
  0.333333 -0.333333  0.250000      2.000000
  0.500000 -0.333333  0.250000      2.000000
 -0.333333 -0.333333  0.250000      2.000000
 -0.166667 -0.333333  0.250000      2.000000
  0.000000 -0.166667  0.250000      2.000000
  0.166667 -0.166667  0.250000      2.000000
  0.333333 -0.166667  0.250000      2.000000
  0.500000 -0.166667  0.250000      2.000000
 -0.333333 -0.166667  0.250000      2.000000
 -0.166667 -0.166667  0.250000      2.000000
  0.000000  0.000000  0.500000      1.000000
  0.166667  0.000000  0.500000      2.000000
  0.333333  0.000000  0.500000      2.000000
  0.500000  0.000000  0.500000      1.000000
  0.000000  0.166667  0.500000      2.000000
  0.166667  0.166667  0.500000      2.000000
  0.333333  0.166667  0.500000      2.000000
  0.500000  0.166667  0.500000      2.000000
 -0.333333  0.166667  0.500000      2.000000
 -0.166667  0.166667  0.500000      2.000000
  0.000000  0.333333  0.500000      2.000000
  0.166667  0.333333  0.500000      2.000000
  0.333333  0.333333  0.500000      2.000000
  0.500000  0.333333  0.500000      2.000000
 -0.333333  0.333333  0.500000      2.000000
 -0.166667  0.333333  0.500000      2.000000
 -0.000000  0.500000  0.500000      1.000000
  0.166667  0.500000  0.500000      2.000000
  0.333333  0.500000  0.500000      2.000000
  0.500000  0.500000  0.500000      1.000000
 
 Following cartesian coordinates:
            Coordinates               Weight
  0.000000  0.000000  0.000000      1.000000
  0.033795  0.019529  0.000000      2.000000
  0.067589  0.039058  0.000000      2.000000
  0.101384  0.058586  0.000000      1.000000
  0.000015  0.039031  0.000000      2.000000
  0.033810  0.058560  0.000000      2.000000
  0.067604  0.078089  0.000000      2.000000
  0.101399  0.097618  0.000000      2.000000
 -0.067574 -0.000026  0.000000      2.000000
 -0.033779  0.019503  0.000000      2.000000
  0.000030  0.078063  0.000000      2.000000
  0.033825  0.097591  0.000000      2.000000
  0.067619  0.117120  0.000000      2.000000
  0.101414  0.136649  0.000000      2.000000
 -0.067559  0.039005  0.000000      2.000000
 -0.033764  0.058534  0.000000      2.000000
  0.000046  0.117094  0.000000      1.000000
  0.033840  0.136623  0.000000      2.000000
  0.067635  0.156152  0.000000      2.000000
  0.101429  0.175680  0.000000      1.000000
  0.000000  0.000000  0.018124      2.000000
  0.033795  0.019529  0.018124      2.000000
  0.067589  0.039058  0.018124      2.000000
  0.101384  0.058586  0.018124      2.000000
 -0.067589 -0.039058  0.018124      2.000000
 -0.033795 -0.019529  0.018124      2.000000
  0.000015  0.039031  0.018124      2.000000
  0.033810  0.058560  0.018124      2.000000
  0.067604  0.078089  0.018124      2.000000
  0.101399  0.097618  0.018124      2.000000
 -0.067574 -0.000026  0.018124      2.000000
 -0.033779  0.019503  0.018124      2.000000
  0.000030  0.078063  0.018124      2.000000
  0.033825  0.097591  0.018124      2.000000
  0.067619  0.117120  0.018124      2.000000
  0.101414  0.136649  0.018124      2.000000
 -0.067559  0.039005  0.018124      2.000000
 -0.033764  0.058534  0.018124      2.000000
  0.000046  0.117094  0.018124      2.000000
  0.033840  0.136623  0.018124      2.000000
  0.067635  0.156152  0.018124      2.000000
  0.101429  0.175680  0.018124      2.000000
 -0.067543  0.078036  0.018124      2.000000
 -0.033749  0.097565  0.018124      2.000000
 -0.000030 -0.078063  0.018124      2.000000
  0.033764 -0.058534  0.018124      2.000000
  0.067559 -0.039005  0.018124      2.000000
  0.101353 -0.019476  0.018124      2.000000
 -0.067619 -0.117120  0.018124      2.000000
 -0.033825 -0.097591  0.018124      2.000000
 -0.000015 -0.039031  0.018124      2.000000
  0.033779 -0.019503  0.018124      2.000000
  0.067574  0.000026  0.018124      2.000000
  0.101368  0.019555  0.018124      2.000000
 -0.067604 -0.078089  0.018124      2.000000
 -0.033810 -0.058560  0.018124      2.000000
  0.000000  0.000000  0.036248      1.000000
  0.033795  0.019529  0.036248      2.000000
  0.067589  0.039058  0.036248      2.000000
  0.101384  0.058586  0.036248      1.000000
  0.000015  0.039031  0.036248      2.000000
  0.033810  0.058560  0.036248      2.000000
  0.067604  0.078089  0.036248      2.000000
  0.101399  0.097618  0.036248      2.000000
 -0.067574 -0.000026  0.036248      2.000000
 -0.033779  0.019503  0.036248      2.000000
  0.000030  0.078063  0.036248      2.000000
  0.033825  0.097591  0.036248      2.000000
  0.067619  0.117120  0.036248      2.000000
  0.101414  0.136649  0.036248      2.000000
 -0.067559  0.039005  0.036248      2.000000
 -0.033764  0.058534  0.036248      2.000000
  0.000046  0.117094  0.036248      1.000000
  0.033840  0.136623  0.036248      2.000000
  0.067635  0.156152  0.036248      2.000000
  0.101429  0.175680  0.036248      1.000000
 
 TETIRR: Found    432 inequivalent tetrahedra from      864


--------------------------------------------------------------------------------------------------------




 Dimension of arrays:
   k-points           NKPTS =     76   k-points in BZ     NKDIM =     76   number of bands    NBANDS=     84
   number of dos      NEDOS =    301   number of ions     NIONS =     32
   non local maximal  LDIM  =      4   non local SUM 2l+1 LMDIM =      8
   total plane-waves  NPLWV = 294912
   max r-space proj   IRMAX =      1   max aug-charges    IRDMAX=  12176
   dimension x,y,z NGX =    48 NGY =   48 NGZ =  128
   dimension x,y,z NGXF=    96 NGYF=   96 NGZF=  256
   support grid    NGXF=    96 NGYF=   96 NGZF=  256
   ions per type =              32
 NGX,Y,Z   is equivalent  to a cutoff of  16.18, 16.18, 15.43 a.u.
 NGXF,Y,Z  is equivalent  to a cutoff of  32.35, 32.35, 30.85 a.u.


 I would recommend the setting:
   dimension x,y,z NGX =    46 NGY =   46 NGZ =  127
 SYSTEM =  graphite                                
 POSCAR =  C                                       

 Startparameter for this run:
   NWRITE =      2    write-flag & timer
   PREC   = accura    normal or accurate (medium, high low for compatibility)
   ISTART =      0    job   : 0-new  1-cont  2-samecut
   ICHARG =      2    charge: 1-file 2-atom 10-const
   ISPIN  =      1    spin polarized calculation?
   LNONCOLLINEAR =      F non collinear calculations
   LSORBIT =      F    spin-orbit coupling
   INIWAV =      1    electr: 0-lowe 1-rand  2-diag
   LASPH  =      F    aspherical Exc in radial PAW
   METAGGA=      F    non-selfconsistent MetaGGA calc.

 Electronic Relaxation 1
   ENCUT  =  800.0 eV  58.80 Ry    7.67 a.u.  11.38 11.38 31.81*2*pi/ulx,y,z
   ENINI  =  800.0     initial cutoff
   ENAUG  =  644.9 eV  augmentation charge cutoff
   NELM   =    200;   NELMIN=  2; NELMDL=  0     # of ELM steps 
   EDIFF  = 0.1E-07   stopping-criterion for ELM
   LREAL  =      F    real-space projection
   NLSPLINE    = F    spline interpolate recip. space projectors
   LCOMPAT=      F    compatible to vasp.4.4
   GGA_COMPAT  = T    GGA compatible to vasp.4.4-vasp.4.6
   LMAXPAW     = -100 max onsite density
   LMAXMIX     =    2 max onsite mixed and CHGCAR
   VOSKOWN=      0    Vosko Wilk Nusair interpolation
   ROPT   =    0.00000
 Ionic relaxation
   EDIFFG = 0.1E-02   stopping-criterion for IOM
   NSW    =      0    number of steps for IOM
   NBLOCK =      1;   KBLOCK =      1    inner block; outer block 
   IBRION =     -1    ionic relax: 0-MD 1-quasi-New 2-CG
   NFREE  =      0    steps in history (QN), initial steepest desc. (CG)
   ISIF   =      2    stress and relaxation
   IWAVPR =     10    prediction:  0-non 1-charg 2-wave 3-comb
   ISYM   =      2    0-nonsym 1-usesym 2-fastsym
   LCORR  =      T    Harris-Foulkes like correction to forces

   POTIM  = 0.5000    time-step for ionic-motion
   TEIN   =    0.0    initial temperature
   TEBEG  =    0.0;   TEEND  =   0.0 temperature during run
   SMASS  =  -3.00    Nose mass-parameter (am)
   estimated Nose-frequenzy (Omega)   =  0.10E-29 period in steps =****** mass=  -0.556E-27a.u.
   SCALEE = 1.0000    scale energy and forces
   NPACO  =    256;   APACO  = 16.0  distance and # of slots for P.C.
   PSTRESS=    0.0 pullay stress

  Mass of Ions in am
   POMASS =  12.01
  Ionic Valenz
   ZVAL   =   4.00
  Atomic Wigner-Seitz radii
   RWIGS  =  -1.00
  virtual crystal weights 
   VCA    =   1.00
   NELECT =     128.0000    total number of electrons
   NUPDOWN=      -1.0000    fix difference up-down

 DOS related values:
   EMIN   =  10.00;   EMAX   =-10.00  energy-range for DOS
   EFERMI =   0.00
   ISMEAR =    -5;   SIGMA  =   0.20  broadening in eV -4-tet -1-fermi 0-gaus

 Electronic relaxation 2 (details)
   IALGO  =     38    algorithm
   LDIAG  =      T    sub-space diagonalisation (order eigenvalues)
   LSUBROT=      F    optimize rotation matrix (better conditioning)
   TURBO    =      0    0=normal 1=particle mesh
   IRESTART =      0    0=no restart 2=restart with 2 vectors
   NREBOOT  =      0    no. of reboots
   NMIN     =      0    reboot dimension
   EREF     =   0.00    reference energy to select bands
   IMIX   =      4    mixing-type and parameters
     AMIX     =   0.40;   BMIX     =  1.00
     AMIX_MAG =   1.60;   BMIX_MAG =  1.00
     AMIN     =   0.10
     WC   =   100.;   INIMIX=   1;  MIXPRE=   1;  MAXMIX= -45

 Intra band minimization:
   WEIMIN = 0.0000     energy-eigenvalue tresh-hold
   EBREAK =  0.30E-10  absolut break condition
   DEPER  =   0.30     relativ break condition  

   TIME   =   0.40     timestep for ELM

  volume/ion in A,a.u.               =       9.08        61.27
  Fermi-wavevector in a.u.,A,eV,Ry     =   1.245668  2.353972 21.112023  1.551690
  Thomas-Fermi vector in A             =   2.379880
 
 Write flags
   LWAVE  =      F    write WAVECAR
   LCHARG =      F    write CHGCAR
   LVTOT  =      F    write LOCPOT, total local potential
   LVHAR  =      F    write LOCPOT, Hartree potential only
   LELF   =      F    write electronic localiz. function (ELF)
   LORBIT =      0    0 simple, 1 ext, 2 COOP (PROOUT)


 Dipole corrections
   LMONO  =      F    monopole corrections only (constant potential shift)
   LDIPOL =      F    correct potential (dipole corrections)
   IDIPOL =      0    1-x, 2-y, 3-z, 4-all directions 
   EPSILON=  1.0000000 bulk dielectric constant

 Exchange correlation treatment:
   GGA     =    PE    GGA type
   LEXCH   =     8    internal setting for exchange type
   VOSKOWN=      0    Vosko Wilk Nusair interpolation
   LHFCALC =     F    Hartree Fock is set to
   LHFONE  =     F    Hartree Fock one center treatment
   AEXX    =    0.0000 exact exchange contribution

 Linear response parameters
   LEPSILON=     F    determine dielectric tensor
   LRPA    =     F    only Hartree local field effects (RPA)
   LNABLA  =     F    use nabla operator in PAW spheres
   LVEL    =     F    velocity operator in full k-point grid
   LINTERFAST=   F  fast interpolation
   KINTER  =     0    interpolate to denser k-point grid
   CSHIFT  =0.1000    complex shift for real part using Kramers Kronig
   OMEGAMAX=  -1.0    maximum frequency
   DEG_THRESHOLD= 0.2000000E-02 threshold for treating states as degnerate
   RTIME   =    0.100 relaxation time in fs

 Orbital magnetization related:
   ORBITALMAG=     F  switch on orbital magnetization
   LCHIMAG   =     F  perturbation theory with respect to B field
   DQ        =  0.001000  dq finite difference perturbation B field



--------------------------------------------------------------------------------------------------------


 Static calculation
 charge density and potential will be updated during run
 non-spin polarized calculation
 Variant of blocked Davidson
 Davidson routine will perform the subspace rotation
 perform sub-space diagonalisation
    after iterative eigenvector-optimisation
 modified Broyden-mixing scheme, WC =      100.0
 initial mixing is a Kerker type mixing with AMIX =  0.4000 and BMIX =      1.0000
 Hartree-type preconditioning will be used
 using additional bands           20
 reciprocal scheme for non local part
 calculate Harris-corrections to forces 
   (improved forces if not selfconsistent)
 use gradient corrections 
 use of overlap-Matrix (Vanderbilt PP)
 Fermi weights with tetrahedron method with Bloechl corrections


--------------------------------------------------------------------------------------------------------


  energy-cutoff  :      800.00
  volume of cell :      290.55
      direct lattice vectors                 reciprocal lattice vectors
     4.932874498 -0.001919286  0.000000000     0.202767147  0.117172881  0.000000000
    -2.468099399  4.271034986  0.000000000     0.000091118  0.234187941  0.000000000
     0.000000000  0.000000000 13.794041515     0.000000000  0.000000000  0.072495070

  length of vectors
     4.932874871  4.932874871 13.794041515     0.234187958  0.234187958  0.072495070


 
 k-points in units of 2pi/SCALE and weight: B4C B11C-CBC                            
   0.00000000  0.00000000  0.00000000       0.007
   0.03379452  0.01952881  0.00000000       0.014
   0.06758905  0.03905763  0.00000000       0.014
   0.10138357  0.05858644  0.00000000       0.007
   0.00001519  0.03903132  0.00000000       0.014
   0.03380971  0.05856014  0.00000000       0.014
   0.06760424  0.07808895  0.00000000       0.014
   0.10139876  0.09761776  0.00000000       0.014
  -0.06757386 -0.00002630  0.00000000       0.014
  -0.03377934  0.01950251  0.00000000       0.014
   0.00003037  0.07806265  0.00000000       0.014
   0.03382490  0.09759146  0.00000000       0.014
   0.06761942  0.11712027  0.00000000       0.014
   0.10141395  0.13664909  0.00000000       0.014
  -0.06755868  0.03900502  0.00000000       0.014
  -0.03376415  0.05853383  0.00000000       0.014
   0.00004556  0.11709397  0.00000000       0.007
   0.03384008  0.13662278  0.00000000       0.014
   0.06763461  0.15615160  0.00000000       0.014
   0.10142913  0.17568041  0.00000000       0.007
   0.00000000  0.00000000  0.01812377       0.014
   0.03379452  0.01952881  0.01812377       0.014
   0.06758905  0.03905763  0.01812377       0.014
   0.10138357  0.05858644  0.01812377       0.014
  -0.06758905 -0.03905763  0.01812377       0.014
  -0.03379452 -0.01952881  0.01812377       0.014
   0.00001519  0.03903132  0.01812377       0.014
   0.03380971  0.05856014  0.01812377       0.014
   0.06760424  0.07808895  0.01812377       0.014
   0.10139876  0.09761776  0.01812377       0.014
  -0.06757386 -0.00002630  0.01812377       0.014
  -0.03377934  0.01950251  0.01812377       0.014
   0.00003037  0.07806265  0.01812377       0.014
   0.03382490  0.09759146  0.01812377       0.014
   0.06761942  0.11712027  0.01812377       0.014
   0.10141395  0.13664909  0.01812377       0.014
  -0.06755868  0.03900502  0.01812377       0.014
  -0.03376415  0.05853383  0.01812377       0.014
   0.00004556  0.11709397  0.01812377       0.014
   0.03384008  0.13662278  0.01812377       0.014
   0.06763461  0.15615160  0.01812377       0.014
   0.10142913  0.17568041  0.01812377       0.014
  -0.06754349  0.07803634  0.01812377       0.014
  -0.03374897  0.09756516  0.01812377       0.014
  -0.00003037 -0.07806265  0.01812377       0.014
   0.03376415 -0.05853383  0.01812377       0.014
   0.06755868 -0.03900502  0.01812377       0.014
   0.10135320 -0.01947621  0.01812377       0.014
  -0.06761942 -0.11712027  0.01812377       0.014
  -0.03382490 -0.09759146  0.01812377       0.014
  -0.00001519 -0.03903132  0.01812377       0.014
   0.03377934 -0.01950251  0.01812377       0.014
   0.06757386  0.00002630  0.01812377       0.014
   0.10136839  0.01955512  0.01812377       0.014
  -0.06760424 -0.07808895  0.01812377       0.014
  -0.03380971 -0.05856014  0.01812377       0.014
   0.00000000  0.00000000  0.03624753       0.007
   0.03379452  0.01952881  0.03624753       0.014
   0.06758905  0.03905763  0.03624753       0.014
   0.10138357  0.05858644  0.03624753       0.007
   0.00001519  0.03903132  0.03624753       0.014
   0.03380971  0.05856014  0.03624753       0.014
   0.06760424  0.07808895  0.03624753       0.014
   0.10139876  0.09761776  0.03624753       0.014
  -0.06757386 -0.00002630  0.03624753       0.014
  -0.03377934  0.01950251  0.03624753       0.014
   0.00003037  0.07806265  0.03624753       0.014
   0.03382490  0.09759146  0.03624753       0.014
   0.06761942  0.11712027  0.03624753       0.014
   0.10141395  0.13664909  0.03624753       0.014
  -0.06755868  0.03900502  0.03624753       0.014
  -0.03376415  0.05853383  0.03624753       0.014
   0.00004556  0.11709397  0.03624753       0.007
   0.03384008  0.13662278  0.03624753       0.014
   0.06763461  0.15615160  0.03624753       0.014
   0.10142913  0.17568041  0.03624753       0.007
 
 k-points in reciprocal lattice and weights: B4C B11C-CBC                            
   0.00000000  0.00000000  0.00000000       0.007
   0.16666667  0.00000000  0.00000000       0.014
   0.33333333  0.00000000  0.00000000       0.014
   0.50000000  0.00000000  0.00000000       0.007
   0.00000000  0.16666667  0.00000000       0.014
   0.16666667  0.16666667  0.00000000       0.014
   0.33333333  0.16666667  0.00000000       0.014
   0.50000000  0.16666667  0.00000000       0.014
  -0.33333333  0.16666667  0.00000000       0.014
  -0.16666667  0.16666667  0.00000000       0.014
   0.00000000  0.33333333  0.00000000       0.014
   0.16666667  0.33333333  0.00000000       0.014
   0.33333333  0.33333333  0.00000000       0.014
   0.50000000  0.33333333  0.00000000       0.014
  -0.33333333  0.33333333  0.00000000       0.014
  -0.16666667  0.33333333  0.00000000       0.014
  -0.00000000  0.50000000  0.00000000       0.007
   0.16666667  0.50000000  0.00000000       0.014
   0.33333333  0.50000000  0.00000000       0.014
   0.50000000  0.50000000  0.00000000       0.007
   0.00000000  0.00000000  0.25000000       0.014
   0.16666667  0.00000000  0.25000000       0.014
   0.33333333  0.00000000  0.25000000       0.014
   0.50000000  0.00000000  0.25000000       0.014
  -0.33333333  0.00000000  0.25000000       0.014
  -0.16666667  0.00000000  0.25000000       0.014
   0.00000000  0.16666667  0.25000000       0.014
   0.16666667  0.16666667  0.25000000       0.014
   0.33333333  0.16666667  0.25000000       0.014
   0.50000000  0.16666667  0.25000000       0.014
  -0.33333333  0.16666667  0.25000000       0.014
  -0.16666667  0.16666667  0.25000000       0.014
   0.00000000  0.33333333  0.25000000       0.014
   0.16666667  0.33333333  0.25000000       0.014
   0.33333333  0.33333333  0.25000000       0.014
   0.50000000  0.33333333  0.25000000       0.014
  -0.33333333  0.33333333  0.25000000       0.014
  -0.16666667  0.33333333  0.25000000       0.014
  -0.00000000  0.50000000  0.25000000       0.014
   0.16666667  0.50000000  0.25000000       0.014
   0.33333333  0.50000000  0.25000000       0.014
   0.50000000  0.50000000  0.25000000       0.014
  -0.33333333  0.50000000  0.25000000       0.014
  -0.16666667  0.50000000  0.25000000       0.014
  -0.00000000 -0.33333333  0.25000000       0.014
   0.16666667 -0.33333333  0.25000000       0.014
   0.33333333 -0.33333333  0.25000000       0.014
   0.50000000 -0.33333333  0.25000000       0.014
  -0.33333333 -0.33333333  0.25000000       0.014
  -0.16666667 -0.33333333  0.25000000       0.014
   0.00000000 -0.16666667  0.25000000       0.014
   0.16666667 -0.16666667  0.25000000       0.014
   0.33333333 -0.16666667  0.25000000       0.014
   0.50000000 -0.16666667  0.25000000       0.014
  -0.33333333 -0.16666667  0.25000000       0.014
  -0.16666667 -0.16666667  0.25000000       0.014
   0.00000000  0.00000000  0.50000000       0.007
   0.16666667  0.00000000  0.50000000       0.014
   0.33333333  0.00000000  0.50000000       0.014
   0.50000000  0.00000000  0.50000000       0.007
   0.00000000  0.16666667  0.50000000       0.014
   0.16666667  0.16666667  0.50000000       0.014
   0.33333333  0.16666667  0.50000000       0.014
   0.50000000  0.16666667  0.50000000       0.014
  -0.33333333  0.16666667  0.50000000       0.014
  -0.16666667  0.16666667  0.50000000       0.014
   0.00000000  0.33333333  0.50000000       0.014
   0.16666667  0.33333333  0.50000000       0.014
   0.33333333  0.33333333  0.50000000       0.014
   0.50000000  0.33333333  0.50000000       0.014
  -0.33333333  0.33333333  0.50000000       0.014
  -0.16666667  0.33333333  0.50000000       0.014
  -0.00000000  0.50000000  0.50000000       0.007
   0.16666667  0.50000000  0.50000000       0.014
   0.33333333  0.50000000  0.50000000       0.014
   0.50000000  0.50000000  0.50000000       0.007
 
 position of ions in fractional coordinates (direct lattice) 
   0.49899069  0.00032672  0.12431738
   0.99967330  0.00032672  0.12500000
   0.49967330  0.50032672  0.12500000
   0.99967330  0.50032672  0.12500000
   0.49967330  0.00032672  0.62500000
   0.99967330  0.00032672  0.62500000
   0.49967330  0.50032672  0.62500000
   0.99967330  0.50032672  0.62500000
   0.00032672  0.49967330  0.37500000
   0.50032672  0.49967330  0.37500000
   0.00032672  0.99967330  0.37500000
   0.50032672  0.99967330  0.37500000
   0.00032672  0.49967330  0.87500000
   0.50032672  0.49967330  0.87500000
   0.00032672  0.99967330  0.87500000
   0.50032672  0.99967330  0.87500000
   0.16629246  0.33370753  0.12500000
   0.66629246  0.33370753  0.12500000
   0.16629246  0.83370753  0.12500000
   0.66629246  0.83370753  0.12500000
   0.16629246  0.33370753  0.62500000
   0.66629246  0.33370753  0.62500000
   0.16629246  0.83370753  0.62500000
   0.66629246  0.83370753  0.62500000
   0.33370753  0.16629246  0.37500000
   0.83370753  0.16629246  0.37500000
   0.33370753  0.66629246  0.37500000
   0.83370753  0.66629246  0.37500000
   0.33370753  0.16629246  0.87500000
   0.83370753  0.16629246  0.87500000
   0.33370753  0.66629246  0.87500000
   0.83370753  0.66629246  0.87500000
 
 position of ions in cartesian coordinates  (Angst):
   2.46065207  0.00043772  1.71483916
   4.93045658 -0.00052323  1.72425519
   1.22996963  2.13595390  1.72425519
   3.69640688  2.13499426  1.72425519
   2.46401933  0.00043641  8.62127595
   4.93045658 -0.00052323  8.62127595
   1.22996963  2.13595390  8.62127595
   3.69640688  2.13499426  8.62127595
  -1.23163172  2.13412154  5.17276557
   1.23480553  2.13316189  5.17276557
  -2.46568142  4.26963903  5.17276557
   0.00075583  4.26867939  5.17276557
  -1.23163172  2.13412154 12.06978633
   1.23480553  2.13316189 12.06978633
  -2.46568142  4.26963903 12.06978633
   0.00075583  4.26867939 12.06978633
  -0.00332350  1.42495737  1.72425519
   2.46311374  1.42399773  1.72425519
  -1.23737320  3.56047486  1.72425519
   1.22906405  3.55951522  1.72425519
  -0.00332350  1.42495737  8.62127595
   2.46311374  1.42399773  8.62127595
  -1.23737320  3.56047486  8.62127595
   1.22906405  3.55951522  8.62127595
   1.23571103  0.70960044  5.17276557
   3.70214828  0.70864080  5.17276557
   0.00166133  2.84511794  5.17276557
   2.46809858  2.84415829  5.17276557
   1.23571103  0.70960044 12.06978633
   3.70214828  0.70864080 12.06978633
   0.00166133  2.84511794 12.06978633
   2.46809858  2.84415829 12.06978633
 


--------------------------------------------------------------------------------------------------------


 k-point  1 :   0.0000 0.0000 0.0000  plane waves:   14911
 k-point  2 :   0.1667 0.0000 0.0000  plane waves:   14960
 k-point  3 :   0.3333 0.0000 0.0000  plane waves:   14932
 k-point  4 :   0.5000 0.0000 0.0000  plane waves:   14928
 k-point  5 :   0.0000 0.1667 0.0000  plane waves:   14960
 k-point  6 :   0.1667 0.1667 0.0000  plane waves:   14935
 k-point  7 :   0.3333 0.1667 0.0000  plane waves:   14925
 k-point  8 :   0.5000 0.1667 0.0000  plane waves:   14925
 k-point  9 :  -0.3333 0.1667 0.0000  plane waves:   14933
 k-point 10 :  -0.1667 0.1667 0.0000  plane waves:   14950
 k-point 11 :   0.0000 0.3333 0.0000  plane waves:   14932
 k-point 12 :   0.1667 0.3333 0.0000  plane waves:   14925
 k-point 13 :   0.3333 0.3333 0.0000  plane waves:   14946
 k-point 14 :   0.5000 0.3333 0.0000  plane waves:   14917
 k-point 15 :  -0.3333 0.3333 0.0000  plane waves:   14922
 k-point 16 :  -0.1667 0.3333 0.0000  plane waves:   14933
 k-point 17 :  -0.0000 0.5000 0.0000  plane waves:   14928
 k-point 18 :   0.1667 0.5000 0.0000  plane waves:   14925
 k-point 19 :   0.3333 0.5000 0.0000  plane waves:   14917
 k-point 20 :   0.5000 0.5000 0.0000  plane waves:   14924
 k-point 21 :   0.0000 0.0000 0.2500  plane waves:   14926
 k-point 22 :   0.1667 0.0000 0.2500  plane waves:   14958
 k-point 23 :   0.3333 0.0000 0.2500  plane waves:   14923
 k-point 24 :   0.5000 0.0000 0.2500  plane waves:   14938
 k-point 25 :  -0.3333 0.0000 0.2500  plane waves:   14923
 k-point 26 :  -0.1667 0.0000 0.2500  plane waves:   14958
 k-point 27 :   0.0000 0.1667 0.2500  plane waves:   14958
 k-point 28 :   0.1667 0.1667 0.2500  plane waves:   14940
 k-point 29 :   0.3333 0.1667 0.2500  plane waves:   14907
 k-point 30 :   0.5000 0.1667 0.2500  plane waves:   14902
 k-point 31 :  -0.3333 0.1667 0.2500  plane waves:   14941
 k-point 32 :  -0.1667 0.1667 0.2500  plane waves:   14967
 k-point 33 :   0.0000 0.3333 0.2500  plane waves:   14923
 k-point 34 :   0.1667 0.3333 0.2500  plane waves:   14907
 k-point 35 :   0.3333 0.3333 0.2500  plane waves:   14919
 k-point 36 :   0.5000 0.3333 0.2500  plane waves:   14904
 k-point 37 :  -0.3333 0.3333 0.2500  plane waves:   14927
 k-point 38 :  -0.1667 0.3333 0.2500  plane waves:   14941
 k-point 39 :  -0.0000 0.5000 0.2500  plane waves:   14938
 k-point 40 :   0.1667 0.5000 0.2500  plane waves:   14902
 k-point 41 :   0.3333 0.5000 0.2500  plane waves:   14904
 k-point 42 :   0.5000 0.5000 0.2500  plane waves:   14936
 k-point 43 :  -0.3333 0.5000 0.2500  plane waves:   14904
 k-point 44 :  -0.1667 0.5000 0.2500  plane waves:   14902
 k-point 45 :  -0.0000-0.3333 0.2500  plane waves:   14923
 k-point 46 :   0.1667-0.3333 0.2500  plane waves:   14941
 k-point 47 :   0.3333-0.3333 0.2500  plane waves:   14927
 k-point 48 :   0.5000-0.3333 0.2500  plane waves:   14904
 k-point 49 :  -0.3333-0.3333 0.2500  plane waves:   14919
 k-point 50 :  -0.1667-0.3333 0.2500  plane waves:   14907
 k-point 51 :   0.0000-0.1667 0.2500  plane waves:   14958
 k-point 52 :   0.1667-0.1667 0.2500  plane waves:   14967
 k-point 53 :   0.3333-0.1667 0.2500  plane waves:   14941
 k-point 54 :   0.5000-0.1667 0.2500  plane waves:   14902
 k-point 55 :  -0.3333-0.1667 0.2500  plane waves:   14907
 k-point 56 :  -0.1667-0.1667 0.2500  plane waves:   14940
 k-point 57 :   0.0000 0.0000 0.5000  plane waves:   14984
 k-point 58 :   0.1667 0.0000 0.5000  plane waves:   14962
 k-point 59 :   0.3333 0.0000 0.5000  plane waves:   14926
 k-point 60 :   0.5000 0.0000 0.5000  plane waves:   14932
 k-point 61 :   0.0000 0.1667 0.5000  plane waves:   14962
 k-point 62 :   0.1667 0.1667 0.5000  plane waves:   14940
 k-point 63 :   0.3333 0.1667 0.5000  plane waves:   14916
 k-point 64 :   0.5000 0.1667 0.5000  plane waves:   14914
 k-point 65 :  -0.3333 0.1667 0.5000  plane waves:   14942
 k-point 66 :  -0.1667 0.1667 0.5000  plane waves:   14972
 k-point 67 :   0.0000 0.3333 0.5000  plane waves:   14926
 k-point 68 :   0.1667 0.3333 0.5000  plane waves:   14916
 k-point 69 :   0.3333 0.3333 0.5000  plane waves:   14886
 k-point 70 :   0.5000 0.3333 0.5000  plane waves:   14912
 k-point 71 :  -0.3333 0.3333 0.5000  plane waves:   14934
 k-point 72 :  -0.1667 0.3333 0.5000  plane waves:   14942
 k-point 73 :  -0.0000 0.5000 0.5000  plane waves:   14932
 k-point 74 :   0.1667 0.5000 0.5000  plane waves:   14914
 k-point 75 :   0.3333 0.5000 0.5000  plane waves:   14912
 k-point 76 :   0.5000 0.5000 0.5000  plane waves:   14932

 maximum and minimum number of plane-waves per node :     14984    14886

 maximum number of plane-waves:     14984
 maximum index in each direction: 
   IXMAX=   11   IYMAX=   11   IZMAX=   31
   IXMIN=  -11   IYMIN=  -11   IZMIN=  -32

 NGX is ok and might be reduce to  46
 NGY is ok and might be reduce to  46
 NGZ is ok and might be reduce to 128

 serial   3D FFT for wavefunctions
 parallel 3D FFT for charge:
    minimum data exchange during FFTs selected (reduces bandwidth)


 total amount of memory used by VASP on root node   415501. kBytes
========================================================================

   base      :      30000. kBytes
   nonl-proj :      80575. kBytes
   fftplans  :      14475. kBytes
   grid      :      30806. kBytes
   one-center:         98. kBytes
   wavefun   :     259547. kBytes
 
     INWAV:  cpu time    0.00: real time    0.00
 Broyden mixing: mesh for mixing (old mesh)
   NGX = 23   NGY = 23   NGZ = 63
  (NGX  = 96   NGY  = 96   NGZ  =256)
  gives a total of  33327 points

 initial charge density was supplied:
 charge density of overlapping atoms calculated
 number of electron     128.0000000 magnetization 
 keeping initial charge density in first step


--------------------------------------------------------------------------------------------------------


 Maximum index for augmentation-charges         1965 (set IRDMAX)


--------------------------------------------------------------------------------------------------------


 First call to EWALD:  gamma=   0.268
 Maximum number of real-space cells 4x 4x 2
 Maximum number of reciprocal cells 2x 2x 5

 FEWALD executed in parallel
    FEWALD:  cpu time    0.02: real time    0.04


----------------------------------------- Iteration    1(   1)  ---------------------------------------


    POTLOK:  cpu time    1.30: real time    2.60
    SETDIJ:  cpu time    0.10: real time    0.21
     EDDAV:  cpu time  418.33: real time  837.12
 BZINTS: Fermi energy: 16.992754;128.000000 electrons
         Band energy: 142.480523;  BLOECHL correction: -0.144480
       DOS:  cpu time    0.10: real time    0.18
    --------------------------------------------
      LOOP:  cpu time  419.83: real time  840.13

 eigenvalue-minimisations  : 12768
 total energy-change (2. order) : 0.7175881E+03  (-0.8362882E+04)
 number of electron     128.0000000 magnetization 
 augmentation part      128.0000000 magnetization 

 Free energy of the ion-electron system (eV)
  ---------------------------------------------------
  alpha Z        PSCENC =       287.16055492
  Ewald energy   TEWEN  =     -3548.47811035
  -Hartree energ DENC   =     -1278.44645854
  -exchange      EXHF   =         0.00000000
  -V(xc)+E(xc)   XCENC  =       442.74542010
  PAW double counting   =      1210.60617908    -1247.42152856
  entropy T*S    EENTRO =         0.00000000
  eigenvalues    EBANDS =       142.48052257
  atomic energy  EATOM  =      4708.94155045
  ---------------------------------------------------
  free energy    TOTEN  =       717.58812968 eV

  energy without entropy =      717.58812968  energy(sigma->0) =      717.58812968


--------------------------------------------------------------------------------------------------------




----------------------------------------- Iteration    1(   2)  ---------------------------------------


     EDDAV:  cpu time  467.30: real time  935.03
 BZINTS: Fermi energy:  3.621985;128.000000 electrons
         Band energy:-828.430859;  BLOECHL correction: -0.000653
       DOS:  cpu time    0.06: real time    0.13
    --------------------------------------------
      LOOP:  cpu time  467.38: real time  935.22

 eigenvalue-minimisations  : 15960
 total energy-change (2. order) :-0.9709114E+03  (-0.9350844E+03)
 number of electron     128.0000000 magnetization 
 augmentation part      128.0000000 magnetization 

 Free energy of the ion-electron system (eV)
  ---------------------------------------------------
  alpha Z        PSCENC =       287.16055492
  Ewald energy   TEWEN  =     -3548.47811035
  -Hartree energ DENC   =     -1278.44645854
  -exchange      EXHF   =         0.00000000
  -V(xc)+E(xc)   XCENC  =       442.74542010
  PAW double counting   =      1210.60617908    -1247.42152856
  entropy T*S    EENTRO =         0.00000000
  eigenvalues    EBANDS =      -828.43085948
  atomic energy  EATOM  =      4708.94155045
  ---------------------------------------------------
  free energy    TOTEN  =      -253.32325237 eV

  energy without entropy =     -253.32325237  energy(sigma->0) =     -253.32325237


--------------------------------------------------------------------------------------------------------




----------------------------------------- Iteration    1(   3)  ---------------------------------------


     EDDAV:  cpu time  461.32: real time  923.08
 BZINTS: Fermi energy:  2.895587;128.000000 electrons
         Band energy:-887.988967;  BLOECHL correction: -0.000002
       DOS:  cpu time    0.06: real time    0.12
    --------------------------------------------
      LOOP:  cpu time  461.38: real time  923.23

 eigenvalue-minimisations  : 15564
 total energy-change (2. order) :-0.5955811E+02  (-0.5896696E+02)
 number of electron     128.0000000 magnetization 
 augmentation part      128.0000000 magnetization 

 Free energy of the ion-electron system (eV)
  ---------------------------------------------------
  alpha Z        PSCENC =       287.16055492
  Ewald energy   TEWEN  =     -3548.47811035
  -Hartree energ DENC   =     -1278.44645854
  -exchange      EXHF   =         0.00000000
  -V(xc)+E(xc)   XCENC  =       442.74542010
  PAW double counting   =      1210.60617908    -1247.42152856
  entropy T*S    EENTRO =         0.00000000
  eigenvalues    EBANDS =      -887.98896664
  atomic energy  EATOM  =      4708.94155045
  ---------------------------------------------------
  free energy    TOTEN  =      -312.88135953 eV

  energy without entropy =     -312.88135953  energy(sigma->0) =     -312.88135953


--------------------------------------------------------------------------------------------------------




----------------------------------------- Iteration    1(   4)  ---------------------------------------


