<?xml version="1.0" encoding="ISO-8859-1"?>
<modeling>
 <generator>
  <i name="program" type="string">vasp </i>
  <i name="version" type="string">5.3.5  </i>
  <i name="subversion" type="string">31Mar14 (build Nov 02 2014 15:17:37) complex                          parallel </i>
  <i name="platform" type="string">ion-Intel-MKL </i>
  <i name="date" type="string">2016 10 20 </i>
  <i name="time" type="string">10:38:33 </i>
 </generator>
 <incar>
  <i type="string" name="SYSTEM">graphite</i>
  <i type="string" name="PREC">accurate</i>
  <i type="int" name="NELM">   200</i>
  <i type="int" name="IBRION">    -1</i>
  <i name="EDIFF">      0.00000001</i>
  <i name="EDIFFG">      0.00100000</i>
  <i type="int" name="NSW">     0</i>
  <i type="int" name="ISIF">     2</i>
  <i name="ENCUT">    800.00000000</i>
  <i type="int" name="ISMEAR">    -5</i>
  <i type="logical" name="LWAVE"> F  </i>
  <i type="logical" name="LCHARG"> F  </i>
  <i type="int" name="NELM">   200</i>
  <i type="string" name="GGA">PE</i>
 </incar>
 <kpoints>
  <generation param="Gamma">
   <v type="int" name="divisions">       6        6        4 </v>
   <v name="usershift">      0.00000000       0.00000000       0.00000000 </v>
   <v name="genvec1">      0.16666667       0.00000000       0.00000000 </v>
   <v name="genvec2">      0.00000000       0.16666667       0.00000000 </v>
   <v name="genvec3">      0.00000000       0.00000000       0.25000000 </v>
   <v name="shift">      0.00000000       0.00000000       0.00000000 </v>
  </generation>
  <varray name="kpointlist" >
   <v>       0.00000000       0.00000000       0.00000000 </v>
   <v>       0.16666667       0.00000000       0.00000000 </v>
   <v>       0.33333333       0.00000000       0.00000000 </v>
   <v>       0.50000000       0.00000000       0.00000000 </v>
   <v>       0.00000000       0.16666667       0.00000000 </v>
   <v>       0.16666667       0.16666667       0.00000000 </v>
   <v>       0.33333333       0.16666667       0.00000000 </v>
   <v>       0.50000000       0.16666667       0.00000000 </v>
   <v>      -0.33333333       0.16666667       0.00000000 </v>
   <v>      -0.16666667       0.16666667       0.00000000 </v>
   <v>       0.00000000       0.33333333       0.00000000 </v>
   <v>       0.16666667       0.33333333       0.00000000 </v>
   <v>       0.33333333       0.33333333       0.00000000 </v>
   <v>       0.50000000       0.33333333       0.00000000 </v>
   <v>      -0.33333333       0.33333333       0.00000000 </v>
   <v>      -0.16666667       0.33333333       0.00000000 </v>
   <v>      -0.00000000       0.50000000       0.00000000 </v>
   <v>       0.16666667       0.50000000       0.00000000 </v>
   <v>       0.33333333       0.50000000       0.00000000 </v>
   <v>       0.50000000       0.50000000       0.00000000 </v>
   <v>       0.00000000       0.00000000       0.25000000 </v>
   <v>       0.16666667       0.00000000       0.25000000 </v>
   <v>       0.33333333       0.00000000       0.25000000 </v>
   <v>       0.50000000       0.00000000       0.25000000 </v>
   <v>      -0.33333333       0.00000000       0.25000000 </v>
   <v>      -0.16666667       0.00000000       0.25000000 </v>
   <v>       0.00000000       0.16666667       0.25000000 </v>
   <v>       0.16666667       0.16666667       0.25000000 </v>
   <v>       0.33333333       0.16666667       0.25000000 </v>
   <v>       0.50000000       0.16666667       0.25000000 </v>
   <v>      -0.33333333       0.16666667       0.25000000 </v>
   <v>      -0.16666667       0.16666667       0.25000000 </v>
   <v>       0.00000000       0.33333333       0.25000000 </v>
   <v>       0.16666667       0.33333333       0.25000000 </v>
   <v>       0.33333333       0.33333333       0.25000000 </v>
   <v>       0.50000000       0.33333333       0.25000000 </v>
   <v>      -0.33333333       0.33333333       0.25000000 </v>
   <v>      -0.16666667       0.33333333       0.25000000 </v>
   <v>      -0.00000000       0.50000000       0.25000000 </v>
   <v>       0.16666667       0.50000000       0.25000000 </v>
   <v>       0.33333333       0.50000000       0.25000000 </v>
   <v>       0.50000000       0.50000000       0.25000000 </v>
   <v>      -0.33333333       0.50000000       0.25000000 </v>
   <v>      -0.16666667       0.50000000       0.25000000 </v>
   <v>      -0.00000000      -0.33333333       0.25000000 </v>
   <v>       0.16666667      -0.33333333       0.25000000 </v>
   <v>       0.33333333      -0.33333333       0.25000000 </v>
   <v>       0.50000000      -0.33333333       0.25000000 </v>
   <v>      -0.33333333      -0.33333333       0.25000000 </v>
   <v>      -0.16666667      -0.33333333       0.25000000 </v>
   <v>       0.00000000      -0.16666667       0.25000000 </v>
   <v>       0.16666667      -0.16666667       0.25000000 </v>
   <v>       0.33333333      -0.16666667       0.25000000 </v>
   <v>       0.50000000      -0.16666667       0.25000000 </v>
   <v>      -0.33333333      -0.16666667       0.25000000 </v>
   <v>      -0.16666667      -0.16666667       0.25000000 </v>
   <v>       0.00000000       0.00000000       0.50000000 </v>
   <v>       0.16666667       0.00000000       0.50000000 </v>
   <v>       0.33333333       0.00000000       0.50000000 </v>
   <v>       0.50000000       0.00000000       0.50000000 </v>
   <v>       0.00000000       0.16666667       0.50000000 </v>
   <v>       0.16666667       0.16666667       0.50000000 </v>
   <v>       0.33333333       0.16666667       0.50000000 </v>
   <v>       0.50000000       0.16666667       0.50000000 </v>
   <v>      -0.33333333       0.16666667       0.50000000 </v>
   <v>      -0.16666667       0.16666667       0.50000000 </v>
   <v>       0.00000000       0.33333333       0.50000000 </v>
   <v>       0.16666667       0.33333333       0.50000000 </v>
   <v>       0.33333333       0.33333333       0.50000000 </v>
   <v>       0.50000000       0.33333333       0.50000000 </v>
   <v>      -0.33333333       0.33333333       0.50000000 </v>
   <v>      -0.16666667       0.33333333       0.50000000 </v>
   <v>      -0.00000000       0.50000000       0.50000000 </v>
   <v>       0.16666667       0.50000000       0.50000000 </v>
   <v>       0.33333333       0.50000000       0.50000000 </v>
   <v>       0.50000000       0.50000000       0.50000000 </v>
  </varray>
  <varray name="weights" >
   <v>       0.00694444 </v>
   <v>       0.01388889 </v>
   <v>       0.01388889 </v>
   <v>       0.00694444 </v>
   <v>       0.01388889 </v>
   <v>       0.01388889 </v>
   <v>       0.01388889 </v>
   <v>       0.01388889 </v>
   <v>       0.01388889 </v>
   <v>       0.01388889 </v>
   <v>       0.01388889 </v>
   <v>       0.01388889 </v>
   <v>       0.01388889 </v>
   <v>       0.01388889 </v>
   <v>       0.01388889 </v>
   <v>       0.01388889 </v>
   <v>       0.00694444 </v>
   <v>       0.01388889 </v>
   <v>       0.01388889 </v>
   <v>       0.00694444 </v>
   <v>       0.01388889 </v>
   <v>       0.01388889 </v>
   <v>       0.01388889 </v>
   <v>       0.01388889 </v>
   <v>       0.01388889 </v>
   <v>       0.01388889 </v>
   <v>       0.01388889 </v>
   <v>       0.01388889 </v>
   <v>       0.01388889 </v>
   <v>       0.01388889 </v>
   <v>       0.01388889 </v>
   <v>       0.01388889 </v>
   <v>       0.01388889 </v>
   <v>       0.01388889 </v>
   <v>       0.01388889 </v>
   <v>       0.01388889 </v>
   <v>       0.01388889 </v>
   <v>       0.01388889 </v>
   <v>       0.01388889 </v>
   <v>       0.01388889 </v>
   <v>       0.01388889 </v>
   <v>       0.01388889 </v>
   <v>       0.01388889 </v>
   <v>       0.01388889 </v>
   <v>       0.01388889 </v>
   <v>       0.01388889 </v>
   <v>       0.01388889 </v>
   <v>       0.01388889 </v>
   <v>       0.01388889 </v>
   <v>       0.01388889 </v>
   <v>       0.01388889 </v>
   <v>       0.01388889 </v>
   <v>       0.01388889 </v>
   <v>       0.01388889 </v>
   <v>       0.01388889 </v>
   <v>       0.01388889 </v>
   <v>       0.00694444 </v>
   <v>       0.01388889 </v>
   <v>       0.01388889 </v>
   <v>       0.00694444 </v>
   <v>       0.01388889 </v>
   <v>       0.01388889 </v>
   <v>       0.01388889 </v>
   <v>       0.01388889 </v>
   <v>       0.01388889 </v>
   <v>       0.01388889 </v>
   <v>       0.01388889 </v>
   <v>       0.01388889 </v>
   <v>       0.01388889 </v>
   <v>       0.01388889 </v>
   <v>       0.01388889 </v>
   <v>       0.01388889 </v>
   <v>       0.00694444 </v>
   <v>       0.01388889 </v>
   <v>       0.01388889 </v>
   <v>       0.00694444 </v>
  </varray>
  <varray name="tetrahedronlist"  type="int" >
   <v type="int" >        2        2        5        6       27 </v>
   <v type="int" >        2        1        2        5       27 </v>
   <v type="int" >        2        1        2       21       27 </v>
   <v type="int" >        2        2        6       27       28 </v>
   <v type="int" >        2        2       22       27       28 </v>
   <v type="int" >        2        2       21       22       27 </v>
   <v type="int" >        2        3        6        7       28 </v>
   <v type="int" >        2        2        3        6       28 </v>
   <v type="int" >        2        2        3       22       28 </v>
   <v type="int" >        2        3        7       28       29 </v>
   <v type="int" >        2        3       23       28       29 </v>
   <v type="int" >        2        3       22       23       28 </v>
   <v type="int" >        2        4        7        8       29 </v>
   <v type="int" >        2        3        4        7       29 </v>
   <v type="int" >        2        3        4       23       29 </v>
   <v type="int" >        2        4        8       29       30 </v>
   <v type="int" >        2        4       24       29       30 </v>
   <v type="int" >        2        4       23       24       29 </v>
   <v type="int" >        2        3        8        9       30 </v>
   <v type="int" >        2        3        4        8       30 </v>
   <v type="int" >        2        3        4       24       30 </v>
   <v type="int" >        2        3        9       30       31 </v>
   <v type="int" >        2        3       25       30       31 </v>
   <v type="int" >        2        3       24       25       30 </v>
   <v type="int" >        2        2        9       10       31 </v>
   <v type="int" >        2        2        3        9       31 </v>
   <v type="int" >        2        2        3       25       31 </v>
   <v type="int" >        2        2       10       31       32 </v>
   <v type="int" >        2        2       26       31       32 </v>
   <v type="int" >        2        2       25       26       31 </v>
   <v type="int" >        2        1        5       10       32 </v>
   <v type="int" >        2        1        2       10       32 </v>
   <v type="int" >        2        1        2       26       32 </v>
   <v type="int" >        2        1        5       27       32 </v>
   <v type="int" >        2        1       21       27       32 </v>
   <v type="int" >        2        1       21       26       32 </v>
   <v type="int" >        2        6       11       12       33 </v>
   <v type="int" >        2        5        6       11       33 </v>
   <v type="int" >        2        5        6       27       33 </v>
   <v type="int" >        2        6       12       33       34 </v>
   <v type="int" >        2        6       28       33       34 </v>
   <v type="int" >        2        6       27       28       33 </v>
   <v type="int" >        2        7       12       13       34 </v>
   <v type="int" >        2        6        7       12       34 </v>
   <v type="int" >        2        6        7       28       34 </v>
   <v type="int" >        2        7       13       34       35 </v>
   <v type="int" >        2        7       29       34       35 </v>
   <v type="int" >        2        7       28       29       34 </v>
   <v type="int" >        2        8       13       14       35 </v>
   <v type="int" >        2        7        8       13       35 </v>
   <v type="int" >        2        7        8       29       35 </v>
   <v type="int" >        2        8       14       35       36 </v>
   <v type="int" >        2        8       30       35       36 </v>
   <v type="int" >        2        8       29       30       35 </v>
   <v type="int" >        2        9       14       15       36 </v>
   <v type="int" >        2        8        9       14       36 </v>
   <v type="int" >        2        8        9       30       36 </v>
   <v type="int" >        2        9       15       36       37 </v>
   <v type="int" >        2        9       31       36       37 </v>
   <v type="int" >        2        9       30       31       36 </v>
   <v type="int" >        2       10       15       16       37 </v>
   <v type="int" >        2        9       10       15       37 </v>
   <v type="int" >        2        9       10       31       37 </v>
   <v type="int" >        2       10       16       37       38 </v>
   <v type="int" >        2       10       32       37       38 </v>
   <v type="int" >        2       10       31       32       37 </v>
   <v type="int" >        2        5       11       16       38 </v>
   <v type="int" >        2        5       10       16       38 </v>
   <v type="int" >        2        5       10       32       38 </v>
   <v type="int" >        2        5       11       33       38 </v>
   <v type="int" >        2        5       27       33       38 </v>
   <v type="int" >        2        5       27       32       38 </v>
   <v type="int" >        2       12       17       18       39 </v>
   <v type="int" >        2       11       12       17       39 </v>
   <v type="int" >        2       11       12       33       39 </v>
   <v type="int" >        2       12       18       39       40 </v>
   <v type="int" >        2       12       34       39       40 </v>
   <v type="int" >        2       12       33       34       39 </v>
   <v type="int" >        2       13       18       19       40 </v>
   <v type="int" >        2       12       13       18       40 </v>
   <v type="int" >        2       12       13       34       40 </v>
   <v type="int" >        2       13       19       40       41 </v>
   <v type="int" >        2       13       35       40       41 </v>
   <v type="int" >        2       13       34       35       40 </v>
   <v type="int" >        2       14       19       20       41 </v>
   <v type="int" >        2       13       14       19       41 </v>
   <v type="int" >        2       13       14       35       41 </v>
   <v type="int" >        2       14       20       41       42 </v>
   <v type="int" >        2       14       36       41       42 </v>
   <v type="int" >        2       14       35       36       41 </v>
   <v type="int" >        2       15       19       20       42 </v>
   <v type="int" >        2       14       15       20       42 </v>
   <v type="int" >        2       14       15       36       42 </v>
   <v type="int" >        2       15       19       42       43 </v>
   <v type="int" >        2       15       37       42       43 </v>
   <v type="int" >        2       15       36       37       42 </v>
   <v type="int" >        2       16       18       19       43 </v>
   <v type="int" >        2       15       16       19       43 </v>
   <v type="int" >        2       15       16       37       43 </v>
   <v type="int" >        2       16       18       43       44 </v>
   <v type="int" >        2       16       38       43       44 </v>
   <v type="int" >        2       16       37       38       43 </v>
   <v type="int" >        2       11       17       18       44 </v>
   <v type="int" >        2       11       16       18       44 </v>
   <v type="int" >        2       11       16       38       44 </v>
   <v type="int" >        2       11       17       39       44 </v>
   <v type="int" >        2       11       33       39       44 </v>
   <v type="int" >        2       11       33       38       44 </v>
   <v type="int" >        2       11       16       18       45 </v>
   <v type="int" >        2       11       17       18       45 </v>
   <v type="int" >        2       17       18       39       45 </v>
   <v type="int" >        2       16       18       45       46 </v>
   <v type="int" >        2       18       40       45       46 </v>
   <v type="int" >        2       18       39       40       45 </v>
   <v type="int" >        2       15       16       19       46 </v>
   <v type="int" >        2       16       18       19       46 </v>
   <v type="int" >        2       18       19       40       46 </v>
   <v type="int" >        2       15       19       46       47 </v>
   <v type="int" >        2       19       41       46       47 </v>
   <v type="int" >        2       19       40       41       46 </v>
   <v type="int" >        2       14       15       20       47 </v>
   <v type="int" >        2       15       19       20       47 </v>
   <v type="int" >        2       19       20       41       47 </v>
   <v type="int" >        2       14       20       47       48 </v>
   <v type="int" >        2       20       42       47       48 </v>
   <v type="int" >        2       20       41       42       47 </v>
   <v type="int" >        2       13       14       19       48 </v>
   <v type="int" >        2       14       19       20       48 </v>
   <v type="int" >        2       19       20       42       48 </v>
   <v type="int" >        2       13       19       48       49 </v>
   <v type="int" >        2       19       43       48       49 </v>
   <v type="int" >        2       19       42       43       48 </v>
   <v type="int" >        2       12       13       18       49 </v>
   <v type="int" >        2       13       18       19       49 </v>
   <v type="int" >        2       18       19       43       49 </v>
   <v type="int" >        2       12       18       49       50 </v>
   <v type="int" >        2       18       44       49       50 </v>
   <v type="int" >        2       18       43       44       49 </v>
   <v type="int" >        2       11       12       17       50 </v>
   <v type="int" >        2       12       17       18       50 </v>
   <v type="int" >        2       17       18       44       50 </v>
   <v type="int" >        2       11       17       45       50 </v>
   <v type="int" >        2       17       39       45       50 </v>
   <v type="int" >        2       17       39       44       50 </v>
   <v type="int" >        2        5       10       16       51 </v>
   <v type="int" >        2        5       11       16       51 </v>
   <v type="int" >        2       11       16       45       51 </v>
   <v type="int" >        2       10       16       51       52 </v>
   <v type="int" >        2       16       46       51       52 </v>
   <v type="int" >        2       16       45       46       51 </v>
   <v type="int" >        2        9       10       15       52 </v>
   <v type="int" >        2       10       15       16       52 </v>
   <v type="int" >        2       15       16       46       52 </v>
   <v type="int" >        2        9       15       52       53 </v>
   <v type="int" >        2       15       47       52       53 </v>
   <v type="int" >        2       15       46       47       52 </v>
   <v type="int" >        2        8        9       14       53 </v>
   <v type="int" >        2        9       14       15       53 </v>
   <v type="int" >        2       14       15       47       53 </v>
   <v type="int" >        2        8       14       53       54 </v>
   <v type="int" >        2       14       48       53       54 </v>
   <v type="int" >        2       14       47       48       53 </v>
   <v type="int" >        2        7        8       13       54 </v>
   <v type="int" >        2        8       13       14       54 </v>
   <v type="int" >        2       13       14       48       54 </v>
   <v type="int" >        2        7       13       54       55 </v>
   <v type="int" >        2       13       49       54       55 </v>
   <v type="int" >        2       13       48       49       54 </v>
   <v type="int" >        2        6        7       12       55 </v>
   <v type="int" >        2        7       12       13       55 </v>
   <v type="int" >        2       12       13       49       55 </v>
   <v type="int" >        2        6       12       55       56 </v>
   <v type="int" >        2       12       50       55       56 </v>
   <v type="int" >        2       12       49       50       55 </v>
   <v type="int" >        2        5        6       11       56 </v>
   <v type="int" >        2        6       11       12       56 </v>
   <v type="int" >        2       11       12       50       56 </v>
   <v type="int" >        2        5       11       51       56 </v>
   <v type="int" >        2       11       45       51       56 </v>
   <v type="int" >        2       11       45       50       56 </v>
   <v type="int" >        2        1        2       10       21 </v>
   <v type="int" >        2        1        5       10       21 </v>
   <v type="int" >        2        5       10       21       51 </v>
   <v type="int" >        2        2       10       21       22 </v>
   <v type="int" >        2       10       21       22       52 </v>
   <v type="int" >        2       10       21       51       52 </v>
   <v type="int" >        2        2        3        9       22 </v>
   <v type="int" >        2        2        9       10       22 </v>
   <v type="int" >        2        9       10       22       52 </v>
   <v type="int" >        2        3        9       22       23 </v>
   <v type="int" >        2        9       22       23       53 </v>
   <v type="int" >        2        9       22       52       53 </v>
   <v type="int" >        2        3        4        8       23 </v>
   <v type="int" >        2        3        8        9       23 </v>
   <v type="int" >        2        8        9       23       53 </v>
   <v type="int" >        2        4        8       23       24 </v>
   <v type="int" >        2        8       23       24       54 </v>
   <v type="int" >        2        8       23       53       54 </v>
   <v type="int" >        2        3        4        7       24 </v>
   <v type="int" >        2        4        7        8       24 </v>
   <v type="int" >        2        7        8       24       54 </v>
   <v type="int" >        2        3        7       24       25 </v>
   <v type="int" >        2        7       24       25       55 </v>
   <v type="int" >        2        7       24       54       55 </v>
   <v type="int" >        2        2        3        6       25 </v>
   <v type="int" >        2        3        6        7       25 </v>
   <v type="int" >        2        6        7       25       55 </v>
   <v type="int" >        2        2        6       25       26 </v>
   <v type="int" >        2        6       25       26       56 </v>
   <v type="int" >        2        6       25       55       56 </v>
   <v type="int" >        2        1        2        5       26 </v>
   <v type="int" >        2        2        5        6       26 </v>
   <v type="int" >        2        5        6       26       56 </v>
   <v type="int" >        2        1        5       21       26 </v>
   <v type="int" >        2        5       21       26       51 </v>
   <v type="int" >        2        5       26       51       56 </v>
   <v type="int" >        2       22       27       28       61 </v>
   <v type="int" >        2       21       22       27       61 </v>
   <v type="int" >        2       21       22       57       61 </v>
   <v type="int" >        2       22       28       61       62 </v>
   <v type="int" >        2       22       58       61       62 </v>
   <v type="int" >        2       22       57       58       61 </v>
   <v type="int" >        2       23       28       29       62 </v>
   <v type="int" >        2       22       23       28       62 </v>
   <v type="int" >        2       22       23       58       62 </v>
   <v type="int" >        2       23       29       62       63 </v>
   <v type="int" >        2       23       59       62       63 </v>
   <v type="int" >        2       23       58       59       62 </v>
   <v type="int" >        2       24       29       30       63 </v>
   <v type="int" >        2       23       24       29       63 </v>
   <v type="int" >        2       23       24       59       63 </v>
   <v type="int" >        2       24       30       63       64 </v>
   <v type="int" >        2       24       60       63       64 </v>
   <v type="int" >        2       24       59       60       63 </v>
   <v type="int" >        2       25       30       31       64 </v>
   <v type="int" >        2       24       25       30       64 </v>
   <v type="int" >        2       24       25       60       64 </v>
   <v type="int" >        2       25       31       64       65 </v>
   <v type="int" >        2       25       59       64       65 </v>
   <v type="int" >        2       25       59       60       64 </v>
   <v type="int" >        2       26       31       32       65 </v>
   <v type="int" >        2       25       26       31       65 </v>
   <v type="int" >        2       25       26       59       65 </v>
   <v type="int" >        2       26       32       65       66 </v>
   <v type="int" >        2       26       58       65       66 </v>
   <v type="int" >        2       26       58       59       65 </v>
   <v type="int" >        2       21       27       32       66 </v>
   <v type="int" >        2       21       26       32       66 </v>
   <v type="int" >        2       21       26       58       66 </v>
   <v type="int" >        2       21       27       61       66 </v>
   <v type="int" >        2       21       57       61       66 </v>
   <v type="int" >        2       21       57       58       66 </v>
   <v type="int" >        2       28       33       34       67 </v>
   <v type="int" >        2       27       28       33       67 </v>
   <v type="int" >        2       27       28       61       67 </v>
   <v type="int" >        2       28       34       67       68 </v>
   <v type="int" >        2       28       62       67       68 </v>
   <v type="int" >        2       28       61       62       67 </v>
   <v type="int" >        2       29       34       35       68 </v>
   <v type="int" >        2       28       29       34       68 </v>
   <v type="int" >        2       28       29       62       68 </v>
   <v type="int" >        2       29       35       68       69 </v>
   <v type="int" >        2       29       63       68       69 </v>
   <v type="int" >        2       29       62       63       68 </v>
   <v type="int" >        2       30       35       36       69 </v>
   <v type="int" >        2       29       30       35       69 </v>
   <v type="int" >        2       29       30       63       69 </v>
   <v type="int" >        2       30       36       69       70 </v>
   <v type="int" >        2       30       64       69       70 </v>
   <v type="int" >        2       30       63       64       69 </v>
   <v type="int" >        2       31       36       37       70 </v>
   <v type="int" >        2       30       31       36       70 </v>
   <v type="int" >        2       30       31       64       70 </v>
   <v type="int" >        2       31       37       70       71 </v>
   <v type="int" >        2       31       65       70       71 </v>
   <v type="int" >        2       31       64       65       70 </v>
   <v type="int" >        2       32       37       38       71 </v>
   <v type="int" >        2       31       32       37       71 </v>
   <v type="int" >        2       31       32       65       71 </v>
   <v type="int" >        2       32       38       71       72 </v>
   <v type="int" >        2       32       66       71       72 </v>
   <v type="int" >        2       32       65       66       71 </v>
   <v type="int" >        2       27       33       38       72 </v>
   <v type="int" >        2       27       32       38       72 </v>
   <v type="int" >        2       27       32       66       72 </v>
   <v type="int" >        2       27       33       67       72 </v>
   <v type="int" >        2       27       61       67       72 </v>
   <v type="int" >        2       27       61       66       72 </v>
   <v type="int" >        2       34       39       40       73 </v>
   <v type="int" >        2       33       34       39       73 </v>
   <v type="int" >        2       33       34       67       73 </v>
   <v type="int" >        2       34       40       73       74 </v>
   <v type="int" >        2       34       68       73       74 </v>
   <v type="int" >        2       34       67       68       73 </v>
   <v type="int" >        2       35       40       41       74 </v>
   <v type="int" >        2       34       35       40       74 </v>
   <v type="int" >        2       34       35       68       74 </v>
   <v type="int" >        2       35       41       74       75 </v>
   <v type="int" >        2       35       69       74       75 </v>
   <v type="int" >        2       35       68       69       74 </v>
   <v type="int" >        2       36       41       42       75 </v>
   <v type="int" >        2       35       36       41       75 </v>
   <v type="int" >        2       35       36       69       75 </v>
   <v type="int" >        2       36       42       75       76 </v>
   <v type="int" >        2       36       70       75       76 </v>
   <v type="int" >        2       36       69       70       75 </v>
   <v type="int" >        2       37       42       43       76 </v>
   <v type="int" >        2       36       37       42       76 </v>
   <v type="int" >        2       36       37       70       76 </v>
   <v type="int" >        2       37       43       75       76 </v>
   <v type="int" >        2       37       71       75       76 </v>
   <v type="int" >        2       37       70       71       76 </v>
   <v type="int" >        2       38       43       44       75 </v>
   <v type="int" >        2       37       38       43       75 </v>
   <v type="int" >        2       37       38       71       75 </v>
   <v type="int" >        2       38       44       74       75 </v>
   <v type="int" >        2       38       72       74       75 </v>
   <v type="int" >        2       38       71       72       75 </v>
   <v type="int" >        2       33       39       44       74 </v>
   <v type="int" >        2       33       38       44       74 </v>
   <v type="int" >        2       33       38       72       74 </v>
   <v type="int" >        2       33       39       73       74 </v>
   <v type="int" >        2       33       67       73       74 </v>
   <v type="int" >        2       33       67       72       74 </v>
   <v type="int" >        2       40       45       46       67 </v>
   <v type="int" >        2       39       40       45       67 </v>
   <v type="int" >        2       39       40       67       73 </v>
   <v type="int" >        2       40       46       67       72 </v>
   <v type="int" >        2       40       67       72       74 </v>
   <v type="int" >        2       40       67       73       74 </v>
   <v type="int" >        2       41       46       47       72 </v>
   <v type="int" >        2       40       41       46       72 </v>
   <v type="int" >        2       40       41       72       74 </v>
   <v type="int" >        2       41       47       71       72 </v>
   <v type="int" >        2       41       71       72       75 </v>
   <v type="int" >        2       41       72       74       75 </v>
   <v type="int" >        2       42       47       48       71 </v>
   <v type="int" >        2       41       42       47       71 </v>
   <v type="int" >        2       41       42       71       75 </v>
   <v type="int" >        2       42       48       70       71 </v>
   <v type="int" >        2       42       70       71       76 </v>
   <v type="int" >        2       42       71       75       76 </v>
   <v type="int" >        2       43       48       49       70 </v>
   <v type="int" >        2       42       43       48       70 </v>
   <v type="int" >        2       42       43       70       76 </v>
   <v type="int" >        2       43       49       69       70 </v>
   <v type="int" >        2       43       69       70       75 </v>
   <v type="int" >        2       43       70       75       76 </v>
   <v type="int" >        2       44       49       50       69 </v>
   <v type="int" >        2       43       44       49       69 </v>
   <v type="int" >        2       43       44       69       75 </v>
   <v type="int" >        2       44       50       68       69 </v>
   <v type="int" >        2       44       68       69       74 </v>
   <v type="int" >        2       44       69       74       75 </v>
   <v type="int" >        2       39       45       50       68 </v>
   <v type="int" >        2       39       44       50       68 </v>
   <v type="int" >        2       39       44       68       74 </v>
   <v type="int" >        2       39       45       67       68 </v>
   <v type="int" >        2       39       67       68       73 </v>
   <v type="int" >        2       39       68       73       74 </v>
   <v type="int" >        2       46       51       52       61 </v>
   <v type="int" >        2       45       46       51       61 </v>
   <v type="int" >        2       45       46       61       67 </v>
   <v type="int" >        2       46       52       61       66 </v>
   <v type="int" >        2       46       61       66       72 </v>
   <v type="int" >        2       46       61       67       72 </v>
   <v type="int" >        2       47       52       53       66 </v>
   <v type="int" >        2       46       47       52       66 </v>
   <v type="int" >        2       46       47       66       72 </v>
   <v type="int" >        2       47       53       65       66 </v>
   <v type="int" >        2       47       65       66       71 </v>
   <v type="int" >        2       47       66       71       72 </v>
   <v type="int" >        2       48       53       54       65 </v>
   <v type="int" >        2       47       48       53       65 </v>
   <v type="int" >        2       47       48       65       71 </v>
   <v type="int" >        2       48       54       64       65 </v>
   <v type="int" >        2       48       64       65       70 </v>
   <v type="int" >        2       48       65       70       71 </v>
   <v type="int" >        2       49       54       55       64 </v>
   <v type="int" >        2       48       49       54       64 </v>
   <v type="int" >        2       48       49       64       70 </v>
   <v type="int" >        2       49       55       63       64 </v>
   <v type="int" >        2       49       63       64       69 </v>
   <v type="int" >        2       49       64       69       70 </v>
   <v type="int" >        2       50       55       56       63 </v>
   <v type="int" >        2       49       50       55       63 </v>
   <v type="int" >        2       49       50       63       69 </v>
   <v type="int" >        2       50       56       62       63 </v>
   <v type="int" >        2       50       62       63       68 </v>
   <v type="int" >        2       50       63       68       69 </v>
   <v type="int" >        2       45       51       56       62 </v>
   <v type="int" >        2       45       50       56       62 </v>
   <v type="int" >        2       45       50       62       68 </v>
   <v type="int" >        2       45       51       61       62 </v>
   <v type="int" >        2       45       61       62       67 </v>
   <v type="int" >        2       45       62       67       68 </v>
   <v type="int" >        2       21       22       52       57 </v>
   <v type="int" >        2       21       51       52       57 </v>
   <v type="int" >        2       51       52       57       61 </v>
   <v type="int" >        2       22       52       57       58 </v>
   <v type="int" >        2       52       57       58       66 </v>
   <v type="int" >        2       52       57       61       66 </v>
   <v type="int" >        2       22       23       53       58 </v>
   <v type="int" >        2       22       52       53       58 </v>
   <v type="int" >        2       52       53       58       66 </v>
   <v type="int" >        2       23       53       58       59 </v>
   <v type="int" >        2       53       58       59       65 </v>
   <v type="int" >        2       53       58       65       66 </v>
   <v type="int" >        2       23       24       54       59 </v>
   <v type="int" >        2       23       53       54       59 </v>
   <v type="int" >        2       53       54       59       65 </v>
   <v type="int" >        2       24       54       59       60 </v>
   <v type="int" >        2       54       59       60       64 </v>
   <v type="int" >        2       54       59       64       65 </v>
   <v type="int" >        2       24       25       55       60 </v>
   <v type="int" >        2       24       54       55       60 </v>
   <v type="int" >        2       54       55       60       64 </v>
   <v type="int" >        2       25       55       59       60 </v>
   <v type="int" >        2       55       59       60       63 </v>
   <v type="int" >        2       55       60       63       64 </v>
   <v type="int" >        2       25       26       56       59 </v>
   <v type="int" >        2       25       55       56       59 </v>
   <v type="int" >        2       55       56       59       63 </v>
   <v type="int" >        2       26       56       58       59 </v>
   <v type="int" >        2       56       58       59       62 </v>
   <v type="int" >        2       56       59       62       63 </v>
   <v type="int" >        2       21       26       51       58 </v>
   <v type="int" >        2       26       51       56       58 </v>
   <v type="int" >        2       51       56       58       62 </v>
   <v type="int" >        2       21       51       57       58 </v>
   <v type="int" >        2       51       57       58       61 </v>
   <v type="int" >        2       51       58       61       62 </v>
  </varray>
  <i name="volumeweight">      0.00115741 </i>
 </kpoints>
 <parameters>
  <separator name="general" >
   <i type="string" name="SYSTEM">graphite</i>
   <i type="logical" name="LCOMPAT"> F  </i>
  </separator>
  <separator name="electronic" >
   <i type="string" name="PREC">accura</i>
   <i name="ENMAX">    800.00000000</i>
   <i name="ENAUG">    644.87300000</i>
   <i name="EDIFF">      0.00000001</i>
   <i type="int" name="IALGO">    38</i>
   <i type="int" name="IWAVPR">    10</i>
   <i type="int" name="NBANDS">    84</i>
   <i name="NELECT">    128.00000000</i>
   <i type="int" name="TURBO">     0</i>
   <i type="int" name="IRESTART">     0</i>
   <i type="int" name="NREBOOT">     0</i>
   <i type="int" name="NMIN">     0</i>
   <i name="EREF">      0.00000000</i>
   <separator name="electronic smearing" >
    <i type="int" name="ISMEAR">    -5</i>
    <i name="SIGMA">      0.20000000</i>
    <i name="KSPACING">      0.50000000</i>
    <i type="logical" name="KGAMMA"> T  </i>
   </separator>
   <separator name="electronic projectors" >
    <i type="logical" name="LREAL"> F  </i>
    <v name="ROPT">      0.00000000</v>
    <i type="int" name="LMAXPAW">  -100</i>
    <i type="int" name="LMAXMIX">     2</i>
    <i type="logical" name="NLSPLINE"> F  </i>
   </separator>
   <separator name="electronic startup" >
    <i type="int" name="ISTART">     0</i>
    <i type="int" name="ICHARG">     2</i>
    <i type="int" name="INIWAV">     1</i>
   </separator>
   <separator name="electronic spin" >
    <i type="int" name="ISPIN">     1</i>
    <i type="logical" name="LNONCOLLINEAR"> F  </i>
    <v name="MAGMOM">      1.00000000      1.00000000      1.00000000      1.00000000      1.00000000      1.00000000      1.00000000      1.00000000      1.00000000      1.00000000      1.00000000      1.00000000      1.00000000      1.00000000      1.00000000      1.00000000      1.00000000      1.00000000      1.00000000      1.00000000
      1.00000000      1.00000000      1.00000000      1.00000000      1.00000000      1.00000000      1.00000000      1.00000000      1.00000000      1.00000000      1.00000000      1.00000000</v>
    <i name="NUPDOWN">     -1.00000000</i>
    <i type="logical" name="LSORBIT"> F  </i>
    <v name="SAXIS">      0.00000000      0.00000000      1.00000000</v>
    <i type="logical" name="LSPIRAL"> F  </i>
    <v name="QSPIRAL">      0.00000000      0.00000000      0.00000000</v>
    <i type="logical" name="LZEROZ"> F  </i>
   </separator>
   <separator name="electronic exchange-correlation" >
    <i type="logical" name="LASPH"> F  </i>
    <i type="logical" name="LMETAGGA"> F  </i>
   </separator>
   <separator name="electronic convergence" >
    <i type="int" name="NELM">   200</i>
    <i type="int" name="NELMDL">     0</i>
    <i type="int" name="NELMIN">     2</i>
    <i name="ENINI">    800.00000000</i>
    <separator name="electronic convergence detail" >
     <i type="logical" name="LDIAG"> T  </i>
     <i type="logical" name="LSUBROT"> F  </i>
     <i name="WEIMIN">      0.00000000</i>
     <i name="EBREAK">      0.00000000</i>
     <i name="DEPER">      0.30000000</i>
     <i type="int" name="NRMM">     4</i>
     <i name="TIME">      0.40000000</i>
    </separator>
   </separator>
   <separator name="electronic mixer" >
    <i name="AMIX">      0.40000000</i>
    <i name="BMIX">      1.00000000</i>
    <i name="AMIN">      0.10000000</i>
    <i name="AMIX_MAG">      1.60000000</i>
    <i name="BMIX_MAG">      1.00000000</i>
    <separator name="electronic mixer details" >
     <i type="int" name="IMIX">     4</i>
     <i type="int" name="MAXMIX">   -45</i>
     <i name="WC">    100.00000000</i>
     <i type="int" name="INIMIX">     1</i>
     <i type="int" name="MIXPRE">     1</i>
     <i type="int" name="MREMOVE">     5</i>
    </separator>
   </separator>
   <separator name="electronic dipolcorrection" >
    <i type="logical" name="LDIPOL"> F  </i>
    <i type="logical" name="LMONO"> F  </i>
    <i type="int" name="IDIPOL">     0</i>
    <i name="EPSILON">      1.00000000</i>
    <v name="DIPOL">   -100.00000000   -100.00000000   -100.00000000</v>
    <i name="EFIELD">      0.00000000</i>
   </separator>
  </separator>
  <separator name="grids" >
   <i type="int" name="NGX">    48</i>
   <i type="int" name="NGY">    48</i>
   <i type="int" name="NGZ">   128</i>
   <i type="int" name="NGXF">    96</i>
   <i type="int" name="NGYF">    96</i>
   <i type="int" name="NGZF">   256</i>
   <i type="logical" name="ADDGRID"> F  </i>
  </separator>
  <separator name="ionic" >
   <i type="int" name="NSW">     0</i>
   <i type="int" name="IBRION">    -1</i>
   <i type="int" name="ISIF">     2</i>
   <i name="PSTRESS">      0.00000000</i>
   <i name="EDIFFG">      0.00100000</i>
   <i type="int" name="NFREE">     0</i>
   <i name="POTIM">      0.50000000</i>
   <i name="SMASS">     -3.00000000</i>
   <i name="SCALEE">      1.00000000</i>
  </separator>
  <separator name="ionic md" >
   <i name="TEBEG">      0.00010000</i>
   <i name="TEEND">      0.00010000</i>
   <i type="int" name="NBLOCK">     1</i>
   <i type="int" name="KBLOCK">     1</i>
   <i type="int" name="NPACO">   256</i>
   <i name="APACO">     16.00000000</i>
  </separator>
  <separator name="symmetry" >
   <i type="int" name="ISYM">     2</i>
   <i name="SYMPREC">      0.00001000</i>
  </separator>
  <separator name="dos" >
   <i type="logical" name="LORBIT"> F  </i>
   <v name="RWIGS">     -1.00000000</v>
   <i type="int" name="NEDOS">   301</i>
   <i name="EMIN">     10.00000000</i>
   <i name="EMAX">    -10.00000000</i>
   <i name="EFERMI">      0.00000000</i>
  </separator>
  <separator name="writing" >
   <i type="int" name="NWRITE">     2</i>
   <i type="logical" name="LWAVE"> F  </i>
   <i type="logical" name="LCHARG"> F  </i>
   <i type="logical" name="LPARD"> F  </i>
   <i type="logical" name="LVTOT"> F  </i>
   <i type="logical" name="LVHAR"> F  </i>
   <i type="logical" name="LELF"> F  </i>
   <i type="logical" name="LOPTICS"> F  </i>
   <v name="STM">      0.00000000      0.00000000      0.00000000      0.00000000      0.00000000      0.00000000      0.00000000</v>
  </separator>
  <separator name="performance" >
   <i type="int" name="NPAR">     6</i>
   <i type="int" name="NSIM">     4</i>
   <i type="int" name="NBLK">    -1</i>
   <i type="logical" name="LPLANE"> T  </i>
   <i type="logical" name="LSCALAPACK"> T  </i>
   <i type="logical" name="LSCAAWARE"> F  </i>
   <i type="logical" name="LSCALU"> F  </i>
   <i type="logical" name="LASYNC"> F  </i>
   <i type="logical" name="LORBITALREAL"> F  </i>
  </separator>
  <separator name="miscellaneous" >
   <i type="int" name="IDIOT">     3</i>
   <i type="logical" name="LMUSIC"> F  </i>
   <v name="POMASS">     12.01100000</v>
   <v name="DARWINR">      0.00000000</v>
   <v name="DARWINV">      1.00000000</v>
   <i type="logical" name="LCORR"> T  </i>
  </separator>
  <i type="logical" name="GGA_COMPAT"> T  </i>
  <i type="logical" name="LBERRY"> F  </i>
  <i type="int" name="ICORELEVEL">     0</i>
  <i type="logical" name="LDAU"> F  </i>
  <i type="int" name="I_CONSTRAINED_M">     0</i>
  <separator name="electronic exchange-correlation" >
   <i type="string" name="GGA">PE</i>
   <i type="int" name="VOSKOWN">     0</i>
   <i type="logical" name="LHFCALC"> F  </i>
   <i type="string" name="PRECFOCK"></i>
   <i type="logical" name="LSYMGRAD"> F  </i>
   <i type="logical" name="LHFONE"> F  </i>
   <i type="logical" name="LRHFCALC"> F  </i>
   <i type="logical" name="LTHOMAS"> F  </i>
   <i type="logical" name="LMODELHF"> F  </i>
   <i name="ENCUT4O">     -1.00000000</i>
   <i type="int" name="EXXOEP">     0</i>
   <i type="int" name="FOURORBIT">     0</i>
   <i name="AEXX">      0.00000000</i>
   <i name="HFALPHA">      0.00000000</i>
   <i name="MCALPHA">      0.00000000</i>
   <i name="ALDAX">      1.00000000</i>
   <i name="AGGAX">      1.00000000</i>
   <i name="ALDAC">      1.00000000</i>
   <i name="AGGAC">      1.00000000</i>
   <i type="int" name="NKREDX">     1</i>
   <i type="int" name="NKREDY">     1</i>
   <i type="int" name="NKREDZ">     1</i>
   <i type="logical" name="SHIFTRED"> F  </i>
   <i type="logical" name="ODDONLY"> F  </i>
   <i type="logical" name="EVENONLY"> F  </i>
   <i type="int" name="LMAXFOCK">     0</i>
   <i type="int" name="NMAXFOCKAE">     0</i>
   <i type="logical" name="LFOCKAEDFT"> F  </i>
   <i name="HFSCREEN">      0.00000000</i>
   <i name="HFSCREENC">      0.00000000</i>
   <i type="int" name="NBANDSGWLOW">     0</i>
  </separator>
  <separator name="vdW DFT" >
   <i type="logical" name="LUSE_VDW"> F  </i>
   <i name="Zab_VDW">     -0.84910000</i>
   <i name="PARAM1">      0.12340000</i>
   <i name="PARAM2">      1.00000000</i>
   <i name="PARAM3">      0.00000000</i>
  </separator>
  <separator name="model GW" >
   <i type="int" name="MODEL_GW">     0</i>
   <i name="MODEL_EPS0">      5.44789012</i>
   <i name="MODEL_ALPHA">      1.00000000</i>
  </separator>
  <separator name="linear response parameters" >
   <i type="logical" name="LEPSILON"> F  </i>
   <i type="logical" name="LRPA"> F  </i>
   <i type="logical" name="LNABLA"> F  </i>
   <i type="logical" name="LVEL"> F  </i>
   <i type="int" name="KINTER">     0</i>
   <i name="CSHIFT">      0.10000000</i>
   <i name="OMEGAMAX">     -1.00000000</i>
   <i name="DEG_THRESHOLD">      0.00200000</i>
  </separator>
  <separator name="orbital magnetization" >
   <i type="logical" name="NUCIND"> F  </i>
   <v name="MAGPOS">      0.00000000      0.00000000      0.00000000</v>
   <i type="logical" name="LNICSALL"> T  </i>
   <i type="logical" name="ORBITALMAG"> F  </i>
   <i type="logical" name="LMAGBLOCH"> F  </i>
   <i type="logical" name="LCHIMAG"> F  </i>
   <i type="logical" name="LGAUGE"> T  </i>
   <i type="int" name="MAGATOM">     0</i>
   <v name="MAGDIPOL">      0.00000000      0.00000000      0.00000000</v>
   <v name="AVECCONST">      0.00000000      0.00000000      0.00000000</v>
  </separator>
  <separator name="response functions" >
   <i type="logical" name="LADDER"> F  </i>
   <i type="logical" name="LFXC"> F  </i>
   <i type="logical" name="LHARTREE"> T  </i>
   <i type="int" name="IBSE">     0</i>
   <i type="logical" name="LTCTE"> F  </i>
   <i type="logical" name="LTETE"> F  </i>
   <i type="logical" name="LTRIPLET"> F  </i>
   <i type="logical" name="LFXCEPS"> F  </i>
   <i type="logical" name="LFXHEG"> F  </i>
   <i type="logical" name="L2ORDER"> F  </i>
   <i type="logical" name="LUSEW"> F  </i>
   <i name="ENCUTGW">     -2.00000000</i>
   <i name="ENCUTGWSOFT">     -2.00000000</i>
   <i name="ENCUTLF">     -1.00000000</i>
   <i type="int" name="LMAXMP2">    -1</i>
   <i name="SCISSOR">      0.00000000</i>
   <i type="int" name="NOMEGA">     0</i>
   <i type="int" name="NOMEGAR">     0</i>
   <i type="int" name="NBANDSGW">    -1</i>
   <i type="int" name="NBANDSO">    -1</i>
   <i type="int" name="NBANDSV">    -1</i>
   <i type="int" name="NELM">   200</i>
   <i type="int" name="DIM">     3</i>
   <i type="int" name="ANTIRES">     0</i>
   <i name="OMEGAMAX">    -30.00000000</i>
   <i name="OMEGAMIN">    -30.00000000</i>
   <i name="OMEGATL">   -200.00000000</i>
   <i type="int" name="OMEGAGRID">     0</i>
   <i name="CSHIFT">     -0.10000000</i>
   <i type="logical" name="SELFENERGY"> F  </i>
   <i type="logical" name="LSPECTRAL"> F  </i>
   <i type="logical" name="ODDONLYGW"> F  </i>
   <i type="logical" name="EVENONLYGW"> F  </i>
   <i type="int" name="NKREDLFX">     1</i>
   <i type="int" name="NKREDLFY">     1</i>
   <i type="int" name="NKREDLFZ">     1</i>
   <i type="int" name="MAXMEM">  1800</i>
   <i type="int" name="TELESCOPE">     0</i>
   <i type="int" name="TAUPAR">     1</i>
  </separator>
  <separator name="External order field" >
   <i name="OFIELD_KAPPA">      0.00000000</i>
   <v name="OFIELD_K">      0.00000000      0.00000000      0.00000000</v>
   <i name="OFIELD_Q6_NEAR">      0.00000000</i>
   <i name="OFIELD_Q6_FAR">      0.00000000</i>
   <i name="OFIELD_A">      0.00000000</i>
  </separator>
 </parameters>
 <atominfo>
  <atoms>      32 </atoms>
  <types>       1 </types>
  <array name="atoms" >
   <dimension dim="1">ion</dimension>
   <field type="string">element</field>
   <field type="int">atomtype</field>
   <set>
    <rc><c>C </c><c>   1</c></rc>
    <rc><c>C </c><c>   1</c></rc>
    <rc><c>C </c><c>   1</c></rc>
    <rc><c>C </c><c>   1</c></rc>
    <rc><c>C </c><c>   1</c></rc>
    <rc><c>C </c><c>   1</c></rc>
    <rc><c>C </c><c>   1</c></rc>
    <rc><c>C </c><c>   1</c></rc>
    <rc><c>C </c><c>   1</c></rc>
    <rc><c>C </c><c>   1</c></rc>
    <rc><c>C </c><c>   1</c></rc>
    <rc><c>C </c><c>   1</c></rc>
    <rc><c>C </c><c>   1</c></rc>
    <rc><c>C </c><c>   1</c></rc>
    <rc><c>C </c><c>   1</c></rc>
    <rc><c>C </c><c>   1</c></rc>
    <rc><c>C </c><c>   1</c></rc>
    <rc><c>C </c><c>   1</c></rc>
    <rc><c>C </c><c>   1</c></rc>
    <rc><c>C </c><c>   1</c></rc>
    <rc><c>C </c><c>   1</c></rc>
    <rc><c>C </c><c>   1</c></rc>
    <rc><c>C </c><c>   1</c></rc>
    <rc><c>C </c><c>   1</c></rc>
    <rc><c>C </c><c>   1</c></rc>
    <rc><c>C </c><c>   1</c></rc>
    <rc><c>C </c><c>   1</c></rc>
    <rc><c>C </c><c>   1</c></rc>
    <rc><c>C </c><c>   1</c></rc>
    <rc><c>C </c><c>   1</c></rc>
    <rc><c>C </c><c>   1</c></rc>
    <rc><c>C </c><c>   1</c></rc>
   </set>
  </array>
  <array name="atomtypes" >
   <dimension dim="1">type</dimension>
   <field type="int">atomspertype</field>
   <field type="string">element</field>
   <field>mass</field>
   <field>valence</field>
   <field type="string">pseudopotential</field>
   <set>
    <rc><c>  32</c><c>C </c><c>     12.01100000</c><c>      4.00000000</c><c> PAW_PBE C 08Apr2002                    </c></rc>
   </set>
  </array>
 </atominfo>
 <structure name="initialpos" >
  <crystal>
   <varray name="basis" >
    <v>       4.93287450      -0.00191929       0.00000000 </v>
    <v>      -2.46809940       4.27103499       0.00000000 </v>
    <v>       0.00000000       0.00000000      13.79404151 </v>
   </varray>
   <i name="volume">    290.55413951 </i>
   <varray name="rec_basis" >
    <v>       0.20276715       0.11717288       0.00000000 </v>
    <v>       0.00009112       0.23418794       0.00000000 </v>
    <v>       0.00000000       0.00000000       0.07249507 </v>
   </varray>
  </crystal>
  <varray name="positions" >
   <v>       0.49899069       0.00032672       0.12431738 </v>
   <v>       0.99967330       0.00032672       0.12500000 </v>
   <v>       0.49967330       0.50032672       0.12500000 </v>
   <v>       0.99967330       0.50032672       0.12500000 </v>
   <v>       0.49967330       0.00032672       0.62500000 </v>
   <v>       0.99967330       0.00032672       0.62500000 </v>
   <v>       0.49967330       0.50032672       0.62500000 </v>
   <v>       0.99967330       0.50032672       0.62500000 </v>
   <v>       0.00032672       0.49967330       0.37500000 </v>
   <v>       0.50032672       0.49967330       0.37500000 </v>
   <v>       0.00032672       0.99967330       0.37500000 </v>
   <v>       0.50032672       0.99967330       0.37500000 </v>
   <v>       0.00032672       0.49967330       0.87500000 </v>
   <v>       0.50032672       0.49967330       0.87500000 </v>
   <v>       0.00032672       0.99967330       0.87500000 </v>
   <v>       0.50032672       0.99967330       0.87500000 </v>
   <v>       0.16629246       0.33370753       0.12500000 </v>
   <v>       0.66629246       0.33370753       0.12500000 </v>
   <v>       0.16629246       0.83370753       0.12500000 </v>
   <v>       0.66629246       0.83370753       0.12500000 </v>
   <v>       0.16629246       0.33370753       0.62500000 </v>
   <v>       0.66629246       0.33370753       0.62500000 </v>
   <v>       0.16629246       0.83370753       0.62500000 </v>
   <v>       0.66629246       0.83370753       0.62500000 </v>
   <v>       0.33370753       0.16629246       0.37500000 </v>
   <v>       0.83370753       0.16629246       0.37500000 </v>
   <v>       0.33370753       0.66629246       0.37500000 </v>
   <v>       0.83370753       0.66629246       0.37500000 </v>
   <v>       0.33370753       0.16629246       0.87500000 </v>
   <v>       0.83370753       0.16629246       0.87500000 </v>
   <v>       0.33370753       0.66629246       0.87500000 </v>
   <v>       0.83370753       0.66629246       0.87500000 </v>
  </varray>
 </structure>
 <calculation>
  <scstep>
   <time name="dav">  418.33  837.12</time>
   <time name="total">  419.83  840.13</time>
   <energy>
    <i name="alphaZ">    287.16055492 </i>
    <i name="ewald">  -3548.47811035 </i>
    <i name="hartreedc">  -1278.44645854 </i>
    <i name="XCdc">    442.74542010 </i>
    <i name="pawpsdc">   1210.60617908 </i>
    <i name="pawaedc">  -1247.42152856 </i>
    <i name="eentropy">      0.00000000 </i>
    <i name="bandstr">    142.48052257 </i>
    <i name="atom">   4708.94155045 </i>
    <i name="e_fr_energy">    717.58812968 </i>
    <i name="e_wo_entrp">    717.58812968 </i>
    <i name="e_0_energy">    717.58812968 </i>
   </energy>
  </scstep>
  <scstep>
   <time name="dav">  467.30  935.03</time>
   <time name="total">  467.38  935.22</time>
   <energy>
    <i name="e_fr_energy">   -253.32325237 </i>
    <i name="e_wo_entrp">   -253.32325237 </i>
    <i name="e_0_energy">   -253.32325237 </i>
   </energy>
  </scstep>
  <scstep>
   <time name="dav">  461.32  923.08</time>
   <time name="total">  461.38  923.23</time>
   <energy>
    <i name="e_fr_energy">   -312.88135953 </i>
    <i name="e_wo_entrp">   -312.88135953 </i>
    <i name="e_0_energy">   -312.88135953 </i>
   </energy>
  </scstep>
  <scstep>
   <time name="dav">  481.63  963.75</time>
   <time name="total">  481.70  963.90</time>
   <energy>
    <i name="e_fr_energy">   -314.06669726 </i>
    <i name="e_wo_entrp">   -314.06669726 </i>
    <i name="e_0_energy">   -314.06669726 </i>
   </energy>
  </scstep>
  <scstep>
   <time name="dav">  486.22  972.93</time>
   <time name="total">  491.90  984.32</time>
   <energy>
    <i name="e_fr_energy">   -314.10236504 </i>
    <i name="e_wo_entrp">   -314.10236504 </i>
    <i name="e_0_energy">   -314.10236504 </i>
   </energy>
  </scstep>
  <scstep>
   <time name="dav">  447.95  896.35</time>
   <time name="total">  455.11  910.68</time>
   <energy>
    <i name="e_fr_energy">   -299.56062222 </i>
    <i name="e_wo_entrp">   -299.56062222 </i>
    <i name="e_0_energy">   -299.56062222 </i>
   </energy>
  </scstep>
  <scstep>
   <time name="dav">  446.49  893.46</time>
   <time name="total">  453.81  908.10</time>
   <energy>
    <i name="e_fr_energy">   -294.91724333 </i>
    <i name="e_wo_entrp">   -294.91724333 </i>
    <i name="e_0_energy">   -294.91724333 </i>
   </energy>
  </scstep>
  <scstep>
   <time name="dav">  455.76  911.97</time>
   <time name="total">  462.68  925.82</time>
   <energy>
    <i name="e_fr_energy">   -294.99368953 </i>
    <i name="e_wo_entrp">   -294.99368953 </i>
    <i name="e_0_energy">   -294.99368953 </i>
   </energy>
  </scstep>
  <scstep>
   <time name="dav">  451.68  903.79</time>
   <time name="total">  458.85  918.14</time>
   <energy>
    <i name="e_fr_energy">   -294.98992466 </i>
    <i name="e_wo_entrp">   -294.98992466 </i>
    <i name="e_0_energy">   -294.98992466 </i>
   </energy>
  </scstep>
  <scstep>
   <time name="dav">  559.74 1120.03</time>
   <time name="total">  566.78 1134.12</time>
   <energy>
    <i name="e_fr_energy">   -294.98231515 </i>
    <i name="e_wo_entrp">   -294.98231515 </i>
    <i name="e_0_energy">   -294.98231515 </i>
   </energy>
  </scstep>
  <scstep>
   <time name="dav">  461.47  923.40</time>
   <time name="total">  468.89  938.24</time>
   <energy>
    <i name="e_fr_energy">   -294.98281800 </i>
    <i name="e_wo_entrp">   -294.98281800 </i>
    <i name="e_0_energy">   -294.98281800 </i>
   </energy>
  </scstep>
  <scstep>
   <time name="dav">  466.26  933.00</time>
   <time name="total">  473.48  947.45</time>
   <energy>
    <i name="e_fr_energy">   -294.98309259 </i>
    <i name="e_wo_entrp">   -294.98309259 </i>
    <i name="e_0_energy">   -294.98309259 </i>
   </energy>
  </scstep>
  <scstep>
   <time name="dav">  450.58  901.60</time>
   <time name="total">  457.83  916.10</time>
   <energy>
    <i name="e_fr_energy">   -294.98293704 </i>
    <i name="e_wo_entrp">   -294.98293704 </i>
    <i name="e_0_energy">   -294.98293704 </i>
   </energy>
  </scstep>
  <scstep>
   <time name="dav">  507.55 1015.47</time>
   <time name="total">  514.63 1029.62</time>
   <energy>
    <i name="e_fr_energy">   -294.98342878 </i>
    <i name="e_wo_entrp">   -294.98342878 </i>
    <i name="e_0_energy">   -294.98342878 </i>
   </energy>
  </scstep>
  <scstep>
   <time name="dav">  457.96  916.33</time>
   <time name="total">  465.41  931.25</time>
   <energy>
    <i name="e_fr_energy">   -294.98386399 </i>
    <i name="e_wo_entrp">   -294.98386399 </i>
    <i name="e_0_energy">   -294.98386399 </i>
   </energy>
  </scstep>
  <scstep>
   <time name="dav">  572.93 1146.44</time>
   <time name="total">  580.09 1160.78</time>
   <energy>
    <i name="e_fr_energy">   -294.98322360 </i>
    <i name="e_wo_entrp">   -294.98322360 </i>
    <i name="e_0_energy">   -294.98322360 </i>
   </energy>
  </scstep>
  <scstep>
   <time name="dav">  473.84  948.11</time>
   <time name="total">  481.08  962.61</time>
   <energy>
    <i name="e_fr_energy">   -294.98302113 </i>
    <i name="e_wo_entrp">   -294.98302113 </i>
    <i name="e_0_energy">   -294.98302113 </i>
   </energy>
  </scstep>
  <scstep>
   <time name="dav">  473.65  947.76</time>
   <time name="total">  480.87  962.21</time>
   <energy>
    <i name="e_fr_energy">   -294.98305413 </i>
    <i name="e_wo_entrp">   -294.98305413 </i>
    <i name="e_0_energy">   -294.98305413 </i>
   </energy>
  </scstep>
  <scstep>
   <time name="dav">  564.26  959.93</time>
   <time name="total">  577.07  974.16</time>
   <energy>
    <i name="e_fr_energy">   -294.98301448 </i>
    <i name="e_wo_entrp">   -294.98301448 </i>
    <i name="e_0_energy">   -294.98301448 </i>
   </energy>
  </scstep>
  <scstep>
   <time name="dav">  516.00  516.25</time>
   <time name="total">  529.34  529.60</time>
   <energy>
    <i name="e_fr_energy">   -294.98302144 </i>
    <i name="e_wo_entrp">   -294.98302144 </i>
    <i name="e_0_energy">   -294.98302144 </i>
   </energy>
  </scstep>
  <scstep>
   <time name="dav">  496.03  496.27</time>
   <time name="total">  509.28  509.53</time>
   <energy>
    <i name="e_fr_energy">   -294.98301211 </i>
    <i name="e_wo_entrp">   -294.98301211 </i>
    <i name="e_0_energy">   -294.98301211 </i>
   </energy>
  </scstep>
  <scstep>
   <time name="dav">  486.75  486.99</time>
   <time name="total">  499.65  499.89</time>
   <energy>
    <i name="e_fr_energy">   -294.98301190 </i>
    <i name="e_wo_entrp">   -294.98301190 </i>
    <i name="e_0_energy">   -294.98301190 </i>
   </energy>
  </scstep>
  <scstep>
   <time name="dav">  587.46  587.75</time>
   <time name="total">  600.40  600.71</time>
   <energy>
    <i name="e_fr_energy">   -294.98301251 </i>
    <i name="e_wo_entrp">   -294.98301251 </i>
    <i name="e_0_energy">   -294.98301251 </i>
   </energy>
  </scstep>
  <scstep>
   <time name="dav">  483.33  483.57</time>
   <time name="total">  497.08  497.33</time>
   <energy>
    <i name="e_fr_energy">   -294.98301244 </i>
    <i name="e_wo_entrp">   -294.98301244 </i>
    <i name="e_0_energy">   -294.98301244 </i>
   </energy>
  </scstep>
  <scstep>
   <time name="dav">  508.75  509.00</time>
   <time name="total">  522.20  522.46</time>
   <energy>
    <i name="e_fr_energy">   -294.98301163 </i>
    <i name="e_wo_entrp">   -294.98301163 </i>
    <i name="e_0_energy">   -294.98301163 </i>
   </energy>
  </scstep>
  <scstep>
   <time name="dav">  451.48  451.70</time>
   <time name="total">  465.07  465.30</time>
   <energy>
    <i name="e_fr_energy">   -294.98301165 </i>
    <i name="e_wo_entrp">   -294.98301165 </i>
    <i name="e_0_energy">   -294.98301165 </i>
   </energy>
  </scstep>
  <scstep>
   <time name="dav">  351.26  351.44</time>
   <time name="total">  364.58  364.77</time>
   <energy>
    <i name="e_fr_energy">   -294.98301156 </i>
    <i name="e_wo_entrp">   -294.98301156 </i>
    <i name="e_0_energy">   -294.98301156 </i>
   </energy>
  </scstep>
  <scstep>
   <time name="dav">  363.53  363.71</time>
   <time name="total">  365.65  365.84</time>
   <energy>
    <i name="alphaZ">    287.16055492 </i>
    <i name="ewald">  -3548.47811035 </i>
    <i name="hartreedc">  -1564.31802520 </i>
    <i name="XCdc">    460.95321873 </i>
    <i name="pawpsdc">   2222.40985989 </i>
    <i name="pawaedc">  -2263.62523798 </i>
    <i name="eentropy">      0.00000000 </i>
    <i name="bandstr">   -598.02682203 </i>
    <i name="atom">   4708.94155045 </i>
    <i name="e_fr_energy">   -294.98301156 </i>
    <i name="e_wo_entrp">   -294.98301156 </i>
    <i name="e_0_energy">   -294.98301156 </i>
   </energy>
  </scstep>
  <structure>
   <crystal>
    <varray name="basis" >
     <v>       4.93287450      -0.00191929       0.00000000 </v>
     <v>      -2.46809940       4.27103499       0.00000000 </v>
     <v>       0.00000000       0.00000000      13.79404151 </v>
    </varray>
    <i name="volume">    290.55413951 </i>
    <varray name="rec_basis" >
     <v>       0.20276715       0.11717288       0.00000000 </v>
     <v>       0.00009112       0.23418794       0.00000000 </v>
     <v>       0.00000000       0.00000000       0.07249507 </v>
    </varray>
   </crystal>
   <varray name="positions" >
    <v>       0.49899069       0.00032672       0.12431738 </v>
    <v>       0.99967330       0.00032672       0.12500000 </v>
    <v>       0.49967330       0.50032672       0.12500000 </v>
    <v>       0.99967330       0.50032672       0.12500000 </v>
    <v>       0.49967330       0.00032672       0.62500000 </v>
    <v>       0.99967330       0.00032672       0.62500000 </v>
    <v>       0.49967330       0.50032672       0.62500000 </v>
    <v>       0.99967330       0.50032672       0.62500000 </v>
    <v>       0.00032672       0.49967330       0.37500000 </v>
    <v>       0.50032672       0.49967330       0.37500000 </v>
    <v>       0.00032672       0.99967330       0.37500000 </v>
    <v>       0.50032672       0.99967330       0.37500000 </v>
    <v>       0.00032672       0.49967330       0.87500000 </v>
    <v>       0.50032672       0.49967330       0.87500000 </v>
    <v>       0.00032672       0.99967330       0.87500000 </v>
    <v>       0.50032672       0.99967330       0.87500000 </v>
    <v>       0.16629246       0.33370753       0.12500000 </v>
    <v>       0.66629246       0.33370753       0.12500000 </v>
    <v>       0.16629246       0.83370753       0.12500000 </v>
    <v>       0.66629246       0.83370753       0.12500000 </v>
    <v>       0.16629246       0.33370753       0.62500000 </v>
    <v>       0.66629246       0.33370753       0.62500000 </v>
    <v>       0.16629246       0.83370753       0.62500000 </v>
    <v>       0.66629246       0.83370753       0.62500000 </v>
    <v>       0.33370753       0.16629246       0.37500000 </v>
    <v>       0.83370753       0.16629246       0.37500000 </v>
    <v>       0.33370753       0.66629246       0.37500000 </v>
    <v>       0.83370753       0.66629246       0.37500000 </v>
    <v>       0.33370753       0.16629246       0.87500000 </v>
    <v>       0.83370753       0.16629246       0.87500000 </v>
    <v>       0.33370753       0.66629246       0.87500000 </v>
    <v>       0.83370753       0.66629246       0.87500000 </v>
   </varray>
  </structure>
  <varray name="forces" >
   <v>       0.18657094       0.00872646       0.13255004 </v>
   <v>      -0.05890542       0.00783491       0.00356950 </v>
   <v>      -0.02316383       0.02847786       0.00363872 </v>
   <v>      -0.02327060      -0.01283123       0.00358753 </v>
   <v>      -0.01162485       0.00852219      -0.00361191 </v>
   <v>      -0.01164948       0.00852208      -0.00363275 </v>
   <v>      -0.01164022       0.00852689      -0.00363277 </v>
   <v>      -0.01163993       0.00851631      -0.00363292 </v>
   <v>       0.01440035      -0.01067416       0.00372781 </v>
   <v>       0.01453247      -0.01059584       0.00377378 </v>
   <v>       0.01440136      -0.01075074       0.00374869 </v>
   <v>       0.01453586      -0.01066115       0.00322208 </v>
   <v>       0.01391875      -0.00610604       0.00370064 </v>
   <v>       0.01377808      -0.00603687       0.00364851 </v>
   <v>       0.01378917      -0.00593829       0.00367617 </v>
   <v>       0.01391206      -0.00600733       0.00329809 </v>
   <v>       0.02021819      -0.00692399      -0.01186803 </v>
   <v>      -0.00645054      -0.00740483      -0.04736073 </v>
   <v>      -0.05123880      -0.03273699      -0.04696257 </v>
   <v>      -0.05078735       0.01863917      -0.04767981 </v>
   <v>       0.00970010      -0.00731988       0.00053116 </v>
   <v>       0.00969971      -0.00732048       0.00052053 </v>
   <v>       0.00969873      -0.00732070       0.00051921 </v>
   <v>       0.00969786      -0.00731872       0.00051834 </v>
   <v>      -0.01297157       0.00960326      -0.00084811 </v>
   <v>      -0.01331098       0.00952546      -0.00087459 </v>
   <v>      -0.01307119       0.00984614      -0.00087150 </v>
   <v>      -0.01321312       0.00966209      -0.00031246 </v>
   <v>      -0.01169718       0.00505619      -0.00091396 </v>
   <v>      -0.01126251       0.00497318      -0.00085662 </v>
   <v>      -0.01140777       0.00462852      -0.00085574 </v>
   <v>      -0.01154830       0.00488652      -0.00031634 </v>
  </varray>
  <varray name="stress" >
   <v>      -2.32989487       2.63875766       0.10781021 </v>
   <v>       2.63875765       0.65806548      -0.05115491 </v>
   <v>       0.10781020      -0.05115490      -9.41602707 </v>
  </varray>
  <energy>
   <i name="e_fr_energy">   -299.82315640 </i>
   <i name="e_wo_entrp">   -299.82315640 </i>
   <i name="e_0_energy">      0.00000000 </i>
  </energy>
  <time name="totalsc">13783.0622832.67</time>
  <eigenvalues>
   <array>
    <dimension dim="1">band</dimension>
    <dimension dim="2">kpoint</dimension>
    <dimension dim="3">spin</dimension>
    <field>eigene</field>
    <field>occ</field>
    <set>
     <set comment="spin 1">
      <set comment="kpoint 1">
       <r>  -15.1683    1.0000 </r>
       <r>  -15.0510    1.0000 </r>
       <r>  -15.0506    1.0000 </r>
       <r>  -14.9266    1.0000 </r>
       <r>   -9.8626    1.0000 </r>
       <r>   -9.8521    1.0000 </r>
       <r>   -9.8497    1.0000 </r>
       <r>   -9.8163    1.0000 </r>
       <r>   -9.8146    1.0000 </r>
       <r>   -9.8046    1.0000 </r>
       <r>   -9.8030    1.0000 </r>
       <r>   -9.8030    1.0000 </r>
       <r>   -9.7994    1.0000 </r>
       <r>   -9.7746    1.0000 </r>
       <r>   -9.7622    1.0000 </r>
       <r>   -9.7591    1.0000 </r>
       <r>   -8.7932    1.0000 </r>
       <r>   -8.7919    1.0000 </r>
       <r>   -8.7901    1.0000 </r>
       <r>   -8.7664    1.0000 </r>
       <r>   -8.7657    1.0000 </r>
       <r>   -8.7637    1.0000 </r>
       <r>   -8.7630    1.0000 </r>
       <r>   -8.7630    1.0000 </r>
       <r>   -8.7607    1.0000 </r>
       <r>   -8.7246    1.0000 </r>
       <r>   -8.7241    1.0000 </r>
       <r>   -8.7221    1.0000 </r>
       <r>   -3.9527    1.0000 </r>
       <r>   -3.1793    1.0000 </r>
       <r>   -3.1778    1.0000 </r>
       <r>   -2.2479    1.0000 </r>
       <r>   -1.9673    1.0000 </r>
       <r>   -1.9651    1.0000 </r>
       <r>   -1.9498    1.0000 </r>
       <r>   -1.9461    1.0000 </r>
       <r>   -1.9456    1.0000 </r>
       <r>   -1.9456    1.0000 </r>
       <r>   -1.9418    1.0000 </r>
       <r>   -1.9292    1.0000 </r>
       <r>   -1.9268    1.0000 </r>
       <r>   -1.9246    1.0000 </r>
       <r>   -1.9219    1.0000 </r>
       <r>   -1.9066    1.0000 </r>
       <r>    1.4249    1.0000 </r>
       <r>    1.4309    1.0000 </r>
       <r>    1.4312    1.0000 </r>
       <r>    1.4355    1.0000 </r>
       <r>    1.4427    1.0000 </r>
       <r>    1.4470    1.0000 </r>
       <r>    1.4471    1.0000 </r>
       <r>    1.4528    1.0000 </r>
       <r>    1.7405    1.0000 </r>
       <r>    1.7436    1.0000 </r>
       <r>    1.7452    1.0000 </r>
       <r>    2.0757    1.0000 </r>
       <r>    2.0789    1.0000 </r>
       <r>    2.0857    1.0000 </r>
       <r>    2.0861    1.0000 </r>
       <r>    2.0863    1.0000 </r>
       <r>    2.0905    1.0000 </r>
       <r>    2.3218    1.0000 </r>
       <r>    2.3384    1.0000 </r>
       <r>    2.3410    1.0000 </r>
       <r>    5.9425    0.0000 </r>
       <r>    5.9455    0.0000 </r>
       <r>    5.9506    0.0000 </r>
       <r>    6.0942    0.0000 </r>
       <r>    6.0960    0.0000 </r>
       <r>    6.0983    0.0000 </r>
       <r>    6.1006    0.0000 </r>
       <r>    6.1008    0.0000 </r>
       <r>    6.1031    0.0000 </r>
       <r>    6.5467    0.0000 </r>
       <r>    6.5536    0.0000 </r>
       <r>    6.5561    0.0000 </r>
       <r>    8.5256    0.0000 </r>
       <r>   10.9510    0.0000 </r>
       <r>   10.9548    0.0000 </r>
       <r>   11.6674    0.0000 </r>
       <r>   11.6712    0.0000 </r>
       <r>   11.7030    0.0000 </r>
       <r>   11.8269    0.0000 </r>
       <r>   11.8278    0.0000 </r>
      </set>
      <set comment="kpoint 2">
       <r>  -15.0030    1.0000 </r>
       <r>  -14.8868    1.0000 </r>
       <r>  -14.8864    1.0000 </r>
       <r>  -14.7637    1.0000 </r>
       <r>  -11.1546    1.0000 </r>
       <r>  -11.0664    1.0000 </r>
       <r>  -11.0661    1.0000 </r>
       <r>  -10.9745    1.0000 </r>
       <r>  -10.2850    1.0000 </r>
       <r>  -10.2778    1.0000 </r>
       <r>  -10.2080    1.0000 </r>
       <r>  -10.2073    1.0000 </r>
       <r>  -10.2002    1.0000 </r>
       <r>  -10.1995    1.0000 </r>
       <r>  -10.1281    1.0000 </r>
       <r>  -10.1202    1.0000 </r>
       <r>   -8.1653    1.0000 </r>
       <r>   -8.1592    1.0000 </r>
       <r>   -8.1045    1.0000 </r>
       <r>   -8.1025    1.0000 </r>
       <r>   -8.0974    1.0000 </r>
       <r>   -8.0967    1.0000 </r>
       <r>   -8.0379    1.0000 </r>
       <r>   -8.0316    1.0000 </r>
       <r>   -7.3209    1.0000 </r>
       <r>   -7.2583    1.0000 </r>
       <r>   -7.2568    1.0000 </r>
       <r>   -7.1921    1.0000 </r>
       <r>   -3.7521    1.0000 </r>
       <r>   -2.9835    1.0000 </r>
       <r>   -2.9821    1.0000 </r>
       <r>   -2.4573    1.0000 </r>
       <r>   -2.4407    1.0000 </r>
       <r>   -2.4310    1.0000 </r>
       <r>   -2.4308    1.0000 </r>
       <r>   -2.4151    1.0000 </r>
       <r>   -2.4130    1.0000 </r>
       <r>   -2.4041    1.0000 </r>
       <r>   -2.3874    1.0000 </r>
       <r>   -2.0590    1.0000 </r>
       <r>   -1.8028    1.0000 </r>
       <r>   -1.7833    1.0000 </r>
       <r>   -1.7806    1.0000 </r>
       <r>   -1.7608    1.0000 </r>
       <r>    0.6763    1.0000 </r>
       <r>    0.7752    1.0000 </r>
       <r>    0.7874    1.0000 </r>
       <r>    0.7913    1.0000 </r>
       <r>    0.8026    1.0000 </r>
       <r>    1.0871    1.0000 </r>
       <r>    1.0963    1.0000 </r>
       <r>    1.1004    1.0000 </r>
       <r>    1.1111    1.0000 </r>
       <r>    1.2388    1.0000 </r>
       <r>    1.2411    1.0000 </r>
       <r>    1.5248    1.0000 </r>
       <r>    1.5294    1.0000 </r>
       <r>    1.8493    1.0000 </r>
       <r>    1.9685    1.0000 </r>
       <r>    1.9715    1.0000 </r>
       <r>    1.9773    1.0000 </r>
       <r>    1.9785    1.0000 </r>
       <r>    2.3840    1.0000 </r>
       <r>    2.3965    1.0000 </r>
       <r>    6.1451    0.0000 </r>
       <r>    6.1476    0.0000 </r>
       <r>    6.3750    0.0000 </r>
       <r>    6.3780    0.0000 </r>
       <r>    6.3807    0.0000 </r>
       <r>    6.3833    0.0000 </r>
       <r>    6.8254    0.0000 </r>
       <r>    6.8322    0.0000 </r>
       <r>    6.8521    0.0000 </r>
       <r>    7.1988    0.0000 </r>
       <r>    7.2021    0.0000 </r>
       <r>    7.7100    0.0000 </r>
       <r>    8.7279    0.0000 </r>
       <r>   11.1320    0.0000 </r>
       <r>   11.1356    0.0000 </r>
       <r>   11.7589    0.0000 </r>
       <r>   11.9105    0.0000 </r>
       <r>   11.9118    0.0000 </r>
       <r>   12.0615    0.0000 </r>
       <r>   12.4117    0.0000 </r>
      </set>
      <set comment="kpoint 3">
       <r>  -14.5086    1.0000 </r>
       <r>  -14.3959    1.0000 </r>
       <r>  -14.3956    1.0000 </r>
       <r>  -14.2768    1.0000 </r>
       <r>  -12.5629    1.0000 </r>
       <r>  -12.4639    1.0000 </r>
       <r>  -12.4636    1.0000 </r>
       <r>  -12.3601    1.0000 </r>
       <r>  -10.7063    1.0000 </r>
       <r>  -10.7026    1.0000 </r>
       <r>  -10.6219    1.0000 </r>
       <r>  -10.6213    1.0000 </r>
       <r>  -10.6181    1.0000 </r>
       <r>  -10.6171    1.0000 </r>
       <r>  -10.5335    1.0000 </r>
       <r>  -10.5296    1.0000 </r>
       <r>   -6.9925    1.0000 </r>
       <r>   -6.9834    1.0000 </r>
       <r>   -6.9362    1.0000 </r>
       <r>   -6.9342    1.0000 </r>
       <r>   -6.9265    1.0000 </r>
       <r>   -6.9255    1.0000 </r>
       <r>   -6.8760    1.0000 </r>
       <r>   -6.8670    1.0000 </r>
       <r>   -5.2075    1.0000 </r>
       <r>   -5.1564    1.0000 </r>
       <r>   -5.1546    1.0000 </r>
       <r>   -5.1023    1.0000 </r>
       <r>   -3.6125    1.0000 </r>
       <r>   -3.5985    1.0000 </r>
       <r>   -3.5779    1.0000 </r>
       <r>   -3.5774    1.0000 </r>
       <r>   -3.5644    1.0000 </r>
       <r>   -3.5624    1.0000 </r>
       <r>   -3.5415    1.0000 </r>
       <r>   -3.5273    1.0000 </r>
       <r>   -3.1546    1.0000 </r>
       <r>   -2.4015    1.0000 </r>
       <r>   -2.4001    1.0000 </r>
       <r>   -1.4986    1.0000 </r>
       <r>   -1.3290    1.0000 </r>
       <r>   -1.3104    1.0000 </r>
       <r>   -1.3075    1.0000 </r>
       <r>   -1.2886    1.0000 </r>
       <r>   -0.8758    1.0000 </r>
       <r>   -0.8590    1.0000 </r>
       <r>   -0.8494    1.0000 </r>
       <r>   -0.8482    1.0000 </r>
       <r>   -0.8246    1.0000 </r>
       <r>   -0.1846    1.0000 </r>
       <r>   -0.1829    1.0000 </r>
       <r>    0.2893    1.0000 </r>
       <r>    0.3031    1.0000 </r>
       <r>    0.3070    1.0000 </r>
       <r>    0.3214    1.0000 </r>
       <r>    0.6014    1.0000 </r>
       <r>    1.2308    1.0000 </r>
       <r>    1.2341    1.0000 </r>
       <r>    1.7803    1.0000 </r>
       <r>    1.7831    1.0000 </r>
       <r>    1.7861    1.0000 </r>
       <r>    1.7871    1.0000 </r>
       <r>    2.3804    1.0000 </r>
       <r>    2.3868    1.0000 </r>
       <r>    6.6683    0.0000 </r>
       <r>    6.6715    0.0000 </r>
       <r>    6.9506    0.0000 </r>
       <r>    6.9526    0.0000 </r>
       <r>    6.9552    0.0000 </r>
       <r>    6.9583    0.0000 </r>
       <r>    7.3103    0.0000 </r>
       <r>    7.3138    0.0000 </r>
       <r>    9.0059    0.0000 </r>
       <r>    9.3301    0.0000 </r>
       <r>    9.3409    0.0000 </r>
       <r>    9.3453    0.0000 </r>
       <r>    9.7729    0.0000 </r>
       <r>   11.6606    0.0000 </r>
       <r>   11.6637    0.0000 </r>
       <r>   11.6811    0.0000 </r>
       <r>   12.0564    0.0000 </r>
       <r>   12.1368    0.0000 </r>
       <r>   12.1385    0.0000 </r>
       <r>   12.3834    0.0000 </r>
      </set>
      <set comment="kpoint 4">
       <r>  -13.6925    1.0000 </r>
       <r>  -13.6898    1.0000 </r>
       <r>  -13.5867    1.0000 </r>
       <r>  -13.5841    1.0000 </r>
       <r>  -13.5841    1.0000 </r>
       <r>  -13.5812    1.0000 </r>
       <r>  -13.4729    1.0000 </r>
       <r>  -13.4701    1.0000 </r>
       <r>  -10.8545    1.0000 </r>
       <r>  -10.8529    1.0000 </r>
       <r>  -10.7688    1.0000 </r>
       <r>  -10.7674    1.0000 </r>
       <r>  -10.7673    1.0000 </r>
       <r>  -10.7654    1.0000 </r>
       <r>  -10.6783    1.0000 </r>
       <r>  -10.6766    1.0000 </r>
       <r>   -6.0862    1.0000 </r>
       <r>   -6.0845    1.0000 </r>
       <r>   -6.0557    1.0000 </r>
       <r>   -6.0556    1.0000 </r>
       <r>   -6.0551    1.0000 </r>
       <r>   -6.0511    1.0000 </r>
       <r>   -6.0258    1.0000 </r>
       <r>   -6.0233    1.0000 </r>
       <r>   -4.5012    1.0000 </r>
       <r>   -4.4995    1.0000 </r>
       <r>   -4.4821    1.0000 </r>
       <r>   -4.4795    1.0000 </r>
       <r>   -4.4785    1.0000 </r>
       <r>   -4.4784    1.0000 </r>
       <r>   -4.4557    1.0000 </r>
       <r>   -4.4547    1.0000 </r>
       <r>   -2.9907    1.0000 </r>
       <r>   -2.9872    1.0000 </r>
       <r>   -2.9544    1.0000 </r>
       <r>   -2.9492    1.0000 </r>
       <r>   -2.9491    1.0000 </r>
       <r>   -2.9486    1.0000 </r>
       <r>   -2.9122    1.0000 </r>
       <r>   -2.9097    1.0000 </r>
       <r>   -2.1773    1.0000 </r>
       <r>   -2.1751    1.0000 </r>
       <r>   -1.4535    1.0000 </r>
       <r>   -1.4514    1.0000 </r>
       <r>   -1.4513    1.0000 </r>
       <r>   -1.4481    1.0000 </r>
       <r>   -0.5959    1.0000 </r>
       <r>   -0.5927    1.0000 </r>
       <r>   -0.5916    1.0000 </r>
[...]
       <r>   -4.4637    1.0000 </r>
       <r>   -4.4637    1.0000 </r>
       <r>   -4.4623    1.0000 </r>
       <r>   -4.4591    1.0000 </r>
       <r>   -2.9894    1.0000 </r>
       <r>   -2.9890    1.0000 </r>
       <r>   -2.9890    1.0000 </r>
       <r>   -2.9839    1.0000 </r>
       <r>   -2.9344    1.0000 </r>
       <r>   -2.9340    1.0000 </r>
       <r>   -2.9340    1.0000 </r>
       <r>   -2.9277    1.0000 </r>
       <r>   -1.9791    1.0000 </r>
       <r>   -1.9765    1.0000 </r>
       <r>   -1.9764    1.0000 </r>
       <r>   -1.9742    1.0000 </r>
       <r>   -0.8669    1.0000 </r>
       <r>   -0.8640    1.0000 </r>
       <r>   -0.8639    1.0000 </r>
       <r>   -0.8615    1.0000 </r>
       <r>   -0.5835    1.0000 </r>
       <r>   -0.5735    1.0000 </r>
       <r>   -0.5735    1.0000 </r>
       <r>   -0.5720    1.0000 </r>
       <r>   -0.5534    1.0000 </r>
       <r>   -0.5477    1.0000 </r>
       <r>   -0.5477    1.0000 </r>
       <r>   -0.5460    1.0000 </r>
       <r>    1.2850    1.0000 </r>
       <r>    1.2860    1.0000 </r>
       <r>    1.2861    1.0000 </r>
       <r>    1.2892    1.0000 </r>
       <r>    2.1595    1.0000 </r>
       <r>    2.1605    1.0000 </r>
       <r>    2.1607    1.0000 </r>
       <r>    2.1644    1.0000 </r>
       <r>    7.0742    0.0000 </r>
       <r>    7.0788    0.0000 </r>
       <r>    7.0790    0.0000 </r>
       <r>    7.0798    0.0000 </r>
       <r>    7.4269    0.0000 </r>
       <r>    7.4319    0.0000 </r>
       <r>    7.4321    0.0000 </r>
       <r>    7.4328    0.0000 </r>
       <r>   10.9134    0.0000 </r>
       <r>   10.9186    0.0000 </r>
       <r>   10.9193    0.0000 </r>
       <r>   10.9239    0.0000 </r>
       <r>   11.5344    0.0000 </r>
       <r>   11.5397    0.0000 </r>
       <r>   11.5404    0.0000 </r>
       <r>   11.5483    0.0000 </r>
       <r>   11.8517    0.0000 </r>
       <r>   11.8534    0.0000 </r>
       <r>   11.8541    0.0000 </r>
       <r>   11.8590    0.0000 </r>
      </set>
     </set>
    </set>
   </array>
  </eigenvalues>
  <separator name="orbital magnetization" >
   <v name="MAGDIPOLOUT">      0.00000000      0.00000000      0.00000000</v>
  </separator>
  <dos>
   <i name="efermi">      4.43541706 </i>
   <total>
    <array>
     <dimension dim="1">gridpoints</dimension>
     <dimension dim="2">spin</dimension>
     <field>energy</field>
     <field>total</field>
     <field>integrated</field>
     <set>
      <set comment="spin 1">
       <r>   -17.1683     0.0000     0.0000 </r>
       <r>   -17.0608     0.0000     0.0000 </r>
       <r>   -16.9533     0.0000     0.0000 </r>
       <r>   -16.8458     0.0000     0.0000 </r>
       <r>   -16.7384     0.0000     0.0000 </r>
       <r>   -16.6309     0.0000     0.0000 </r>
       <r>   -16.5234     0.0000     0.0000 </r>
       <r>   -16.4159     0.0000     0.0000 </r>
       <r>   -16.3084     0.0000     0.0000 </r>
       <r>   -16.2009     0.0000     0.0000 </r>
       <r>   -16.0934     0.0000     0.0000 </r>
       <r>   -15.9859     0.0000     0.0000 </r>
       <r>   -15.8784     0.0000     0.0000 </r>
       <r>   -15.7709     0.0000     0.0000 </r>
       <r>   -15.6634     0.0000     0.0000 </r>
       <r>   -15.5559     0.0000     0.0000 </r>
       <r>   -15.4484     0.0000     0.0000 </r>
       <r>   -15.3409     0.0000     0.0000 </r>
       <r>   -15.2334     0.0000     0.0000 </r>
       <r>   -15.1259     0.3677     0.0060 </r>
       <r>   -15.0184     2.6806     0.1554 </r>
       <r>   -14.9109     3.9136     0.4998 </r>
       <r>   -14.8034     5.1694     1.0035 </r>
       <r>   -14.6959     4.8574     1.5234 </r>
       <r>   -14.5885     5.0990     2.0628 </r>
       <r>   -14.4810     5.0118     2.6079 </r>
       <r>   -14.3735     4.8247     3.1369 </r>
       <r>   -14.2660     4.8454     3.6532 </r>
       <r>   -14.1585     5.0783     4.1866 </r>
       <r>   -14.0510     5.3116     4.7450 </r>
       <r>   -13.9435     7.2277     5.4155 </r>
       <r>   -13.8360     7.8197     6.2288 </r>
       <r>   -13.7285     6.0934     7.0659 </r>
       <r>   -13.6210     2.4535     7.4923 </r>
       <r>   -13.5135     1.8706     7.7134 </r>
       <r>   -13.4060     2.1289     7.9241 </r>
       <r>   -13.2985     2.5011     8.1729 </r>
       <r>   -13.1910     2.8979     8.4619 </r>
       <r>   -13.0835     8.6146     8.9581 </r>
       <r>   -12.9760     9.0594    10.0428 </r>
       <r>   -12.8685     7.0332    10.9526 </r>
       <r>   -12.7610     4.0065    11.4421 </r>
       <r>   -12.6535     4.1088    11.8783 </r>
       <r>   -12.5460     4.2132    12.3255 </r>
       <r>   -12.4386     4.3493    12.7855 </r>
       <r>   -12.3311     4.4851    13.2606 </r>
       <r>   -12.2236     4.6110    13.7495 </r>
       <r>   -12.1161     4.7370    14.2519 </r>
       <r>   -12.0086     5.4703    14.7993 </r>
       <r>   -11.9011     6.3295    15.4228 </r>
       <r>   -11.7936     6.1052    16.1077 </r>
       <r>   -11.6861     5.6333    16.7370 </r>
       <r>   -11.5786     5.4295    17.3271 </r>
       <r>   -11.4711     5.5928    17.9195 </r>
       <r>   -11.3636     5.7563    18.5295 </r>
       <r>   -11.2561     5.9199    19.1571 </r>
       <r>   -11.1486     5.9347    19.8015 </r>
       <r>   -11.0411     5.5875    20.4172 </r>
       <r>   -10.9336     5.3684    21.0025 </r>
       <r>   -10.8261     5.3084    21.5813 </r>
       <r>   -10.7186     4.1438    22.0923 </r>
       <r>   -10.6111     4.4470    22.5350 </r>
       <r>   -10.5036     4.9938    23.0506 </r>
       <r>   -10.3962     5.1737    23.5971 </r>
       <r>   -10.2887     5.3537    24.1629 </r>
       <r>   -10.1812     8.1738    24.8882 </r>
       <r>   -10.0737    10.9716    26.0083 </r>
       <r>    -9.9662     8.6811    27.0646 </r>
       <r>    -9.8587     6.3897    27.8746 </r>
       <r>    -9.7512     4.7583    28.4562 </r>
       <r>    -9.6437     4.2990    28.9430 </r>
       <r>    -9.5362     3.8396    29.3804 </r>
       <r>    -9.4287     4.4333    29.7721 </r>
       <r>    -9.3212     6.6017    30.5346 </r>
       <r>    -9.2137     2.0006    30.9343 </r>
       <r>    -9.1062     1.7986    31.1385 </r>
       <r>    -8.9987     1.5966    31.3210 </r>
       <r>    -8.8912     1.3946    31.4818 </r>
       <r>    -8.7837     1.2071    31.6209 </r>
       <r>    -8.6762     1.6115    31.7690 </r>
       <r>    -8.5687     2.1094    31.9690 </r>
       <r>    -8.4612     2.6072    32.2225 </r>
       <r>    -8.3537     3.6574    32.5374 </r>
       <r>    -8.2463     8.1807    33.1628 </r>
       <r>    -8.1388     8.1586    34.2234 </r>
       <r>    -8.0313     4.6628    34.8152 </r>
       <r>    -7.9238     5.8054    35.3778 </r>
       <r>    -7.8163     6.9479    36.0633 </r>
       <r>    -7.7088     8.0904    36.8715 </r>
       <r>    -7.6013     9.2329    37.8026 </r>
       <r>    -7.4938     8.2851    38.8137 </r>
       <r>    -7.3863     5.5930    39.5260 </r>
       <r>    -7.2788     5.5777    40.1244 </r>
       <r>    -7.1713     5.6273    40.7268 </r>
       <r>    -7.0638     5.4766    41.3236 </r>
       <r>    -6.9563     5.3199    41.9042 </r>
       <r>    -6.8488     5.1547    42.4663 </r>
       <r>    -6.7413     5.0362    43.0140 </r>
       <r>    -6.6338     4.9178    43.5490 </r>
       <r>    -6.5263     4.7993    44.0713 </r>
       <r>    -6.4188     4.6809    44.5808 </r>
       <r>    -6.3113     4.5624    45.0776 </r>
       <r>    -6.2038     4.4438    45.5617 </r>
       <r>    -6.0964     4.3784    46.0339 </r>
       <r>    -5.9889     4.9537    46.5331 </r>
       <r>    -5.8814     5.5357    47.0969 </r>
       <r>    -5.7739     6.1178    47.7232 </r>
       <r>    -5.6664     6.6999    48.4121 </r>
       <r>    -5.5589     7.2819    49.1636 </r>
       <r>    -5.4514     7.8640    49.9777 </r>
       <r>    -5.3439     8.4461    50.8543 </r>
       <r>    -5.2364     9.0282    51.7935 </r>
       <r>    -5.1289     3.8313    52.4561 </r>
       <r>    -5.0214     6.2145    52.9643 </r>
       <r>    -4.9139     6.7227    53.7155 </r>
       <r>    -4.8064     5.2855    54.3609 </r>
       <r>    -4.6989     3.8482    54.8518 </r>
       <r>    -4.5914     2.4108    55.1882 </r>
       <r>    -4.4839     1.0749    55.3707 </r>
       <r>    -4.3764     2.2436    55.5368 </r>
       <r>    -4.2689     3.7009    55.8563 </r>
       <r>    -4.1614     5.1582    56.3324 </r>
       <r>    -4.0540     8.1723    56.9894 </r>
       <r>    -3.9465    11.3949    58.1089 </r>
       <r>    -3.8390    10.9221    59.3035 </r>
       <r>    -3.7315    13.7418    60.6009 </r>
       <r>    -3.6240     7.8844    61.7724 </r>
       <r>    -3.5165     4.7859    62.3661 </r>
       <r>    -3.4090     5.8063    62.9345 </r>
       <r>    -3.3015     6.8328    63.6162 </r>
       <r>    -3.1940    10.9913    64.5352 </r>
       <r>    -3.0865    16.3585    65.9949 </r>
       <r>    -2.9790    23.5055    68.2299 </r>
       <r>    -2.8715     6.6764    69.2311 </r>
       <r>    -2.7640     6.9038    69.9604 </r>
       <r>    -2.6565     7.2271    70.7184 </r>
       <r>    -2.5490     7.9563    71.5230 </r>
       <r>    -2.4415    11.1239    72.5240 </r>
       <r>    -2.3340    16.1554    74.1837 </r>
       <r>    -2.2265    12.7191    75.7289 </r>
       <r>    -2.1190    12.1637    76.9345 </r>
       <r>    -2.0115    19.4522    78.5189 </r>
       <r>    -1.9041    14.6159    81.5830 </r>
       <r>    -1.7966    21.0654    83.5708 </r>
       <r>    -1.6891    13.2077    85.2253 </r>
       <r>    -1.5816    14.9442    86.7326 </r>
       <r>    -1.4741    14.4129    88.4202 </r>
       <r>    -1.3666     8.4381    89.5936 </r>
       <r>    -1.2591     6.7451    90.3571 </r>
       <r>    -1.1516     7.7371    91.1436 </r>
       <r>    -1.0441     8.5129    92.0176 </r>
       <r>    -0.9366     9.7123    92.9873 </r>
       <r>    -0.8291    10.6517    94.1022 </r>
       <r>    -0.7216    10.2997    95.2287 </r>
       <r>    -0.6141    11.0229    96.3757 </r>
       <r>    -0.5066    11.4630    98.1555 </r>
       <r>    -0.3991    11.3449    99.3812 </r>
       <r>    -0.2916    12.0853   100.6409 </r>
       <r>    -0.1841    10.7289   101.8667 </r>
       <r>    -0.0766    10.2303   102.9736 </r>
       <r>     0.0309     9.9653   104.0628 </r>
       <r>     0.1384     9.6747   105.1138 </r>
       <r>     0.2458     9.5810   106.1490 </r>
       <r>     0.3533     9.6205   107.1780 </r>
       <r>     0.4608     9.3560   108.2021 </r>
       <r>     0.5683     9.1180   109.1937 </r>
       <r>     0.6758     9.0136   110.1659 </r>
       <r>     0.7833     9.3885   111.1443 </r>
       <r>     0.8908     9.5687   112.1794 </r>
       <r>     0.9983     9.6964   113.2136 </r>
       <r>     1.1058    11.3473   114.2973 </r>
       <r>     1.2133    10.3623   115.4792 </r>
       <r>     1.3208     8.9687   116.5183 </r>
       <r>     1.4283     7.2125   117.3920 </r>
       <r>     1.5358     6.1709   118.1024 </r>
       <r>     1.6433     5.6684   118.7462 </r>
       <r>     1.7508     3.9822   119.2703 </r>
       <r>     1.8583     3.2504   119.6467 </r>
       <r>     1.9658     2.8003   119.9561 </r>
       <r>     2.0733     4.3249   120.3325 </r>
       <r>     2.1808     6.4276   120.8922 </r>
       <r>     2.2882     9.5390   121.7075 </r>
       <r>     2.3957     9.0808   122.8058 </r>
       <r>     2.5032     7.4666   123.6783 </r>
       <r>     2.6107     6.5037   124.4267 </r>
       <r>     2.7182     4.9994   125.0486 </r>
       <r>     2.8257     3.9966   125.5265 </r>
       <r>     2.9332     3.3855   125.9196 </r>
       <r>     3.0407     3.0423   126.2652 </r>
       <r>     3.1482     2.6846   126.5731 </r>
       <r>     3.2557     2.3368   126.8428 </r>
       <r>     3.3632     2.0325   127.0775 </r>
       <r>     3.4707     1.7301   127.2799 </r>
       <r>     3.5782     1.4349   127.4476 </r>
       <r>     3.6857     1.2197   127.5903 </r>
       <r>     3.7932     1.0042   127.7098 </r>
       <r>     3.9007     0.7887   127.8062 </r>
       <r>     4.0082     0.5965   127.8803 </r>
       <r>     4.1157     0.4265   127.9352 </r>
       <r>     4.2232     0.2702   127.9725 </r>
       <r>     4.3307     0.1259   127.9937 </r>
       <r>     4.4381     0.0001   128.0000 </r>
       <r>     4.5456     0.1050   128.0053 </r>
       <r>     4.6531     0.2279   128.0230 </r>
       <r>     4.7606     0.3646   128.0547 </r>
       <r>     4.8681     0.5167   128.1020 </r>
       <r>     4.9756     0.6909   128.1666 </r>
       <r>     5.0831     0.9054   128.2520 </r>
       <r>     5.1906     1.1353   128.3616 </r>
       <r>     5.2981     1.3655   128.4961 </r>
       <r>     5.4056     1.5960   128.6552 </r>
       <r>     5.5131     1.8268   128.8392 </r>
       <r>     5.6206     3.0094   129.0958 </r>
       <r>     5.7281     3.7195   129.4616 </r>
       <r>     5.8356     3.8944   129.8757 </r>
       <r>     5.9431     5.3685   130.3632 </r>
       <r>     6.0506     9.5065   131.1789 </r>
       <r>     6.1581    11.3306   132.4130 </r>
       <r>     6.2656     8.5355   133.4725 </r>
       <r>     6.3731     6.7977   134.3042 </r>
       <r>     6.4805     6.1298   134.9965 </r>
       <r>     6.5880     5.7021   135.6289 </r>
       <r>     6.6955     5.3748   136.2263 </r>
       <r>     6.8030     4.7120   136.7695 </r>
       <r>     6.9105     4.1829   137.2460 </r>
       <r>     7.0180     3.7743   137.6725 </r>
       <r>     7.1255     3.7425   138.0729 </r>
       <r>     7.2330     4.0345   138.4883 </r>
       <r>     7.3405     4.4964   138.9470 </r>
       <r>     7.4480     4.8181   139.4495 </r>
       <r>     7.5555     4.7910   139.9699 </r>
       <r>     7.6630     4.6458   140.4772 </r>
       <r>     7.7705     4.4913   140.9697 </r>
       <r>     7.8780     4.3127   141.4423 </r>
       <r>     7.9855     4.1899   141.8989 </r>
       <r>     8.0930     4.1061   142.3445 </r>
       <r>     8.2005     4.0483   142.7827 </r>
       <r>     8.3080     4.0025   143.2153 </r>
       <r>     8.4155     3.9678   143.6435 </r>
       <r>     8.5230     3.9455   144.0688 </r>
       <r>     8.6304     3.8930   144.4950 </r>
       <r>     8.7379     3.9882   144.9156 </r>
       <r>     8.8454     3.9590   145.3436 </r>
       <r>     8.9529     3.8416   145.7618 </r>
       <r>     9.0604     3.8243   146.1734 </r>
       <r>     9.1679     3.7773   146.5820 </r>
       <r>     9.2754     3.8179   146.9904 </r>
       <r>     9.3829     3.8345   147.4019 </r>
       <r>     9.4904     3.8568   147.8152 </r>
       <r>     9.5979     3.8784   148.2309 </r>
       <r>     9.7054     3.9012   148.6491 </r>
       <r>     9.8129     3.9214   149.0696 </r>
       <r>     9.9204     3.9506   149.4925 </r>
       <r>    10.0279     4.3416   149.9342 </r>
       <r>    10.1354     6.1943   150.4557 </r>
       <r>    10.2429     5.9190   151.1417 </r>
       <r>    10.3504     5.6053   151.7596 </r>
       <r>    10.4579     5.4422   152.3512 </r>
       <r>    10.5654     5.5611   152.9414 </r>
       <r>    10.6729     6.4786   153.5495 </r>
       <r>    10.7803     4.7497   154.1954 </r>
       <r>    10.8878     2.8483   154.5900 </r>
       <r>    10.9953     2.6054   154.8670 </r>
       <r>    11.1028     3.4099   155.1924 </r>
       <r>    11.2103     3.6621   155.5832 </r>
       <r>    11.3178     3.1377   155.9513 </r>
       <r>    11.4253     3.0258   156.2821 </r>
       <r>    11.5328     3.1182   156.6084 </r>
       <r>    11.6403     3.6383   156.9669 </r>
       <r>    11.7478     6.8389   157.4826 </r>
       <r>    11.8553     6.9484   158.2629 </r>
       <r>    11.9628     8.9296   159.1111 </r>
       <r>    12.0703    11.2005   160.1881 </r>
       <r>    12.1778    13.0330   161.5093 </r>
       <r>    12.2853    13.3194   162.9261 </r>
       <r>    12.3928    13.7794   164.3799 </r>
       <r>    12.5003    13.4112   165.8887 </r>
       <r>    12.6078    10.2208   167.1870 </r>
       <r>    12.7153     2.8179   167.8990 </r>
       <r>    12.8227     0.1288   167.9889 </r>
       <r>    12.9302     0.0437   167.9978 </r>
       <r>    13.0377     0.0035   168.0000 </r>
       <r>    13.1452     0.0000   168.0000 </r>
       <r>    13.2527     0.0000   168.0000 </r>
       <r>    13.3602     0.0000   168.0000 </r>
       <r>    13.4677     0.0000   168.0000 </r>
       <r>    13.5752     0.0000   168.0000 </r>
       <r>    13.6827     0.0000   168.0000 </r>
       <r>    13.7902     0.0000   168.0000 </r>
       <r>    13.8977     0.0000   168.0000 </r>
       <r>    14.0052     0.0000   168.0000 </r>
       <r>    14.1127     0.0000   168.0000 </r>
       <r>    14.2202     0.0000   168.0000 </r>
       <r>    14.3277     0.0000   168.0000 </r>
       <r>    14.4352     0.0000   168.0000 </r>
       <r>    14.5427     0.0000   168.0000 </r>
       <r>    14.6502     0.0000   168.0000 </r>
       <r>    14.7577     0.0000   168.0000 </r>
       <r>    14.8652     0.0000   168.0000 </r>
       <r>    14.9726     0.0000   168.0000 </r>
       <r>    15.0801     0.0000   168.0000 </r>
      </set>
     </set>
    </array>
   </total>
  </dos>
 </calculation>
 <structure name="finalpos" >
  <crystal>
   <varray name="basis" >
    <v>       4.93287450      -0.00191929       0.00000000 </v>
    <v>      -2.46809940       4.27103499       0.00000000 </v>
    <v>       0.00000000       0.00000000      13.79404151 </v>
   </varray>
   <i name="volume">    290.55413951 </i>
   <varray name="rec_basis" >
    <v>       0.20276715       0.11717288       0.00000000 </v>
    <v>       0.00009112       0.23418794       0.00000000 </v>
    <v>       0.00000000       0.00000000       0.07249507 </v>
   </varray>
  </crystal>
  <varray name="positions" >
   <v>       0.49899069       0.00032672       0.12431738 </v>
   <v>       0.99967330       0.00032672       0.12500000 </v>
   <v>       0.49967330       0.50032672       0.12500000 </v>
   <v>       0.99967330       0.50032672       0.12500000 </v>
   <v>       0.49967330       0.00032672       0.62500000 </v>
   <v>       0.99967330       0.00032672       0.62500000 </v>
   <v>       0.49967330       0.50032672       0.62500000 </v>
   <v>       0.99967330       0.50032672       0.62500000 </v>
   <v>       0.00032672       0.49967330       0.37500000 </v>
   <v>       0.50032672       0.49967330       0.37500000 </v>
   <v>       0.00032672       0.99967330       0.37500000 </v>
   <v>       0.50032672       0.99967330       0.37500000 </v>
   <v>       0.00032672       0.49967330       0.87500000 </v>
   <v>       0.50032672       0.49967330       0.87500000 </v>
   <v>       0.00032672       0.99967330       0.87500000 </v>
   <v>       0.50032672       0.99967330       0.87500000 </v>
   <v>       0.16629246       0.33370753       0.12500000 </v>
   <v>       0.66629246       0.33370753       0.12500000 </v>
   <v>       0.16629246       0.83370753       0.12500000 </v>
   <v>       0.66629246       0.83370753       0.12500000 </v>
   <v>       0.16629246       0.33370753       0.62500000 </v>
   <v>       0.66629246       0.33370753       0.62500000 </v>
   <v>       0.16629246       0.83370753       0.62500000 </v>
   <v>       0.66629246       0.83370753       0.62500000 </v>
   <v>       0.33370753       0.16629246       0.37500000 </v>
   <v>       0.83370753       0.16629246       0.37500000 </v>
   <v>       0.33370753       0.66629246       0.37500000 </v>
   <v>       0.83370753       0.66629246       0.37500000 </v>
   <v>       0.33370753       0.16629246       0.87500000 </v>
   <v>       0.83370753       0.16629246       0.87500000 </v>
   <v>       0.33370753       0.66629246       0.87500000 </v>
   <v>       0.83370753       0.66629246       0.87500000 </v>
  </varray>
 </structure>
</modeling>
