  32  32   0   0
  0.8863011E+01  0.4934311E-09  0.4934311E-09  0.1345148E-08  0.5000000E-15
  1.000000000000000E-004
  CAR 
 graphite                                
     15.59692328    -16.96930901  301      4.64612848      1.00000000
    -16.969  0.0000E+00  0.0000E+00
    -16.861  0.0000E+00  0.0000E+00
    -16.752  0.0000E+00  0.0000E+00
    -16.644  0.0000E+00  0.0000E+00
    -16.535  0.0000E+00  0.0000E+00
    -16.427  0.0000E+00  0.0000E+00
    -16.318  0.0000E+00  0.0000E+00
    -16.209  0.0000E+00  0.0000E+00
    -16.101  0.0000E+00  0.0000E+00
    -15.992  0.0000E+00  0.0000E+00
    -15.884  0.0000E+00  0.0000E+00
    -15.775  0.0000E+00  0.0000E+00
    -15.667  0.0000E+00  0.0000E+00
    -15.558  0.0000E+00  0.0000E+00
    -15.450  0.0000E+00  0.0000E+00
    -15.341  0.0000E+00  0.0000E+00
    -15.232  0.0000E+00  0.0000E+00
    -15.124  0.0000E+00  0.0000E+00
    -15.015  0.0000E+00  0.0000E+00
    -14.907  0.1360E+01  0.3287E-01
    -14.798  0.2508E+01  0.2438E+00
    -14.690  0.3934E+01  0.5930E+00
    -14.581  0.4779E+01  0.1102E+01
    -14.473  0.5053E+01  0.1638E+01
    -14.364  0.4892E+01  0.2174E+01
    -14.255  0.4952E+01  0.2709E+01
    -14.147  0.4921E+01  0.3246E+01
    -14.038  0.4970E+01  0.3784E+01
    -13.930  0.4980E+01  0.4323E+01
    -13.821  0.5020E+01  0.4866E+01
    -13.713  0.5641E+01  0.5444E+01
    -13.604  0.5886E+01  0.6074E+01
    -13.496  0.6830E+01  0.6799E+01
    -13.387  0.4540E+01  0.7372E+01
    -13.278  0.1830E+01  0.7729E+01
    -13.170  0.3539E+01  0.7986E+01
    -13.061  0.4230E+01  0.8428E+01
    -12.953  0.5013E+01  0.8916E+01
    -12.844  0.5805E+01  0.9676E+01
    -12.736  0.6587E+01  0.1036E+02
    -12.627  0.4373E+01  0.1092E+02
    -12.519  0.4561E+01  0.1140E+02
    -12.410  0.4702E+01  0.1191E+02
    -12.301  0.4821E+01  0.1242E+02
    -12.193  0.5152E+01  0.1297E+02
    -12.084  0.5468E+01  0.1354E+02
    -11.976  0.5675E+01  0.1417E+02
    -11.867  0.5504E+01  0.1477E+02
    -11.759  0.5109E+01  0.1534E+02
    -11.650  0.4952E+01  0.1588E+02
    -11.542  0.4957E+01  0.1641E+02
    -11.433  0.5052E+01  0.1696E+02
    -11.324  0.5109E+01  0.1751E+02
    -11.216  0.5295E+01  0.1807E+02
    -11.107  0.5532E+01  0.1866E+02
    -10.999  0.5912E+01  0.1928E+02
    -10.890  0.5804E+01  0.1991E+02
    -10.782  0.5777E+01  0.2054E+02
    -10.673  0.5854E+01  0.2117E+02
    -10.565  0.5114E+01  0.2178E+02
    -10.456  0.4538E+01  0.2229E+02
    -10.348  0.5155E+01  0.2282E+02
    -10.239  0.5336E+01  0.2339E+02
    -10.130  0.5467E+01  0.2397E+02
    -10.022  0.5678E+01  0.2458E+02
     -9.913  0.5933E+01  0.2521E+02
     -9.805  0.7456E+01  0.2594E+02
     -9.696  0.1017E+02  0.2693E+02
     -9.588  0.6769E+01  0.2784E+02
     -9.479  0.7416E+01  0.2853E+02
     -9.371  0.5739E+01  0.2920E+02
     -9.262  0.3572E+01  0.2969E+02
     -9.153  0.3199E+01  0.3006E+02
     -9.045  0.2826E+01  0.3038E+02
     -8.936  0.2452E+01  0.3067E+02
     -8.828  0.2616E+01  0.3093E+02
     -8.719  0.2771E+01  0.3126E+02
     -8.611  0.1722E+01  0.3151E+02
     -8.502  0.1718E+01  0.3167E+02
     -8.394  0.2635E+01  0.3191E+02
     -8.285  0.8094E+01  0.3241E+02
     -8.176  0.4338E+01  0.3310E+02
     -8.068  0.3960E+01  0.3353E+02
     -7.959  0.4309E+01  0.3398E+02
     -7.851  0.7062E+01  0.3466E+02
     -7.742  0.6440E+01  0.3542E+02
     -7.634  0.7508E+01  0.3618E+02
     -7.525  0.8651E+01  0.3706E+02
     -7.417  0.7801E+01  0.3799E+02
     -7.308  0.6257E+01  0.3872E+02
     -7.199  0.5991E+01  0.3939E+02
     -7.091  0.5733E+01  0.4002E+02
     -6.982  0.5509E+01  0.4063E+02
     -6.874  0.5320E+01  0.4122E+02
     -6.765  0.5139E+01  0.4179E+02
     -6.657  0.4940E+01  0.4234E+02
     -6.548  0.4848E+01  0.4287E+02
     -6.440  0.4821E+01  0.4339E+02
     -6.331  0.4788E+01  0.4391E+02
     -6.222  0.4594E+01  0.4442E+02
     -6.114  0.4422E+01  0.4491E+02
     -6.005  0.3707E+01  0.4538E+02
     -5.897  0.4066E+01  0.4579E+02
     -5.788  0.4426E+01  0.4624E+02
     -5.680  0.5113E+01  0.4675E+02
     -5.571  0.5926E+01  0.4735E+02
     -5.463  0.7383E+01  0.4805E+02
     -5.354  0.1049E+02  0.4905E+02
     -5.245  0.8152E+01  0.5006E+02
     -5.137  0.5811E+01  0.5082E+02
     -5.028  0.3470E+01  0.5132E+02
     -4.920  0.2585E+01  0.5163E+02
     -4.811  0.3287E+01  0.5194E+02
     -4.703  0.4609E+01  0.5236E+02
     -4.594  0.5966E+01  0.5294E+02
     -4.486  0.7756E+01  0.5368E+02
     -4.377  0.7804E+01  0.5455E+02
     -4.268  0.6540E+01  0.5533E+02
     -4.160  0.5661E+01  0.5597E+02
     -4.051  0.7697E+01  0.5667E+02
     -3.943  0.7170E+01  0.5747E+02
     -3.834  0.6644E+01  0.5822E+02
     -3.726  0.6736E+01  0.5894E+02
     -3.617  0.6446E+01  0.5966E+02
     -3.509  0.1012E+02  0.6047E+02
     -3.400  0.8861E+01  0.6172E+02
     -3.291  0.8480E+01  0.6266E+02
     -3.183  0.7858E+01  0.6354E+02
     -3.074  0.6880E+01  0.6434E+02
     -2.966  0.7059E+01  0.6508E+02
     -2.857  0.7998E+01  0.6590E+02
     -2.749  0.9131E+01  0.6683E+02
     -2.640  0.1221E+02  0.6796E+02
     -2.532  0.1423E+02  0.6944E+02
     -2.423  0.1142E+02  0.7084E+02
     -2.315  0.1173E+02  0.7211E+02
     -2.206  0.1203E+02  0.7345E+02
     -2.097  0.1555E+02  0.7494E+02
     -1.989  0.1155E+02  0.7643E+02
     -1.880  0.1809E+02  0.7816E+02
     -1.772  0.1029E+02  0.7962E+02
     -1.663  0.2185E+02  0.8121E+02
     -1.555  0.1822E+02  0.8324E+02
     -1.446  0.1702E+02  0.8525E+02
     -1.338  0.1375E+02  0.8687E+02
     -1.229  0.1158E+02  0.8823E+02
     -1.120  0.1080E+02  0.8944E+02
     -1.012  0.8379E+01  0.9043E+02
     -0.903  0.8501E+01  0.9130E+02
     -0.795  0.1284E+02  0.9244E+02
     -0.686  0.1365E+02  0.9392E+02
     -0.578  0.1281E+02  0.9561E+02
     -0.469  0.8603E+01  0.9662E+02
     -0.361  0.9861E+01  0.9766E+02
     -0.252  0.1044E+02  0.9880E+02
     -0.143  0.1092E+02  0.9994E+02
     -0.035  0.1001E+02  0.1011E+03
      0.074  0.9359E+01  0.1022E+03
      0.182  0.9883E+01  0.1032E+03
      0.291  0.9500E+01  0.1043E+03
      0.399  0.9696E+01  0.1053E+03
      0.508  0.9248E+01  0.1064E+03
      0.616  0.9320E+01  0.1074E+03
      0.725  0.9351E+01  0.1084E+03
      0.834  0.9338E+01  0.1094E+03
      0.942  0.9218E+01  0.1104E+03
      1.051  0.9304E+01  0.1114E+03
      1.159  0.9400E+01  0.1124E+03
      1.268  0.9630E+01  0.1135E+03
      1.376  0.9992E+01  0.1145E+03
      1.485  0.9342E+01  0.1155E+03
      1.593  0.8651E+01  0.1166E+03
      1.702  0.6425E+01  0.1174E+03
      1.811  0.6612E+01  0.1181E+03
      1.919  0.5178E+01  0.1187E+03
      2.028  0.4175E+01  0.1192E+03
      2.136  0.4157E+01  0.1197E+03
      2.245  0.5952E+01  0.1202E+03
      2.353  0.7666E+01  0.1210E+03
      2.462  0.7772E+01  0.1219E+03
      2.570  0.5709E+01  0.1226E+03
      2.679  0.8275E+01  0.1234E+03
      2.788  0.5953E+01  0.1242E+03
      2.896  0.4787E+01  0.1248E+03
      3.005  0.4014E+01  0.1252E+03
      3.113  0.3489E+01  0.1256E+03
      3.222  0.3224E+01  0.1260E+03
      3.330  0.2947E+01  0.1263E+03
      3.439  0.2588E+01  0.1266E+03
      3.547  0.2193E+01  0.1269E+03
      3.656  0.1908E+01  0.1271E+03
      3.765  0.1671E+01  0.1273E+03
      3.873  0.1429E+01  0.1275E+03
      3.982  0.1191E+01  0.1276E+03
      4.090  0.9760E+00  0.1277E+03
      4.199  0.7916E+00  0.1278E+03
      4.307  0.5788E+00  0.1279E+03
      4.416  0.3789E+00  0.1280E+03
      4.524  0.1898E+00  0.1280E+03
      4.633  0.1021E-01  0.1280E+03
      4.742  0.1001E+00  0.1280E+03
      4.850  0.2344E+00  0.1280E+03
      4.959  0.3804E+00  0.1281E+03
      5.067  0.5422E+00  0.1281E+03
      5.176  0.7215E+00  0.1282E+03
      5.284  0.9306E+00  0.1283E+03
      5.393  0.1262E+01  0.1284E+03
      5.501  0.1635E+01  0.1285E+03
      5.610  0.1979E+01  0.1287E+03
      5.718  0.2342E+01  0.1290E+03
      5.827  0.2817E+01  0.1292E+03
      5.936  0.3215E+01  0.1296E+03
      6.044  0.4221E+01  0.1300E+03
      6.153  0.6446E+01  0.1306E+03
      6.261  0.8116E+01  0.1316E+03
      6.370  0.8306E+01  0.1325E+03
      6.478  0.7601E+01  0.1334E+03
      6.587  0.8291E+01  0.1343E+03
      6.695  0.6484E+01  0.1351E+03
      6.804  0.5980E+01  0.1357E+03
      6.913  0.5881E+01  0.1364E+03
      7.021  0.4986E+01  0.1370E+03
      7.130  0.4386E+01  0.1375E+03
      7.238  0.3661E+01  0.1379E+03
      7.347  0.3538E+01  0.1383E+03
      7.455  0.3833E+01  0.1387E+03
      7.564  0.4330E+01  0.1391E+03
      7.672  0.4605E+01  0.1396E+03
      7.781  0.4775E+01  0.1401E+03
      7.890  0.4601E+01  0.1406E+03
      7.998  0.4436E+01  0.1411E+03
      8.107  0.4272E+01  0.1416E+03
      8.215  0.4089E+01  0.1421E+03
      8.324  0.3892E+01  0.1425E+03
      8.432  0.3753E+01  0.1429E+03
      8.541  0.3629E+01  0.1433E+03
      8.649  0.3544E+01  0.1437E+03
      8.758  0.3468E+01  0.1441E+03
      8.867  0.3343E+01  0.1444E+03
      8.975  0.3286E+01  0.1448E+03
      9.084  0.3529E+01  0.1452E+03
      9.192  0.3786E+01  0.1456E+03
      9.301  0.4002E+01  0.1460E+03
      9.409  0.4081E+01  0.1464E+03
      9.518  0.3967E+01  0.1469E+03
      9.626  0.3914E+01  0.1473E+03
      9.735  0.3926E+01  0.1477E+03
      9.844  0.3910E+01  0.1481E+03
      9.952  0.3932E+01  0.1486E+03
     10.061  0.3926E+01  0.1490E+03
     10.169  0.3952E+01  0.1494E+03
     10.278  0.3991E+01  0.1499E+03
     10.386  0.4058E+01  0.1503E+03
     10.495  0.4181E+01  0.1507E+03
     10.603  0.5078E+01  0.1512E+03
     10.712  0.5615E+01  0.1518E+03
     10.821  0.5452E+01  0.1524E+03
     10.929  0.4601E+01  0.1530E+03
     11.038  0.4555E+01  0.1535E+03
     11.146  0.3789E+01  0.1540E+03
     11.255  0.3605E+01  0.1544E+03
     11.363  0.3517E+01  0.1547E+03
     11.472  0.3692E+01  0.1551E+03
     11.580  0.4139E+01  0.1556E+03
     11.689  0.2113E+01  0.1559E+03
     11.798  0.3402E+01  0.1562E+03
     11.906  0.6150E+01  0.1567E+03
     12.015  0.7115E+01  0.1574E+03
     12.123  0.1072E+02  0.1583E+03
     12.232  0.1290E+02  0.1596E+03
     12.340  0.1406E+02  0.1611E+03
     12.449  0.1398E+02  0.1626E+03
     12.557  0.1083E+02  0.1640E+03
     12.666  0.7728E+01  0.1650E+03
     12.775  0.6287E+01  0.1658E+03
     12.883  0.5590E+01  0.1664E+03
     12.992  0.5980E+01  0.1670E+03
     13.100  0.3330E+01  0.1675E+03
     13.209  0.1967E+01  0.1678E+03
     13.317  0.6824E+00  0.1680E+03
     13.426  0.2103E-01  0.1680E+03
     13.534  0.1164E-02  0.1680E+03
     13.643  0.0000E+00  0.1680E+03
     13.752  0.0000E+00  0.1680E+03
     13.860  0.0000E+00  0.1680E+03
     13.969  0.0000E+00  0.1680E+03
     14.077  0.0000E+00  0.1680E+03
     14.186  0.0000E+00  0.1680E+03
     14.294  0.0000E+00  0.1680E+03
     14.403  0.0000E+00  0.1680E+03
     14.511  0.0000E+00  0.1680E+03
     14.620  0.0000E+00  0.1680E+03
     14.728  0.0000E+00  0.1680E+03
     14.837  0.0000E+00  0.1680E+03
     14.946  0.0000E+00  0.1680E+03
     15.054  0.0000E+00  0.1680E+03
     15.163  0.0000E+00  0.1680E+03
     15.271  0.0000E+00  0.1680E+03
     15.380  0.0000E+00  0.1680E+03
     15.488  0.0000E+00  0.1680E+03
     15.597  0.0000E+00  0.1680E+03
