       N       E                     dE             d eps       ncg     rms          rms(c)
DAV:   1     0.426516705081E+02    0.42652E+02   -0.98500E+03 10936   0.150E+03
DAV:   2    -0.203191486715E+02   -0.62971E+02   -0.56034E+02 14140   0.236E+02
DAV:   3    -0.224234699976E+02   -0.21043E+01   -0.20506E+01 14200   0.394E+01
DAV:   4    -0.224400880180E+02   -0.16618E-01   -0.16712E-01 12848   0.349E+00
DAV:   5    -0.224403513471E+02   -0.26333E-03   -0.26836E-03 14336   0.340E-01    0.759E+00
DAV:   6    -0.212636585044E+02    0.11767E+01   -0.78166E-01 11432   0.830E+00    0.401E+00
DAV:   7    -0.208869824508E+02    0.37668E+00   -0.57788E-01 11832   0.716E+00    0.607E-01
DAV:   8    -0.208846423016E+02    0.23401E-02   -0.14558E-02 13652   0.121E+00    0.191E-01
DAV:   9    -0.208845708362E+02    0.71465E-04   -0.50935E-04 12644   0.239E-01    0.152E-02
DAV:  10    -0.208845661187E+02    0.47175E-05   -0.80335E-06 13764   0.281E-02    0.705E-03
DAV:  11    -0.208845665557E+02   -0.43700E-06   -0.10170E-06  7772   0.124E-02
   1 F= -.21520284E+02 E0= -.21520284E+02  d E =-.215203E+02
