   32   32    1    1
  0.8381369E+01  0.4932875E-09  0.4932875E-09  0.1273296E-08  0.5000000E-15
  1.000000000000000E-004
  CAR 
 graphite                                
    128    163     84
 
  0.0000000E+00  0.0000000E+00  0.0000000E+00  0.3086420E-02
    1      -14.545006
    2      -14.333205
    3      -14.332568
    4      -14.099819
    5       -9.186096
    6       -9.176088
    7       -9.173805
    8       -9.091890
    9       -9.089958
   10       -9.079787
   11       -9.078255
   12       -9.078187
   13       -9.074175
   14       -9.019710
   15       -9.006235
   16       -9.002734
   17       -8.081592
   18       -8.079387
   19       -8.077604
   20       -8.041532
   21       -8.040410
   22       -8.038441
   23       -8.037916
   24       -8.037808
   25       -8.035121
   26       -7.954973
   27       -7.954400
   28       -7.952447
   29       -3.590836
   30       -2.456543
   31       -2.454447
   32       -1.257009
   33       -1.254519
   34       -1.238952
   35       -1.212482
   36       -1.211333
   37       -1.211319
   38       -1.207196
   39       -1.194731
   40       -1.192652
   41       -1.165794
   42       -1.162965
   43       -1.147731
   44       -1.045693
   45        2.152355
   46        2.161377
   47        2.166733
   48        2.171955
   49        2.177785
   50        2.182799
   51        2.188192
   52        2.196804
   53        2.233220
   54        2.234917
   55        2.236004
   56        2.789998
   57        2.793950
   58        2.800423
   59        2.800972
   60        2.801294
   61        2.806221
   62        3.110854
   63        3.132433
   64        3.135227
   65        6.707078
   66        6.710578
   67        6.720176
   68        6.795747
   69        6.798112
   70        6.800530
   71        6.802596
   72        6.802903
   73        6.806073
   74        7.497943
   75        7.505608
   76        7.508083
   77        9.954418
   78       12.266398
   79       12.270854
   80       12.301885
   81       12.542845
   82       12.547273
   83       12.557064
   84       12.561922
 
  0.1111111E+00  0.0000000E+00  0.0000000E+00  0.6172840E-02
    1      -14.471034
    2      -14.260104
    3      -14.259471
    4      -14.027667
    5       -9.990086
    6       -9.835364
    7       -9.834735
    8       -9.670716
    9       -9.445723
   10       -9.437087
   11       -9.311442
   12       -9.310319
   13       -9.301585
   14       -9.300698
   15       -9.175411
   16       -9.164767
   17       -7.802734
   18       -7.799073
   19       -7.699660
   20       -7.697432
   21       -7.694253
   22       -7.693240
   23       -7.575589
   24       -7.570714
   25       -7.295451
   26       -7.174003
   27       -7.172264
   28       -7.041248
   29       -3.500888
   30       -2.369697
   31       -2.367602
   32       -1.485261
   33       -1.468150
   34       -1.435458
   35       -1.435288
   36       -1.419131
   37       -1.417071
   38       -1.384359
   39       -1.367259
   40       -1.182627
   41       -1.138869
   42       -1.135880
   43       -1.091622
   44       -0.963062
   45        1.614489
   46        1.855018
   47        1.875312
   48        1.880126
   49        1.899996
   50        1.996422
   51        2.014334
   52        2.019449
   53        2.038206
   54        2.104923
   55        2.108010
   56        2.374013
   57        2.377244
   58        2.738551
   59        2.742361
   60        2.748403
   61        2.750306
   62        3.091889
   63        3.200335
   64        3.219399
   65        6.753549
   66        6.761213
   67        6.928067
   68        6.931581
   69        6.933647
   70        6.937118
   71        6.977859
   72        7.339719
   73        7.343935
   74        7.635309
   75        7.643330
   76        8.124142
   77       10.040671
   78       12.310943
   79       12.585100
   80       12.586136
   81       12.603672
   82       12.638223
   83       12.876631
   84       12.885713
 
  0.2222222E+00  0.0000000E+00  0.0000000E+00  0.6172840E-02
    1      -14.249444
    2      -14.041003
    3      -14.040379
    4      -13.811672
    5      -11.007429
    6      -10.836288
    7      -10.835762
    8      -10.651848
    9       -9.797894
   10       -9.792024
   11       -9.646402
   12       -9.645655
   13       -9.640058
   14       -9.639075
   15       -9.485043
   16       -9.478454
   17       -7.128622
   18       -7.121492
   19       -7.011460
   20       -7.009358
   21       -7.003281
   22       -7.002420
   23       -6.882499
   24       -6.875058
   25       -5.967320
   26       -5.852409
   27       -5.850766
   28       -5.729497
   29       -3.232193
   30       -2.109932
   31       -2.107854
   32       -2.096688
   33       -2.080608
   34       -2.036405
   35       -2.036179
   36       -2.021015
   37       -2.018977
   38       -1.973630
   39       -1.957569
   40       -0.967096
   41       -0.924299
   42       -0.921222
   43       -0.877887
   44       -0.716407
   45        0.568653
   46        1.023620
   47        1.056931
   48        1.061325
   49        1.094607
   50        1.484906
   51        1.487519
   52        1.572750
   53        1.598023
   54        1.603033
   55        1.628910
   56        1.864947
   57        1.868574
   58        2.530874
   59        2.617597
   60        2.621238
   61        2.625794
   62        2.627562
   63        3.330579
   64        3.344262
   65        6.936621
   66        6.940029
   67        7.263132
   68        7.266147
   69        7.268859
   70        7.272298
   71        7.934999
   72        7.940013
   73        8.034392
   74        8.562790
   75        8.566279
   76        9.333871
   77       10.300337
   78       12.433093
   79       12.697639
   80       12.699340
   81       12.954424
   82       13.229661
   83       13.232640
   84       13.517911
 
  0.3333333E+00  0.0000000E+00  0.0000000E+00  0.6172840E-02
    1      -13.881391
    2      -13.677132
    3      -13.676525
    4      -13.452877
    5      -11.924513
    6      -11.742434
    7      -11.741892
    8      -11.544786
    9      -10.056292
   10      -10.052609
   11       -9.898314
   12       -9.897542
   13       -9.894366
   14       -9.893160
   15       -9.728721
   16       -9.724749
   17       -6.317767
   18       -6.308834
   19       -6.208574
   20       -6.206371
   21       -6.198956
   22       -6.197789
   23       -6.091094
   24       -6.082310
   25       -4.527948
   26       -4.427540
   27       -4.425654
   28       -4.320347
   29       -2.916398
   30       -2.902427
   31       -2.846846
   32       -2.846291
   33       -2.833480
   34       -2.831307
   35       -2.787108
   36       -2.772920
   37       -2.758843
   38       -1.680699
   39       -1.678628
   40       -0.617458
   41       -0.576129
   42       -0.572873
   43       -0.530884
   44       -0.466573
   45       -0.309982
   46       -0.168138
   47       -0.118452
   48       -0.114913
   49       -0.064658
   50        0.532271
   51        0.534580
   52        1.006634
   53        1.038076
   54        1.042619
   55        1.074521
   56        1.660407
   57        1.663416
   58        1.729979
   59        2.493921
   60        2.497542
   61        2.500256
   62        2.501818
   63        3.396807
   64        3.405085
   65        7.244988
   66        7.247416
   67        7.655479
   68        7.657792
   69        7.660316
   70        7.664190
   71        8.216220
   72        8.219326
   73        9.529738
   74       10.040565
   75       10.043808
   76       10.718292
   77       10.735769
   78       12.598065
   79       12.873389
   80       12.875423
   81       12.929700
   82       13.319281
   83       13.322329
   84       13.384871
 
  0.4444444E+00  0.0000000E+00  0.0000000E+00  0.6172840E-02
    1      -13.368870
    2      -13.170303
    3      -13.169724
    4      -12.953098
    5      -12.714833
    6      -12.523635
    7      -12.523061
    8      -12.315342
    9      -10.189073
   10      -10.187006
   11      -10.028869
   12      -10.027711
   13      -10.026674
   14      -10.024977
   15       -9.856054
   16       -9.853869
   17       -5.556402
   18       -5.549419
   19       -5.476073
   20       -5.473650
   21       -5.469313
   22       -5.466675
   23       -5.393738
   24       -5.387756
   25       -3.659115
   26       -3.651666
   27       -3.604718
   28       -3.602806
   29       -3.596791
   30       -3.594253
   31       -3.537983
   32       -3.529436
   33       -3.040754
   34       -2.956650
   35       -2.954373
   36       -2.867152
   37       -2.170604
   38       -1.561531
   39       -1.496133
   40       -1.493145
   41       -1.423123
   42       -1.391122
   43       -1.086144
   44       -1.083873
   45       -0.342161
   46       -0.339967
   47       -0.149996
   48       -0.110592
   49       -0.107077
   50       -0.067495
   51        0.247422
   52        0.407111
   53        0.443319
   54        0.447426
   55        0.483815
   56        0.939207
   57        1.548368
   58        1.550556
   59        2.419633
   60        2.423530
   61        2.424542
   62        2.426007
   63        3.414855
   64        3.418547
   65        7.508188
   66        7.510869
   67        7.923751
   68        7.925256
   69        7.926477
   70        7.931314
   71        8.360292
   72        8.363284
   73       11.166130
   74       11.335945
   75       11.579173
   76       11.582659
   77       12.087769
   78       12.148851
   79       12.782514
   80       12.918181
   81       12.966798
   82       12.974285
   83       13.095354
   84       13.128090
 
 -0.1355253E-19  0.1111111E+00  0.0000000E+00  0.6172840E-02
    1      -14.471032
    2      -14.260103
    3      -14.259468
    4      -14.027665
    5       -9.990189
    6       -9.835423
    7       -9.834943
    8       -9.670892
    9       -9.445740
   10       -9.436743
   11       -9.311368
   12       -9.310327
   13       -9.301576
   14       -9.299964
   15       -9.175351
   16       -9.164347
   17       -7.803108
   18       -7.800152
   19       -7.699712
   20       -7.699121
   21       -7.694367
   22       -7.693981
   23       -7.575957
   24       -7.571519
   25       -7.294366
   26       -7.172361
   27       -7.171855
   28       -7.040262
   29       -3.500893
   30       -2.369702
   31       -2.367608
   32       -1.483968
   33       -1.468130
   34       -1.435382
   35       -1.432626
   36       -1.419329
   37       -1.417071
   38       -1.383001
   39       -1.367343
   40       -1.183817
   41       -1.138882
   42       -1.138458
   43       -1.093044
   44       -0.963070
   45        1.613743
   46        1.858675
   47        1.880116
   48        1.880370
   49        1.901974
   50        1.994431
   51        2.014301
   52        2.014410
   53        2.034486
   54        2.105118
   55        2.108776
   56        2.373507
   57        2.375699
   58        2.739030
   59        2.742290
   60        2.748630
   61        2.752318
   62        3.090458
   63        3.200431
   64        3.220863
   65        6.751382
   66        6.761076
   67        6.927550
   68        6.929879
   69        6.933218
   70        6.935321
   71        6.980181
   72        7.342522
   73        7.344818
   74        7.635041
   75        7.641493
   76        8.125822
   77       10.040663
   78       12.310359
   79       12.584952
   80       12.586073
   81       12.604848
   82       12.640638
   83       12.884319
   84       12.896272
 
  0.1111111E+00  0.1111111E+00  0.0000000E+00  0.6172840E-02
    1      -14.323155
    2      -14.113873
    3      -14.113246
    4      -13.883528
    5      -10.458797
    6      -10.455655
    7      -10.296469
    8      -10.293570
    9      -10.293538
   10      -10.290085
   11      -10.119785
   12      -10.116539
   13       -8.996159
   14       -8.903064
   15       -8.901748
   16       -8.832558
   17       -7.893553
   18       -7.857133
   19       -7.853439
   20       -7.775334
   21       -6.611511
   22       -6.608063
   23       -6.493306
   24       -6.489294
   25       -6.489260
   26       -6.486462
   27       -6.363808
   28       -6.360383
   29       -3.321563
   30       -2.196257
   31       -2.194166
   32       -2.156317
   33       -2.096067
   34       -2.093903
   35       -2.032106
   36       -1.340119
   37       -1.337503
   38       -1.291592
   39       -1.290344
   40       -1.290330
   41       -1.285996
   42       -1.240844
   43       -1.237814
   44       -0.798293
   45        1.163568
   46        1.166056
   47        1.325496
   48        1.346213
   49        1.351001
   50        1.368843
   51        1.684143
   52        1.698419
   53        1.703822
   54        1.721399
   55        2.013536
   56        2.015804
   57        2.015855
   58        2.019919
   59        2.499871
   60        2.926949
   61        2.929697
   62        3.056403
   63        3.059737
   64        3.369107
   65        6.716295
   66        6.724881
   67        6.730699
   68        7.288757
   69        7.412340
   70        7.415436
   71        7.881777
   72        7.886445
   73        7.886819
   74        7.888584
   75        8.646038
   76        8.648710
   77       10.214049
   78       12.685288
   79       12.689394
   80       12.956133
   81       12.959047
   82       12.959616
   83       12.965271
   84       13.234383
 
  0.2222222E+00  0.1111111E+00  0.0000000E+00  0.6172840E-02
    1      -14.028228
    2      -13.822273
    3      -13.821660
    4      -13.596001
    5      -11.428829
    6      -11.252720
    7      -11.252191
    8      -11.062221
    9      -10.801403
   10      -10.632976
   11      -10.632388
   12      -10.451494
   13       -9.057867
   14       -8.928236
   15       -8.927554
   16       -8.797560
   17       -7.453049
   18       -7.356936
   19       -7.353878
   20       -7.241180
   21       -5.821605
   22       -5.711037
   23       -5.710387
   24       -5.594001
   25       -5.223432
   26       -5.116658
   27       -5.115022
   28       -5.002674
   29       -3.069523
   30       -2.997610
   31       -2.995501
   32       -2.964437
   33       -2.920127
   34       -1.870865
   35       -1.851536
   36       -1.849456
   37       -1.812505
   38       -1.812292
   39       -1.751904
   40       -1.051238
   41       -1.004920
   42       -1.001920
   43       -0.954685
   44       -0.471499
   45        0.103951
   46        0.365083
   47        0.399349
   48        0.404249
   49        0.436864
   50        0.819375
   51        1.064754
   52        1.067091
   53        1.135587
   54        1.158605
   55        1.164382
   56        1.189582
   57        1.727027
   58        1.729103
   59        2.196688
   60        2.623532
   61        2.764000
   62        3.258392
   63        3.261618
   64        3.716733
   65        6.650722
   66        6.734495
   67        6.739426
   68        7.219816
   69        7.967380
   70        8.456326
   71        8.458684
   72        8.731721
   73        9.108331
   74        9.254176
   75        9.257220
   76        9.952716
   77       10.561997
   78       12.839045
   79       13.103874
   80       13.105542
   81       13.290951
   82       13.403904
   83       13.406705
   84       13.672888
 
  0.3333333E+00  0.1111111E+00  0.0000000E+00  0.6172840E-02
    1      -13.587813
    2      -13.386855
    3      -13.386264
    4      -13.166604
    5      -12.283141
    6      -12.096961
    7      -12.096402
    8      -11.894503
    9      -11.011312
   10      -10.840135
   11      -10.839536
   12      -10.655498
   13       -9.206247
   14       -9.062052
   15       -9.061629
   16       -8.910045
   17       -6.689849
   18       -6.589830
   19       -6.586952
   20       -6.481231
   21       -5.014555
   22       -4.922501
   23       -4.921134
   24       -4.826207
   25       -4.008451
   26       -3.935488
   27       -3.933184
   28       -3.852998
   29       -3.767383
   30       -3.676513
   31       -3.674641
   32       -3.580372
   33       -2.571457
   34       -2.510433
   35       -2.509436
   36       -2.443573
   37       -2.433264
   38       -1.340725
   39       -1.338735
   40       -0.890142
   41       -0.880927
   42       -0.834076
   43       -0.830512
   44       -0.777227
   45       -0.633756
   46       -0.589873
   47       -0.586749
   48       -0.541892
   49        0.011076
   50        0.142278
   51        0.144492
   52        0.505958
   53        0.538966
   54        0.543734
   55        0.577946
   56        0.604655
   57        1.383219
   58        1.542941
   59        1.545014
   60        2.605185
   61        2.645887
   62        3.348752
   63        3.351568
   64        4.067844
   65        6.543222
   66        6.854860
   67        6.859025
   68        7.323274
   69        8.474630
   70        8.911564
   71        8.914176
   72        9.396908
   73       10.301945
   74       10.759808
   75       10.762876
   76       11.083066
   77       11.347703
   78       12.586578
   79       13.121333
   80       13.297498
   81       13.299445
   82       13.421400
   83       13.427948
   84       13.444604
 
  0.4444444E+00  0.1111111E+00  0.0000000E+00  0.6172840E-02
    1      -13.006476
    2      -13.003374
    3      -12.813121
    4      -12.810755
    5      -12.809800
    6      -12.807044
    7      -12.599762
    8      -12.596580
    9      -11.082184
   10      -10.910346
   11      -10.909740
   12      -10.724574
   13       -9.261970
   14       -9.115030
   15       -9.114577
   16       -8.959119
   17       -6.168119
   18       -6.101947
   19       -6.099262
   20       -6.038416
   21       -4.527551
   22       -4.515346
   23       -4.480332
   24       -4.478060
   25       -4.471915
   26       -4.468574
   27       -4.425744
   28       -4.417639
   29       -2.976209
   30       -2.942771
   31       -2.939792
   32       -2.894487
   33       -2.301963
   34       -2.297815
   35       -2.230549
   36       -2.225578
   37       -2.223747
   38       -2.223540
   39       -2.151010
   40       -2.147233
   41       -1.736496
   42       -1.733905
   43       -0.671668
   44       -0.669330
   45       -0.668585
   46       -0.665077
   47       -0.105923
   48       -0.101028
   49       -0.064898
   50       -0.064481
   51       -0.062252
   52       -0.054680
   53       -0.021832
   54       -0.014987
   55        0.530600
   56        0.635585
   57        0.638583
   58        1.479170
   59        1.481281
   60        2.587468
   61        2.602449
   62        3.372317
   63        3.374721
   64        4.211796
   65        6.502071
   66        6.922816
   67        6.926111
   68        7.377346
   69        8.697689
   70        9.088848
   71        9.091881
   72        9.478394
   73       11.767375
   74       11.769909
   75       11.913561
   76       11.917341
   77       12.250616
   78       12.255674
   79       12.256616
   80       12.259330
   81       12.732240
   82       12.736219
   83       13.354036
   84       13.368472
 
 -0.4444444E+00  0.1111111E+00  0.0000000E+00  0.6172840E-02
    1      -13.588557
    2      -13.387591
    3      -13.386993
    4      -13.167342
    5      -12.281964
    6      -12.095793
    7      -12.095243
    8      -11.893331
    9      -11.013071
   10      -10.841980
   11      -10.841378
   12      -10.657302
   13       -9.203394
   14       -9.058971
   15       -9.058493
   16       -8.906575
   17       -6.683436
   18       -6.582426
   19       -6.581374
   20       -6.474781
   21       -5.024460
   22       -4.932891
   23       -4.929938
   24       -4.835358
   25       -4.018803
   26       -3.945288
   27       -3.944737
   28       -3.863850
   29       -3.769918
   30       -3.679316
   31       -3.677069
   32       -3.583003
   33       -2.558917
   34       -2.498550
   35       -2.495654
   36       -2.434195
   37       -2.430445
   38       -1.341513
   39       -1.339537
   40       -0.888657
   41       -0.879766
   42       -0.831959
   43       -0.829858
   44       -0.775890
   45       -0.631192
   46       -0.587586
   47       -0.583973
   48       -0.539374
   49        0.010270
   50        0.143421
   51        0.145684
   52        0.504345
   53        0.537995
   54        0.541140
   55        0.575848
   56        0.602992
   57        1.384354
   58        1.540785
   59        1.542970
   60        2.606217
   61        2.642710
   62        3.352705
   63        3.354892
   64        4.077916
   65        6.539762
   66        6.856637
   67        6.859257
   68        7.323036
   69        8.470746
   70        8.907588
   71        8.911061
   72        9.396200
   73       10.302312
   74       10.758594
   75       10.762050
   76       11.081924
   77       11.345394
   78       12.588017
   79       13.118921
   80       13.294770
   81       13.297504
   82       13.416908
   83       13.426322
   84       13.456917
 
 -0.3333333E+00  0.1111111E+00  0.0000000E+00  0.6172840E-02
    1      -14.028753
    2      -13.822804
    3      -13.822185
    4      -13.596536
    5      -11.427436
    6      -11.251324
    7      -11.250797
    8      -11.060821
    9      -10.804969
   10      -10.636588
   11      -10.636012
   12      -10.455185
   13       -9.051644
   14       -8.921007
   15       -8.920552
   16       -8.789203
   17       -7.449382
   18       -7.351046
   19       -7.350517
   20       -7.235974
   21       -5.831479
   22       -5.721658
   23       -5.719212
   24       -5.603541
   25       -5.225909
   26       -5.119270
   27       -5.117424
   28       -5.005241
   29       -3.083239
   30       -3.010451
   31       -3.010185
   32       -2.965025
   33       -2.933904
   34       -1.854903
   35       -1.852100
   36       -1.850019
   37       -1.797538
   38       -1.795018
   39       -1.735900
   40       -1.049246
   41       -1.003069
   42       -0.999849
   43       -0.952757
   44       -0.472088
   45        0.105278
   46        0.364005
   47        0.399415
   48        0.401363
   49        0.435202
   50        0.816271
   51        1.065985
   52        1.068373
   53        1.137433
   54        1.161208
   55        1.163977
   56        1.189630
   57        1.722765
   58        1.725066
   59        2.197756
   60        2.624489
   61        2.757432
   62        3.265678
   63        3.267870
   64        3.734490
   65        6.643216
   66        6.737278
   67        6.739654
   68        7.222551
   69        7.963465
   70        8.450146
   71        8.453973
   72        8.731583
   73        9.105244
   74        9.252703
   75        9.256131
   76        9.950355
   77       10.561152
   78       12.837089
   79       13.101835
   80       13.103973
   81       13.290120
   82       13.403772
   83       13.406574
   84       13.676711
 
 -0.2222222E+00  0.1111111E+00  0.0000000E+00  0.6172840E-02
    1      -14.323477
    2      -14.114191
    3      -14.113560
    4      -13.883863
    5      -10.462599
    6      -10.455618
    7      -10.299225
    8      -10.298705
    9      -10.292112
   10      -10.291570
   11      -10.123908
   12      -10.116631
   13       -8.985797
   14       -8.890408
   15       -8.890042
   16       -8.818363
   17       -7.894467
   18       -7.855080
   19       -7.854751
   20       -7.773778
   21       -6.617292
   22       -6.612444
   23       -6.498243
   24       -6.495957
   25       -6.493114
   26       -6.491426
   27       -6.369639
   28       -6.364924
   29       -3.321958
   30       -2.196611
   31       -2.194524
   32       -2.171761
   33       -2.110694
   34       -2.110332
   35       -2.047555
   36       -1.336856
   37       -1.322256
   38       -1.289140
   39       -1.286129
   40       -1.274322
   41       -1.271894
   42       -1.237480
   43       -1.223039
   44       -0.798651
   45        1.160289
   46        1.166456
   47        1.318758
   48        1.341150
   49        1.341620
   50        1.361595
   51        1.692109
   52        1.708189
   53        1.708379
   54        1.726828
   55        2.008410
   56        2.010904
   57        2.016545
   58        2.019432
   59        2.500430
   60        2.917418
   61        2.929651
   62        3.065557
   63        3.067829
   64        3.390722
   65        6.706927
   66        6.728349
   67        6.730730
   68        7.295366
   69        7.412860
   70        7.413531
   71        7.878717
   72        7.882224
   73        7.882886
   74        7.886124
   75        8.643124
   76        8.644362
   77       10.213518
   78       12.686463
   79       12.719571
   80       12.957597
   81       12.959386
   82       12.991024
   83       12.993013
   84       13.235917
 
 -0.1111111E+00  0.1111111E+00  0.0000000E+00  0.6172840E-02
    1      -14.471138
    2      -14.260209
    3      -14.259573
    4      -14.027770
    5       -9.997644
    6       -9.843144
    7       -9.842700
    8       -9.678995
    9       -9.436680
   10       -9.434526
   11       -9.301925
   12       -9.300196
   13       -9.300125
   14       -9.297101
   15       -9.164776
   16       -9.162090
   17       -7.802484
   18       -7.800317
   19       -7.698797
   20       -7.695893
   21       -7.695830
   22       -7.694842
   23       -7.574092
   24       -7.572259
   25       -7.299901
   26       -7.179021
   27       -7.176617
   28       -7.046000
   29       -3.501012
   30       -2.369820
   31       -2.367727
   32       -1.485338
   33       -1.482977
   34       -1.435928
   35       -1.434987
   36       -1.434971
   37       -1.430845
   38       -1.384577
   39       -1.381822
   40       -1.166667
   41       -1.122671
   42       -1.120320
   43       -1.075863
   44       -0.963189
   45        1.609210
   46        1.848279
   47        1.868053
   48        1.873384
   49        1.893948
   50        2.002812
   51        2.021400
   52        2.026435
   53        2.044411
   54        2.108200
   55        2.109752
   56        2.365460
   57        2.368228
   58        2.747971
   59        2.749218
   60        2.749538
   61        2.754271
   62        3.075993
   63        3.218610
   64        3.221439
   65        6.751336
   66        6.754776
   67        6.928211
   68        6.933640
   69        6.933959
   70        6.935472
   71        6.982660
   72        7.336779
   73        7.341315
   74        7.639501
   75        7.642076
   76        8.119842
   77       10.040481
   78       12.343608
   79       12.601049
   80       12.605091
   81       12.618169
   82       12.619762
   83       12.881388
   84       12.890103
 
 -0.1355253E-19  0.2222222E+00  0.0000000E+00  0.6172840E-02
    1      -14.249437
    2      -14.040998
    3      -14.040368
    4      -13.811664
    5      -11.007408
    6      -10.836278
    7      -10.835741
    8      -10.651840
    9       -9.798087
   10       -9.791770
   11       -9.646841
   12       -9.645695
   13       -9.640046
   14       -9.638359
   15       -9.485152
   16       -9.478156
   17       -7.129009
   18       -7.122368
   19       -7.011496
   20       -7.010780
   21       -7.003457
   22       -7.003077
   23       -6.882847
   24       -6.875761
   25       -5.966340
   26       -5.850862
   27       -5.850394
   28       -5.728550
   29       -3.232211
   30       -2.109951
   31       -2.107870
   32       -2.095460
   33       -2.080511
   34       -2.036250
   35       -2.033771
   36       -2.020901
   37       -2.018975
   38       -1.972301
   39       -1.957521
   40       -0.968356
   41       -0.924314
   42       -0.923948
   43       -0.879393
   44       -0.716438
   45        0.568209
   46        1.026397
   47        1.061306
   48        1.061588
   49        1.096621
   50        1.484554
   51        1.486674
   52        1.570756
   53        1.598007
   54        1.598241
   55        1.625786
   56        1.864985
   57        1.869467
   58        2.529966
   59        2.618070
   60        2.621146
   61        2.625964
   62        2.629454
   63        3.330753
   64        3.345638
   65        6.934639
   66        6.939775
   67        7.262285
   68        7.264366
   69        7.268713
   70        7.270704
   71        7.933976
   72        7.938743
   73        8.036136
   74        8.564816
   75        8.567038
   76        9.335171
   77       10.300313
   78       12.432381
   79       12.697364
   80       12.698156
   81       12.953674
   82       13.229222
   83       13.231691
   84       13.520039
 
  0.1111111E+00  0.2222222E+00  0.0000000E+00  0.6172840E-02
    1      -14.028222
    2      -13.822269
    3      -13.821652
    4      -13.595995
    5      -11.428787
    6      -11.252695
    7      -11.252135
    8      -11.062183
    9      -10.801434
   10      -10.632989
   11      -10.632429
   12      -10.451515
   13       -9.057855
   14       -8.928213
   15       -8.927552
   16       -8.797547
   17       -7.453114
   18       -7.356936
   19       -7.354054
   20       -7.241292
   21       -5.822673
   22       -5.712569
   23       -5.710973
   24       -5.595058
   25       -5.222368
   26       -5.115086
   27       -5.114486
   28       -5.001623
   29       -3.069424
   30       -2.997443
   31       -2.995501
   32       -2.964451
   33       -2.920056
   34       -1.869532
   35       -1.851551
   36       -1.849476
   37       -1.812350
   38       -1.809677
   39       -1.750451
   40       -1.052598
   41       -1.004965
   42       -1.004781
   43       -0.956252
   44       -0.471522
   45        0.103582
   46        0.366669
   47        0.401547
   48        0.404251
   49        0.437634