 vasp.5.3.5 31Mar14 (build Nov 02 2014 15:17:37) complex                        
  
 executed on        ion-Intel-MKL date 2016.10.18  18:24:57
 running on    6 total cores
 distrk:  each k-point on    6 cores,    1 groups
 distr:  one band on NCORES_PER_BAND=   1 cores,    6 groups


--------------------------------------------------------------------------------------------------------


 INCAR:
 POTCAR:   PAW_PBE C 08Apr2002                    

 ----------------------------------------------------------------------------- 
|                                                                             |
|           W    W    AA    RRRRR   N    N  II  N    N   GGGG   !!!           |
|           W    W   A  A   R    R  NN   N  II  NN   N  G    G  !!!           |
|           W    W  A    A  R    R  N N  N  II  N N  N  G       !!!           |
|           W WW W  AAAAAA  RRRRR   N  N N  II  N  N N  G  GGG   !            |
|           WW  WW  A    A  R   R   N   NN  II  N   NN  G    G                |
|           W    W  A    A  R    R  N    N  II  N    N   GGGG   !!!           |
|                                                                             |
|      For optimal performance we recommend to set                            |
|        NCORE= 4 - approx SQRT( number of cores)                             |
|      NCORE specifies how many cores store one orbital (NPAR=cpu/NCORE).     |
|      This setting can  greatly improve the performance of VASP for DFT.     |
|      The default, NPAR=number of cores might be grossly inefficient         |
|      on modern multi-core architectures or massively parallel machines.     |
|      Do your own testing !!!!                                               |
|      Unfortunately you need to use the default for GW and RPA calculations. |
|      (for HF NCORE is supported but not extensively tested yet)             |
|                                                                             |
 ----------------------------------------------------------------------------- 

 POTCAR:   PAW_PBE C 08Apr2002                    
   VRHFIN =C: s2p2                                                              
   LEXCH  = PE                                                                  
   EATOM  =   147.1560 eV,   10.8157 Ry                                         
                                                                                
   TITEL  = PAW_PBE C 08Apr2002                                                 
   LULTRA =        F    use ultrasoft PP ?                                      
   IUNSCR =        0    unscreen: 0-lin 1-nonlin 2-no                           
   RPACOR =     .000    partial core radius                                     
   POMASS =   12.011; ZVAL   =    4.000    mass and valenz                      
   RCORE  =    1.500    outmost cutoff radius                                   
   RWIGS  =    1.630; RWIGS  =     .863    wigner-seitz radius (au A)           
   ENMAX  =  400.000; ENMIN  =  300.000 eV                                      
   ICORE  =        2    local potential                                         
   LCOR   =        T    correct aug charges                                     
   LPAW   =        T    paw PP                                                  
   EAUG   =  644.873                                                            
   DEXC   =     .000                                                            
   RMAX   =    2.266    core radius for proj-oper                               
   RAUG   =    1.300    factor for augmentation sphere                          
   RDEP   =    1.501    radius for radial grids                                 
   RDEPT  =    1.300    core radius for aug-charge                              
   QCUT   =   -5.516; QGAM   =   11.032    optimization parameters              
                                                                                
   Description                                                                  
     l     E      TYP  RCUT    TYP  RCUT                                        
     0   .000     23  1.200                                                     
     0   .000     23  1.200                                                     
     1   .000     23  1.500                                                     
     1  2.500     23  1.500                                                     
     2   .000      7  1.500                                                     
  local pseudopotential read in
  atomic valenz-charges read in
  non local Contribution for L=           0  read in
    real space projection operators read in
  non local Contribution for L=           0  read in
    real space projection operators read in
  non local Contribution for L=           1  read in
    real space projection operators read in
  non local Contribution for L=           1  read in
    real space projection operators read in
    PAW grid and wavefunctions read in
 
   number of l-projection  operators is LMAX  =           4
   number of lm-projection operators is LMMAX =           8
 

 ----------------------------------------------------------------------------- 
|                                                                             |
|  ADVICE TO THIS USER RUNNING 'VASP/VAMP'   (HEAR YOUR MASTER'S VOICE ...):  |
|                                                                             |
|      You have a (more or less) 'large supercell' and for larger cells       |
|      it might be more efficient to use real space projection operators      |
|      So try LREAL= Auto  in the INCAR   file.                               |
|      Mind: If you want to do a very accurate calculations keep the          |
|      reciprocal projection scheme          (i.e. LREAL=.FALSE.)             |
|                                                                             |
 ----------------------------------------------------------------------------- 

 PAW_PBE C 08Apr2002                    :
 energy of atom  1       EATOM= -147.1560
 kinetic energy error for atom=    0.0016 (will be added to EATOM!!)
 
 
 POSCAR: C                                       
  positions in direct lattice
  No initial velocities read in
 exchange correlation table for  LEXCH =        8
   RHO(1)=    0.500       N(1)  =     2000
   RHO(2)=  100.500       N(2)  =     4000
 


--------------------------------------------------------------------------------------------------------


 ion  position               nearest neighbor table
   1  0.499  0.000  0.124-  19 1.42  18 1.42  20 1.43
   2  1.000  0.000  0.125-  17 1.42  20 1.42  19 1.42
   3  0.500  0.500  0.125-  20 1.42  17 1.42  18 1.42
   4  1.000  0.500  0.125-  19 1.42  18 1.42  17 1.42
   5  0.500  0.000  0.625-  22 1.42  23 1.42  24 1.42
   6  1.000  0.000  0.625-  21 1.42  24 1.42  23 1.42
   7  0.500  0.500  0.625-  24 1.42  21 1.42  22 1.42
   8  1.000  0.500  0.625-  23 1.42  22 1.42  21 1.42
   9  0.000  0.500  0.375-  27 1.42  26 1.42  28 1.42
  10  0.500  0.500  0.375-  28 1.42  25 1.42  27 1.42
  11  0.000  1.000  0.375-  25 1.42  28 1.42  26 1.42
  12  0.500  1.000  0.375-  26 1.42  27 1.42  25 1.42
  13  0.000  0.500  0.875-  31 1.42  30 1.42  32 1.42
  14  0.500  0.500  0.875-  32 1.42  29 1.42  31 1.42
  15  0.000  1.000  0.875-  29 1.42  32 1.42  30 1.42
  16  0.500  1.000  0.875-  30 1.42  31 1.42  29 1.42
  17  0.166  0.334  0.125-   2 1.42   3 1.42   4 1.42
  18  0.666  0.334  0.125-   4 1.42   1 1.42   3 1.42
  19  0.166  0.834  0.125-   1 1.42   4 1.42   2 1.42
  20  0.666  0.834  0.125-   3 1.42   2 1.42   1 1.43
  21  0.166  0.334  0.625-   6 1.42   7 1.42   8 1.42
  22  0.666  0.334  0.625-   5 1.42   8 1.42   7 1.42
  23  0.166  0.834  0.625-   8 1.42   5 1.42   6 1.42
  24  0.666  0.834  0.625-   7 1.42   6 1.42   5 1.42
  25  0.334  0.166  0.375-  11 1.42  10 1.42  12 1.42
  26  0.834  0.166  0.375-  12 1.42   9 1.42  11 1.42
  27  0.334  0.666  0.375-   9 1.42  12 1.42  10 1.42
  28  0.834  0.666  0.375-  10 1.42  11 1.42   9 1.42
  29  0.334  0.166  0.875-  15 1.42  14 1.42  16 1.42
  30  0.834  0.166  0.875-  16 1.42  13 1.42  15 1.42
  31  0.334  0.666  0.875-  13 1.42  16 1.42  14 1.42
  32  0.834  0.666  0.875-  14 1.42  15 1.42  13 1.42
 
  LATTYP: Found a base centered orthorhombic cell.
 ALAT       =     4.9295501972
 B/A-ratio  =     1.7336081796
 C/A-ratio  =     2.5829864569
  
  Lattice vectors:
  
 A1 = (   4.9328744980,  -0.0019192860,   0.0000000000)
 A2 = (  -2.4680993993,   4.2710349859,   0.0000000000)
 A3 = (   0.0000000000,   0.0000000000,  12.7329613980)


Analysis of symmetry for initial positions (statically):
=====================================================================
 Subroutine PRICEL returns:
 Original cell was already a primitive cell.
 

 Routine SETGRP: Setting up the symmetry group for a 
 base centered orthorhombic supercell.


 Subroutine GETGRP returns: Found  1 space group operations
 (whereof  1 operations were pure point group operations)
 out of a pool of  8 trial point group operations.


The static configuration has the point symmetry C_1 .


Analysis of symmetry for dynamics (positions and initial velocities):
=====================================================================
 Subroutine PRICEL returns:
 Original cell was already a primitive cell.
 

 Routine SETGRP: Setting up the symmetry group for a 
 base centered orthorhombic supercell.


 Subroutine GETGRP returns: Found  1 space group operations
 (whereof  1 operations were pure point group operations)
 out of a pool of  8 trial point group operations.


The dynamic configuration has the point symmetry C_1 .
 
 
 KPOINTS: B4C B11C-CBC                            

Automatic generation of k-mesh.
Space group operators:
 irot       det(A)        alpha          n_x          n_y          n_z        tau_x        tau_y        tau_z
    1     1.000000     0.000001     1.000000     0.000000     0.000000     0.000000     0.000000     0.000000
 
 Subroutine IBZKPT returns following result:
 ===========================================
 
 Found     76 irreducible k-points:
 
 Following reciprocal coordinates:
            Coordinates               Weight
  0.000000  0.000000  0.000000      1.000000
  0.166667 -0.000000  0.000000      2.000000
  0.333333 -0.000000  0.000000      2.000000
  0.500000  0.000000  0.000000      1.000000
 -0.000000  0.166667  0.000000      2.000000
  0.166667  0.166667  0.000000      2.000000
  0.333333  0.166667  0.000000      2.000000
  0.500000  0.166667  0.000000      2.000000
 -0.333333  0.166667  0.000000      2.000000
 -0.166667  0.166667  0.000000      2.000000
  0.000000  0.333333  0.000000      2.000000
  0.166667  0.333333  0.000000      2.000000
  0.333333  0.333333  0.000000      2.000000
  0.500000  0.333333  0.000000      2.000000
 -0.333333  0.333333  0.000000      2.000000
 -0.166667  0.333333  0.000000      2.000000
 -0.000000  0.500000  0.000000      1.000000
  0.166667  0.500000  0.000000      2.000000
  0.333333  0.500000  0.000000      2.000000
  0.500000  0.500000  0.000000      1.000000
  0.000000  0.000000  0.250000      2.000000
  0.166667 -0.000000  0.250000      2.000000
  0.333333 -0.000000  0.250000      2.000000
  0.500000  0.000000  0.250000      2.000000
 -0.333333  0.000000  0.250000      2.000000
 -0.166667  0.000000  0.250000      2.000000
 -0.000000  0.166667  0.250000      2.000000
  0.166667  0.166667  0.250000      2.000000
  0.333333  0.166667  0.250000      2.000000
  0.500000  0.166667  0.250000      2.000000
 -0.333333  0.166667  0.250000      2.000000
 -0.166667  0.166667  0.250000      2.000000
  0.000000  0.333333  0.250000      2.000000
  0.166667  0.333333  0.250000      2.000000
  0.333333  0.333333  0.250000      2.000000
  0.500000  0.333333  0.250000      2.000000
 -0.333333  0.333333  0.250000      2.000000
 -0.166667  0.333333  0.250000      2.000000
 -0.000000  0.500000  0.250000      2.000000
  0.166667  0.500000  0.250000      2.000000
  0.333333  0.500000  0.250000      2.000000
  0.500000  0.500000  0.250000      2.000000
 -0.333333  0.500000  0.250000      2.000000
 -0.166667  0.500000  0.250000      2.000000
  0.000000 -0.333333  0.250000      2.000000
  0.166667 -0.333333  0.250000      2.000000
  0.333333 -0.333333  0.250000      2.000000
  0.500000 -0.333333  0.250000      2.000000
 -0.333333 -0.333333  0.250000      2.000000
 -0.166667 -0.333333  0.250000      2.000000
  0.000000 -0.166667  0.250000      2.000000
  0.166667 -0.166667  0.250000      2.000000
  0.333333 -0.166667  0.250000      2.000000
  0.500000 -0.166667  0.250000      2.000000
 -0.333333 -0.166667  0.250000      2.000000
 -0.166667 -0.166667  0.250000      2.000000
  0.000000  0.000000  0.500000      1.000000
  0.166667 -0.000000  0.500000      2.000000
  0.333333 -0.000000  0.500000      2.000000
  0.500000  0.000000  0.500000      1.000000
 -0.000000  0.166667  0.500000      2.000000
  0.166667  0.166667  0.500000      2.000000
  0.333333  0.166667  0.500000      2.000000
  0.500000  0.166667  0.500000      2.000000
 -0.333333  0.166667  0.500000      2.000000
 -0.166667  0.166667  0.500000      2.000000
  0.000000  0.333333  0.500000      2.000000
  0.166667  0.333333  0.500000      2.000000
  0.333333  0.333333  0.500000      2.000000
  0.500000  0.333333  0.500000      2.000000
 -0.333333  0.333333  0.500000      2.000000
 -0.166667  0.333333  0.500000      2.000000
 -0.000000  0.500000  0.500000      1.000000
  0.166667  0.500000  0.500000      2.000000
  0.333333  0.500000  0.500000      2.000000
  0.500000  0.500000  0.500000      1.000000
 
 Following cartesian coordinates:
            Coordinates               Weight
  0.000000  0.000000  0.000000      1.000000
  0.033795  0.019529  0.000000      2.000000
  0.067589  0.039058  0.000000      2.000000
  0.101384  0.058586  0.000000      1.000000
  0.000015  0.039031  0.000000      2.000000
  0.033810  0.058560  0.000000      2.000000
  0.067604  0.078089  0.000000      2.000000
  0.101399  0.097618  0.000000      2.000000
 -0.067574 -0.000026  0.000000      2.000000
 -0.033779  0.019503  0.000000      2.000000
  0.000030  0.078063  0.000000      2.000000
  0.033825  0.097591  0.000000      2.000000
  0.067619  0.117120  0.000000      2.000000
  0.101414  0.136649  0.000000      2.000000
 -0.067559  0.039005  0.000000      2.000000
 -0.033764  0.058534  0.000000      2.000000
  0.000046  0.117094  0.000000      1.000000
  0.033840  0.136623  0.000000      2.000000
  0.067635  0.156152  0.000000      2.000000
  0.101429  0.175680  0.000000      1.000000
  0.000000  0.000000  0.019634      2.000000
  0.033795  0.019529  0.019634      2.000000
  0.067589  0.039058  0.019634      2.000000
  0.101384  0.058586  0.019634      2.000000
 -0.067589 -0.039058  0.019634      2.000000
 -0.033795 -0.019529  0.019634      2.000000
  0.000015  0.039031  0.019634      2.000000
  0.033810  0.058560  0.019634      2.000000
  0.067604  0.078089  0.019634      2.000000
  0.101399  0.097618  0.019634      2.000000
 -0.067574 -0.000026  0.019634      2.000000
 -0.033779  0.019503  0.019634      2.000000
  0.000030  0.078063  0.019634      2.000000
  0.033825  0.097591  0.019634      2.000000
  0.067619  0.117120  0.019634      2.000000
  0.101414  0.136649  0.019634      2.000000
 -0.067559  0.039005  0.019634      2.000000
 -0.033764  0.058534  0.019634      2.000000
  0.000046  0.117094  0.019634      2.000000
  0.033840  0.136623  0.019634      2.000000
  0.067635  0.156152  0.019634      2.000000
  0.101429  0.175680  0.019634      2.000000
 -0.067543  0.078036  0.019634      2.000000
 -0.033749  0.097565  0.019634      2.000000
 -0.000030 -0.078063  0.019634      2.000000
  0.033764 -0.058534  0.019634      2.000000
  0.067559 -0.039005  0.019634      2.000000
  0.101353 -0.019476  0.019634      2.000000
 -0.067619 -0.117120  0.019634      2.000000
 -0.033825 -0.097591  0.019634      2.000000
 -0.000015 -0.039031  0.019634      2.000000
  0.033779 -0.019503  0.019634      2.000000
  0.067574  0.000026  0.019634      2.000000
  0.101368  0.019555  0.019634      2.000000
 -0.067604 -0.078089  0.019634      2.000000
 -0.033810 -0.058560  0.019634      2.000000
  0.000000  0.000000  0.039268      1.000000
  0.033795  0.019529  0.039268      2.000000
  0.067589  0.039058  0.039268      2.000000
  0.101384  0.058586  0.039268      1.000000
  0.000015  0.039031  0.039268      2.000000
  0.033810  0.058560  0.039268      2.000000
  0.067604  0.078089  0.039268      2.000000
  0.101399  0.097618  0.039268      2.000000
 -0.067574 -0.000026  0.039268      2.000000
 -0.033779  0.019503  0.039268      2.000000
  0.000030  0.078063  0.039268      2.000000
  0.033825  0.097591  0.039268      2.000000
  0.067619  0.117120  0.039268      2.000000
  0.101414  0.136649  0.039268      2.000000
 -0.067559  0.039005  0.039268      2.000000
 -0.033764  0.058534  0.039268      2.000000
  0.000046  0.117094  0.039268      1.000000
  0.033840  0.136623  0.039268      2.000000
  0.067635  0.156152  0.039268      2.000000
  0.101429  0.175680  0.039268      1.000000
 
 TETIRR: Found    432 inequivalent tetrahedra from      864


--------------------------------------------------------------------------------------------------------




 Dimension of arrays:
   k-points           NKPTS =     76   k-points in BZ     NKDIM =     76   number of bands    NBANDS=     84
   number of dos      NEDOS =    301   number of ions     NIONS =     32
   non local maximal  LDIM  =      4   non local SUM 2l+1 LMDIM =      8
   total plane-waves  NPLWV = 276480
   max r-space proj   IRMAX =      1   max aug-charges    IRDMAX=  12363
   dimension x,y,z NGX =    48 NGY =   48 NGZ =  120
   dimension x,y,z NGXF=    96 NGYF=   96 NGZF=  240
   support grid    NGXF=    96 NGYF=   96 NGZF=  240
   ions per type =              32
 NGX,Y,Z   is equivalent  to a cutoff of  16.18, 16.18, 15.67 a.u.
 NGXF,Y,Z  is equivalent  to a cutoff of  32.35, 32.35, 31.34 a.u.


 I would recommend the setting:
   dimension x,y,z NGX =    46 NGY =   46 NGZ =  117
 SYSTEM =  graphite                                
 POSCAR =  C                                       

 Startparameter for this run:
   NWRITE =      2    write-flag & timer
   PREC   = accura    normal or accurate (medium, high low for compatibility)
   ISTART =      0    job   : 0-new  1-cont  2-samecut
   ICHARG =      2    charge: 1-file 2-atom 10-const
   ISPIN  =      1    spin polarized calculation?
   LNONCOLLINEAR =      F non collinear calculations
   LSORBIT =      F    spin-orbit coupling
   INIWAV =      1    electr: 0-lowe 1-rand  2-diag
   LASPH  =      F    aspherical Exc in radial PAW
   METAGGA=      F    non-selfconsistent MetaGGA calc.

 Electronic Relaxation 1
   ENCUT  =  800.0 eV  58.80 Ry    7.67 a.u.  11.38 11.38 29.37*2*pi/ulx,y,z
   ENINI  =  800.0     initial cutoff
   ENAUG  =  644.9 eV  augmentation charge cutoff
   NELM   =    200;   NELMIN=  2; NELMDL=  0     # of ELM steps 
   EDIFF  = 0.1E-07   stopping-criterion for ELM
   LREAL  =      F    real-space projection
   NLSPLINE    = F    spline interpolate recip. space projectors
   LCOMPAT=      F    compatible to vasp.4.4
   GGA_COMPAT  = T    GGA compatible to vasp.4.4-vasp.4.6
   LMAXPAW     = -100 max onsite density
   LMAXMIX     =    2 max onsite mixed and CHGCAR
   VOSKOWN=      0    Vosko Wilk Nusair interpolation
   ROPT   =    0.00000
 Ionic relaxation
   EDIFFG = 0.1E-02   stopping-criterion for IOM
   NSW    =      0    number of steps for IOM
   NBLOCK =      1;   KBLOCK =      1    inner block; outer block 
   IBRION =     -1    ionic relax: 0-MD 1-quasi-New 2-CG
   NFREE  =      0    steps in history (QN), initial steepest desc. (CG)
   ISIF   =      2    stress and relaxation
   IWAVPR =     10    prediction:  0-non 1-charg 2-wave 3-comb
   ISYM   =      2    0-nonsym 1-usesym 2-fastsym
   LCORR  =      T    Harris-Foulkes like correction to forces

   POTIM  = 0.5000    time-step for ionic-motion
   TEIN   =    0.0    initial temperature
   TEBEG  =    0.0;   TEEND  =   0.0 temperature during run
   SMASS  =  -3.00    Nose mass-parameter (am)
   estimated Nose-frequenzy (Omega)   =  0.10E-29 period in steps =****** mass=  -0.556E-27a.u.
   SCALEE = 1.0000    scale energy and forces
   NPACO  =    256;   APACO  = 16.0  distance and # of slots for P.C.
   PSTRESS=    0.0 pullay stress

  Mass of Ions in am
   POMASS =  12.01
  Ionic Valenz
   ZVAL   =   4.00
  Atomic Wigner-Seitz radii
   RWIGS  =  -1.00
  virtual crystal weights 
   VCA    =   1.00
   NELECT =     128.0000    total number of electrons
   NUPDOWN=      -1.0000    fix difference up-down

 DOS related values:
   EMIN   =  10.00;   EMAX   =-10.00  energy-range for DOS
   EFERMI =   0.00
   ISMEAR =    -5;   SIGMA  =   0.20  broadening in eV -4-tet -1-fermi 0-gaus

 Electronic relaxation 2 (details)
   IALGO  =     38    algorithm
   LDIAG  =      T    sub-space diagonalisation (order eigenvalues)
   LSUBROT=      F    optimize rotation matrix (better conditioning)
   TURBO    =      0    0=normal 1=particle mesh
   IRESTART =      0    0=no restart 2=restart with 2 vectors
   NREBOOT  =      0    no. of reboots
   NMIN     =      0    reboot dimension
   EREF     =   0.00    reference energy to select bands
   IMIX   =      4    mixing-type and parameters
     AMIX     =   0.40;   BMIX     =  1.00
     AMIX_MAG =   1.60;   BMIX_MAG =  1.00
     AMIN     =   0.10
     WC   =   100.;   INIMIX=   1;  MIXPRE=   1;  MAXMIX= -45

 Intra band minimization:
   WEIMIN = 0.0000     energy-eigenvalue tresh-hold
   EBREAK =  0.30E-10  absolut break condition
   DEPER  =   0.30     relativ break condition  

   TIME   =   0.40     timestep for ELM

  volume/ion in A,a.u.               =       8.38        56.56
  Fermi-wavevector in a.u.,A,eV,Ry     =   1.279351  2.417624 22.269198  1.636740
  Thomas-Fermi vector in A             =   2.411842
 
 Write flags
   LWAVE  =      F    write WAVECAR
   LCHARG =      F    write CHGCAR
   LVTOT  =      F    write LOCPOT, total local potential
   LVHAR  =      F    write LOCPOT, Hartree potential only
   LELF   =      F    write electronic localiz. function (ELF)
   LORBIT =      0    0 simple, 1 ext, 2 COOP (PROOUT)


 Dipole corrections
   LMONO  =      F    monopole corrections only (constant potential shift)
   LDIPOL =      F    correct potential (dipole corrections)
   IDIPOL =      0    1-x, 2-y, 3-z, 4-all directions 
   EPSILON=  1.0000000 bulk dielectric constant

 Exchange correlation treatment:
   GGA     =    PE    GGA type
   LEXCH   =     8    internal setting for exchange type
   VOSKOWN=      0    Vosko Wilk Nusair interpolation
   LHFCALC =     F    Hartree Fock is set to
   LHFONE  =     F    Hartree Fock one center treatment
   AEXX    =    0.0000 exact exchange contribution

 Linear response parameters
   LEPSILON=     F    determine dielectric tensor
   LRPA    =     F    only Hartree local field effects (RPA)
   LNABLA  =     F    use nabla operator in PAW spheres
   LVEL    =     F    velocity operator in full k-point grid
   LINTERFAST=   F  fast interpolation
   KINTER  =     0    interpolate to denser k-point grid
   CSHIFT  =0.1000    complex shift for real part using Kramers Kronig
   OMEGAMAX=  -1.0    maximum frequency
   DEG_THRESHOLD= 0.2000000E-02 threshold for treating states as degnerate
   RTIME   =    0.100 relaxation time in fs

 Orbital magnetization related:
   ORBITALMAG=     F  switch on orbital magnetization
   LCHIMAG   =     F  perturbation theory with respect to B field
   DQ        =  0.001000  dq finite difference perturbation B field



--------------------------------------------------------------------------------------------------------


 Static calculation
 charge density and potential will be updated during run
 non-spin polarized calculation
 Variant of blocked Davidson
 Davidson routine will perform the subspace rotation
 perform sub-space diagonalisation
    after iterative eigenvector-optimisation
 modified Broyden-mixing scheme, WC =      100.0
 initial mixing is a Kerker type mixing with AMIX =  0.4000 and BMIX =      1.0000
 Hartree-type preconditioning will be used
 using additional bands           20
 reciprocal scheme for non local part
 calculate Harris-corrections to forces 
   (improved forces if not selfconsistent)
 use gradient corrections 
 use of overlap-Matrix (Vanderbilt PP)
 Fermi weights with tetrahedron method with Bloechl corrections


--------------------------------------------------------------------------------------------------------


  energy-cutoff  :      800.00
  volume of cell :      268.20
      direct lattice vectors                 reciprocal lattice vectors
     4.932874498 -0.001919286  0.000000000     0.202767147  0.117172881  0.000000000
    -2.468099399  4.271034986  0.000000000     0.000091118  0.234187941  0.000000000
     0.000000000  0.000000000 12.732961398     0.000000000  0.000000000  0.078536325

  length of vectors
     4.932874871  4.932874871 12.732961398     0.234187958  0.234187958  0.078536325


 
 k-points in units of 2pi/SCALE and weight: B4C B11C-CBC                            
   0.00000000  0.00000000  0.00000000       0.007
   0.03379452  0.01952881  0.00000000       0.014
   0.06758905  0.03905763  0.00000000       0.014
   0.10138357  0.05858644  0.00000000       0.007
   0.00001519  0.03903132  0.00000000       0.014
   0.03380971  0.05856014  0.00000000       0.014
   0.06760424  0.07808895  0.00000000       0.014
   0.10139876  0.09761776  0.00000000       0.014
  -0.06757386 -0.00002630  0.00000000       0.014
  -0.03377934  0.01950251  0.00000000       0.014
   0.00003037  0.07806265  0.00000000       0.014
   0.03382490  0.09759146  0.00000000       0.014
   0.06761942  0.11712027  0.00000000       0.014
   0.10141395  0.13664909  0.00000000       0.014
  -0.06755868  0.03900502  0.00000000       0.014
  -0.03376415  0.05853383  0.00000000       0.014
   0.00004556  0.11709397  0.00000000       0.007
   0.03384008  0.13662278  0.00000000       0.014
   0.06763461  0.15615160  0.00000000       0.014
   0.10142913  0.17568041  0.00000000       0.007
   0.00000000  0.00000000  0.01963408       0.014
   0.03379452  0.01952881  0.01963408       0.014
   0.06758905  0.03905763  0.01963408       0.014
   0.10138357  0.05858644  0.01963408       0.014
  -0.06758905 -0.03905763  0.01963408       0.014
  -0.03379452 -0.01952881  0.01963408       0.014
   0.00001519  0.03903132  0.01963408       0.014
   0.03380971  0.05856014  0.01963408       0.014
   0.06760424  0.07808895  0.01963408       0.014
   0.10139876  0.09761776  0.01963408       0.014
  -0.06757386 -0.00002630  0.01963408       0.014
  -0.03377934  0.01950251  0.01963408       0.014
   0.00003037  0.07806265  0.01963408       0.014
   0.03382490  0.09759146  0.01963408       0.014
   0.06761942  0.11712027  0.01963408       0.014
   0.10141395  0.13664909  0.01963408       0.014
  -0.06755868  0.03900502  0.01963408       0.014
  -0.03376415  0.05853383  0.01963408       0.014
   0.00004556  0.11709397  0.01963408       0.014
   0.03384008  0.13662278  0.01963408       0.014
   0.06763461  0.15615160  0.01963408       0.014
   0.10142913  0.17568041  0.01963408       0.014
  -0.06754349  0.07803634  0.01963408       0.014
  -0.03374897  0.09756516  0.01963408       0.014
  -0.00003037 -0.07806265  0.01963408       0.014
   0.03376415 -0.05853383  0.01963408       0.014
   0.06755868 -0.03900502  0.01963408       0.014
   0.10135320 -0.01947621  0.01963408       0.014
  -0.06761942 -0.11712027  0.01963408       0.014
  -0.03382490 -0.09759146  0.01963408       0.014
  -0.00001519 -0.03903132  0.01963408       0.014
   0.03377934 -0.01950251  0.01963408       0.014
   0.06757386  0.00002630  0.01963408       0.014
   0.10136839  0.01955512  0.01963408       0.014
  -0.06760424 -0.07808895  0.01963408       0.014
  -0.03380971 -0.05856014  0.01963408       0.014
   0.00000000  0.00000000  0.03926816       0.007
   0.03379452  0.01952881  0.03926816       0.014
   0.06758905  0.03905763  0.03926816       0.014
   0.10138357  0.05858644  0.03926816       0.007
   0.00001519  0.03903132  0.03926816       0.014
   0.03380971  0.05856014  0.03926816       0.014
   0.06760424  0.07808895  0.03926816       0.014
   0.10139876  0.09761776  0.03926816       0.014
  -0.06757386 -0.00002630  0.03926816       0.014
  -0.03377934  0.01950251  0.03926816       0.014
   0.00003037  0.07806265  0.03926816       0.014
   0.03382490  0.09759146  0.03926816       0.014
   0.06761942  0.11712027  0.03926816       0.014
   0.10141395  0.13664909  0.03926816       0.014
  -0.06755868  0.03900502  0.03926816       0.014
  -0.03376415  0.05853383  0.03926816       0.014
   0.00004556  0.11709397  0.03926816       0.007
   0.03384008  0.13662278  0.03926816       0.014
   0.06763461  0.15615160  0.03926816       0.014
   0.10142913  0.17568041  0.03926816       0.007
 
 k-points in reciprocal lattice and weights: B4C B11C-CBC                            
   0.00000000  0.00000000  0.00000000       0.007
   0.16666667 -0.00000000  0.00000000       0.014
   0.33333333 -0.00000000  0.00000000       0.014
   0.50000000  0.00000000  0.00000000       0.007
  -0.00000000  0.16666667  0.00000000       0.014
   0.16666667  0.16666667  0.00000000       0.014
   0.33333333  0.16666667  0.00000000       0.014
   0.50000000  0.16666667  0.00000000       0.014
  -0.33333333  0.16666667  0.00000000       0.014
  -0.16666667  0.16666667  0.00000000       0.014
   0.00000000  0.33333333  0.00000000       0.014
   0.16666667  0.33333333  0.00000000       0.014
   0.33333333  0.33333333  0.00000000       0.014
   0.50000000  0.33333333  0.00000000       0.014
  -0.33333333  0.33333333  0.00000000       0.014
  -0.16666667  0.33333333  0.00000000       0.014
  -0.00000000  0.50000000  0.00000000       0.007
   0.16666667  0.50000000  0.00000000       0.014
   0.33333333  0.50000000  0.00000000       0.014
   0.50000000  0.50000000  0.00000000       0.007
   0.00000000  0.00000000  0.25000000       0.014
   0.16666667 -0.00000000  0.25000000       0.014
   0.33333333 -0.00000000  0.25000000       0.014
   0.50000000  0.00000000  0.25000000       0.014
  -0.33333333  0.00000000  0.25000000       0.014
  -0.16666667  0.00000000  0.25000000       0.014
  -0.00000000  0.16666667  0.25000000       0.014
   0.16666667  0.16666667  0.25000000       0.014
   0.33333333  0.16666667  0.25000000       0.014
   0.50000000  0.16666667  0.25000000       0.014
  -0.33333333  0.16666667  0.25000000       0.014
  -0.16666667  0.16666667  0.25000000       0.014
   0.00000000  0.33333333  0.25000000       0.014
   0.16666667  0.33333333  0.25000000       0.014
   0.33333333  0.33333333  0.25000000       0.014
   0.50000000  0.33333333  0.25000000       0.014
  -0.33333333  0.33333333  0.25000000       0.014
  -0.16666667  0.33333333  0.25000000       0.014
  -0.00000000  0.50000000  0.25000000       0.014
   0.16666667  0.50000000  0.25000000       0.014
   0.33333333  0.50000000  0.25000000       0.014
   0.50000000  0.50000000  0.25000000       0.014
  -0.33333333  0.50000000  0.25000000       0.014
  -0.16666667  0.50000000  0.25000000       0.014
   0.00000000 -0.33333333  0.25000000       0.014
   0.16666667 -0.33333333  0.25000000       0.014
   0.33333333 -0.33333333  0.25000000       0.014
   0.50000000 -0.33333333  0.25000000       0.014
  -0.33333333 -0.33333333  0.25000000       0.014
  -0.16666667 -0.33333333  0.25000000       0.014
   0.00000000 -0.16666667  0.25000000       0.014
   0.16666667 -0.16666667  0.25000000       0.014
   0.33333333 -0.16666667  0.25000000       0.014
   0.50000000 -0.16666667  0.25000000       0.014
  -0.33333333 -0.16666667  0.25000000       0.014
  -0.16666667 -0.16666667  0.25000000       0.014
   0.00000000  0.00000000  0.50000000       0.007
   0.16666667 -0.00000000  0.50000000       0.014
   0.33333333 -0.00000000  0.50000000       0.014
   0.50000000  0.00000000  0.50000000       0.007
  -0.00000000  0.16666667  0.50000000       0.014
   0.16666667  0.16666667  0.50000000       0.014
   0.33333333  0.16666667  0.50000000       0.014
   0.50000000  0.16666667  0.50000000       0.014
  -0.33333333  0.16666667  0.50000000       0.014
  -0.16666667  0.16666667  0.50000000       0.014
   0.00000000  0.33333333  0.50000000       0.014
   0.16666667  0.33333333  0.50000000       0.014
   0.33333333  0.33333333  0.50000000       0.014
   0.50000000  0.33333333  0.50000000       0.014
  -0.33333333  0.33333333  0.50000000       0.014
  -0.16666667  0.33333333  0.50000000       0.014
  -0.00000000  0.50000000  0.50000000       0.007
   0.16666667  0.50000000  0.50000000       0.014
   0.33333333  0.50000000  0.50000000       0.014
   0.50000000  0.50000000  0.50000000       0.007
 
 position of ions in fractional coordinates (direct lattice) 
   0.49894098  0.00032672  0.12426767
   0.99967330  0.00032672  0.12500000
   0.49967330  0.50032672  0.12500000
   0.99967330  0.50032672  0.12500000
   0.49967330  0.00032672  0.62500000
   0.99967330  0.00032672  0.62500000
   0.49967330  0.50032672  0.62500000
   0.99967330  0.50032672  0.62500000
   0.00032672  0.49967330  0.37500000
   0.50032672  0.49967330  0.37500000
   0.00032672  0.99967330  0.37500000
   0.50032672  0.99967330  0.37500000
   0.00032672  0.49967330  0.87500000
   0.50032672  0.49967330  0.87500000
   0.00032672  0.99967330  0.87500000
   0.50032672  0.99967330  0.87500000
   0.16629246  0.33370753  0.12500000
   0.66629246  0.33370753  0.12500000
   0.16629246  0.83370753  0.12500000
   0.66629246  0.83370753  0.12500000
   0.16629246  0.33370753  0.62500000
   0.66629246  0.33370753  0.62500000
   0.16629246  0.83370753  0.62500000
   0.66629246  0.83370753  0.62500000
   0.33370753  0.16629246  0.37500000
   0.83370753  0.16629246  0.37500000
   0.33370753  0.66629246  0.37500000
   0.83370753  0.66629246  0.37500000
   0.33370753  0.16629246  0.87500000
   0.83370753  0.16629246  0.87500000
   0.33370753  0.66629246  0.87500000
   0.83370753  0.66629246  0.87500000
 
 position of ions in cartesian coordinates  (Angst):
   2.46040685  0.00043782  1.58229548
   4.93045658 -0.00052323  1.59162017
   1.22996963  2.13595390  1.59162017
   3.69640688  2.13499426  1.59162017
   2.46401933  0.00043641  7.95810087
   4.93045658 -0.00052323  7.95810087
   1.22996963  2.13595390  7.95810087
   3.69640688  2.13499426  7.95810087
  -1.23163172  2.13412154  4.77486052
   1.23480553  2.13316189  4.77486052
  -2.46568142  4.26963903  4.77486052
   0.00075583  4.26867939  4.77486052
  -1.23163172  2.13412154 11.14134122
   1.23480553  2.13316189 11.14134122
  -2.46568142  4.26963903 11.14134122
   0.00075583  4.26867939 11.14134122
  -0.00332350  1.42495737  1.59162017
   2.46311374  1.42399773  1.59162017
  -1.23737320  3.56047486  1.59162017
   1.22906405  3.55951522  1.59162017
  -0.00332350  1.42495737  7.95810087
   2.46311374  1.42399773  7.95810087
  -1.23737320  3.56047486  7.95810087
   1.22906405  3.55951522  7.95810087
   1.23571103  0.70960044  4.77486052
   3.70214828  0.70864080  4.77486052
   0.00166133  2.84511794  4.77486052
   2.46809858  2.84415829  4.77486052
   1.23571103  0.70960044 11.14134122
   3.70214828  0.70864080 11.14134122
   0.00166133  2.84511794 11.14134122
   2.46809858  2.84415829 11.14134122
 


--------------------------------------------------------------------------------------------------------


 k-point  1 :   0.0000 0.0000 0.0000  plane waves:   13743
 k-point  2 :   0.1667-0.0000 0.0000  plane waves:   13818
 k-point  3 :   0.3333-0.0000 0.0000  plane waves:   13764
 k-point  4 :   0.5000 0.0000 0.0000  plane waves:   13748
 k-point  5 :  -0.0000 0.1667 0.0000  plane waves:   13818
 k-point  6 :   0.1667 0.1667 0.0000  plane waves:   13799
 k-point  7 :   0.3333 0.1667 0.0000  plane waves:   13761
 k-point  8 :   0.5000 0.1667 0.0000  plane waves:   13763
 k-point  9 :  -0.3333 0.1667 0.0000  plane waves:   13799
 k-point 10 :  -0.1667 0.1667 0.0000  plane waves:   13836
 k-point 11 :   0.0000 0.3333 0.0000  plane waves:   13764
 k-point 12 :   0.1667 0.3333 0.0000  plane waves:   13761
 k-point 13 :   0.3333 0.3333 0.0000  plane waves:   13782
 k-point 14 :   0.5000 0.3333 0.0000  plane waves:   13761
 k-point 15 :  -0.3333 0.3333 0.0000  plane waves:   13762
 k-point 16 :  -0.1667 0.3333 0.0000  plane waves:   13799
 k-point 17 :  -0.0000 0.5000 0.0000  plane waves:   13748
 k-point 18 :   0.1667 0.5000 0.0000  plane waves:   13763
 k-point 19 :   0.3333 0.5000 0.0000  plane waves:   13761
 k-point 20 :   0.5000 0.5000 0.0000  plane waves:   13748
 k-point 21 :   0.0000 0.0000 0.2500  plane waves:   13819
 k-point 22 :   0.1667-0.0000 0.2500  plane waves:   13814
 k-point 23 :   0.3333-0.0000 0.2500  plane waves:   13788
 k-point 24 :   0.5000 0.0000 0.2500  plane waves:   13786
 k-point 25 :  -0.3333 0.0000 0.2500  plane waves:   13788
 k-point 26 :  -0.1667 0.0000 0.2500  plane waves:   13814
 k-point 27 :  -0.0000 0.1667 0.2500  plane waves:   13814
 k-point 28 :   0.1667 0.1667 0.2500  plane waves:   13784
 k-point 29 :   0.3333 0.1667 0.2500  plane waves:   13767
 k-point 30 :   0.5000 0.1667 0.2500  plane waves:   13768
 k-point 31 :  -0.3333 0.1667 0.2500  plane waves:   13782
 k-point 32 :  -0.1667 0.1667 0.2500  plane waves:   13817
 k-point 33 :   0.0000 0.3333 0.2500  plane waves:   13788
 k-point 34 :   0.1667 0.3333 0.2500  plane waves:   13767
 k-point 35 :   0.3333 0.3333 0.2500  plane waves:   13772
 k-point 36 :   0.5000 0.3333 0.2500  plane waves:   13766
 k-point 37 :  -0.3333 0.3333 0.2500  plane waves:   13793
 k-point 38 :  -0.1667 0.3333 0.2500  plane waves:   13782
 k-point 39 :  -0.0000 0.5000 0.2500  plane waves:   13786
 k-point 40 :   0.1667 0.5000 0.2500  plane waves:   13768
 k-point 41 :   0.3333 0.5000 0.2500  plane waves:   13766
 k-point 42 :   0.5000 0.5000 0.2500  plane waves:   13788
 k-point 43 :  -0.3333 0.5000 0.2500  plane waves:   13766
 k-point 44 :  -0.1667 0.5000 0.2500  plane waves:   13768
 k-point 45 :   0.0000-0.3333 0.2500  plane waves:   13788
 k-point 46 :   0.1667-0.3333 0.2500  plane waves:   13782
 k-point 47 :   0.3333-0.3333 0.2500  plane waves:   13793
 k-point 48 :   0.5000-0.3333 0.2500  plane waves:   13766
 k-point 49 :  -0.3333-0.3333 0.2500  plane waves:   13772
 k-point 50 :  -0.1667-0.3333 0.2500  plane waves:   13767
 k-point 51 :   0.0000-0.1667 0.2500  plane waves:   13814
 k-point 52 :   0.1667-0.1667 0.2500  plane waves:   13817
 k-point 53 :   0.3333-0.1667 0.2500  plane waves:   13782
 k-point 54 :   0.5000-0.1667 0.2500  plane waves:   13768
 k-point 55 :  -0.3333-0.1667 0.2500  plane waves:   13767
 k-point 56 :  -0.1667-0.1667 0.2500  plane waves:   13784
 k-point 57 :   0.0000 0.0000 0.5000  plane waves:   13782
 k-point 58 :   0.1667-0.0000 0.5000  plane waves:   13786
 k-point 59 :   0.3333-0.0000 0.5000  plane waves:   13766
 k-point 60 :   0.5000 0.0000 0.5000  plane waves:   13788
 k-point 61 :  -0.0000 0.1667 0.5000  plane waves:   13786
 k-point 62 :   0.1667 0.1667 0.5000  plane waves:   13780
 k-point 63 :   0.3333 0.1667 0.5000  plane waves:   13766
 k-point 64 :   0.5000 0.1667 0.5000  plane waves:   13762
 k-point 65 :  -0.3333 0.1667 0.5000  plane waves:   13778
 k-point 66 :  -0.1667 0.1667 0.5000  plane waves:   13784
 k-point 67 :   0.0000 0.3333 0.5000  plane waves:   13766
 k-point 68 :   0.1667 0.3333 0.5000  plane waves:   13766
 k-point 69 :   0.3333 0.3333 0.5000  plane waves:   13768
 k-point 70 :   0.5000 0.3333 0.5000  plane waves:   13760
 k-point 71 :  -0.3333 0.3333 0.5000  plane waves:   13760
 k-point 72 :  -0.1667 0.3333 0.5000  plane waves:   13778
 k-point 73 :  -0.0000 0.5000 0.5000  plane waves:   13788
 k-point 74 :   0.1667 0.5000 0.5000  plane waves:   13762
 k-point 75 :   0.3333 0.5000 0.5000  plane waves:   13760
 k-point 76 :   0.5000 0.5000 0.5000  plane waves:   13784

 maximum and minimum number of plane-waves per node :     13836    13743

 maximum number of plane-waves:     13836
 maximum index in each direction: 
   IXMAX=   11   IYMAX=   11   IZMAX=   29
   IXMIN=  -11   IYMIN=  -11   IZMIN=  -29

 NGX is ok and might be reduce to  46
 NGY is ok and might be reduce to  46
 NGZ is ok and might be reduce to 118

 serial   3D FFT for wavefunctions
 parallel 3D FFT for charge:
    minimum data exchange during FFTs selected (reduces bandwidth)


 total amount of memory used by VASP on root node   386886. kBytes
========================================================================

   base      :      30000. kBytes
   nonl-proj :      74382. kBytes
   fftplans  :      13581. kBytes
   grid      :      28889. kBytes
   one-center:         98. kBytes
   wavefun   :     239936. kBytes
 
     INWAV:  cpu time    0.00: real time    0.00
 Broyden mixing: mesh for mixing (old mesh)
   NGX = 23   NGY = 23   NGZ = 59
  (NGX  = 96   NGY  = 96   NGZ  =240)
  gives a total of  31211 points

 initial charge density was supplied:
 charge density of overlapping atoms calculated
 number of electron     128.0000000 magnetization 
 keeping initial charge density in first step


--------------------------------------------------------------------------------------------------------


 Maximum index for augmentation-charges         2007 (set IRDMAX)


--------------------------------------------------------------------------------------------------------


 First call to EWALD:  gamma=   0.275
 Maximum number of real-space cells 4x 4x 2
 Maximum number of reciprocal cells 2x 2x 5

 FEWALD executed in parallel
    FEWALD:  cpu time    0.00: real time    0.00


----------------------------------------- Iteration    1(   1)  ---------------------------------------


    POTLOK:  cpu time    1.36: real time    2.73
    SETDIJ:  cpu time    0.06: real time    0.11
     EDDAV:  cpu time  417.04: real time  834.51
 BZINTS: Fermi energy: 17.781432;128.000000 electrons
         Band energy: 225.242135;  BLOECHL correction: -0.109789
       DOS:  cpu time    0.10: real time    0.20
    --------------------------------------------
      LOOP:  cpu time  418.56: real time  837.57

 eigenvalue-minimisations  : 12768
 total energy-change (2. order) : 0.6853171E+03  (-0.8499027E+04)
 number of electron     128.0000000 magnetization 
 augmentation part      128.0000000 magnetization 

 Free energy of the ion-electron system (eV)
  ---------------------------------------------------
  alpha Z        PSCENC =       311.09060117
  Ewald energy   TEWEN  =     -3937.60943239
  -Hartree energ DENC   =     -1029.46296634
  -exchange      EXHF   =         0.00000000
  -V(xc)+E(xc)   XCENC  =       443.93052317
  PAW double counting   =      1210.60617908    -1247.42152856
  entropy T*S    EENTRO =         0.00000000
  eigenvalues    EBANDS =       225.24213473
  atomic energy  EATOM  =      4708.94155045
  ---------------------------------------------------
  free energy    TOTEN  =       685.31706131 eV

  energy without entropy =      685.31706131  energy(sigma->0) =      685.31706131


--------------------------------------------------------------------------------------------------------




----------------------------------------- Iteration    1(   2)  ---------------------------------------


     EDDAV:  cpu time  474.65: real time  949.84
 BZINTS: Fermi energy:  4.400752;128.000000 electrons
         Band energy:-716.905967;  BLOECHL correction:  0.000000
       DOS:  cpu time    0.03: real time    0.05
    --------------------------------------------
      LOOP:  cpu time  474.70: real time  949.92

 eigenvalue-minimisations  : 15864
 total energy-change (2. order) :-0.9421481E+03  (-0.9070432E+03)
 number of electron     128.0000000 magnetization 
 augmentation part      128.0000000 magnetization 

 Free energy of the ion-electron system (eV)
  ---------------------------------------------------
  alpha Z        PSCENC =       311.09060117
  Ewald energy   TEWEN  =     -3937.60943239
  -Hartree energ DENC   =     -1029.46296634
  -exchange      EXHF   =         0.00000000
  -V(xc)+E(xc)   XCENC  =       443.93052317
  PAW double counting   =      1210.60617908    -1247.42152856
  entropy T*S    EENTRO =         0.00000000
  eigenvalues    EBANDS =      -716.90596656
  atomic energy  EATOM  =      4708.94155045
  ---------------------------------------------------
  free energy    TOTEN  =      -256.83103998 eV

  energy without entropy =     -256.83103998  energy(sigma->0) =     -256.83103998


--------------------------------------------------------------------------------------------------------




----------------------------------------- Iteration    1(   3)  ---------------------------------------


     EDDAV:  cpu time  470.53: real time  941.54
 BZINTS: Fermi energy:  3.769157;128.000000 electrons
         Band energy:-771.953527;  BLOECHL correction: -0.000002
       DOS:  cpu time    0.06: real time    0.12
    --------------------------------------------
      LOOP:  cpu time  470.61: real time  941.72

 eigenvalue-minimisations  : 15492
 total energy-change (2. order) :-0.5504756E+02  (-0.5445393E+02)
 number of electron     128.0000000 magnetization 
 augmentation part      128.0000000 magnetization 

 Free energy of the ion-electron system (eV)
  ---------------------------------------------------
  alpha Z        PSCENC =       311.09060117
  Ewald energy   TEWEN  =     -3937.60943239
  -Hartree energ DENC   =     -1029.46296634
  -exchange      EXHF   =         0.00000000
  -V(xc)+E(xc)   XCENC  =       443.93052317
  PAW double counting   =      1210.60617908    -1247.42152856
  entropy T*S    EENTRO =         0.00000000
  eigenvalues    EBANDS =      -771.95352710
  atomic energy  EATOM  =      4708.94155045
  ---------------------------------------------------
  free energy    TOTEN  =      -311.87860052 eV

  energy without entropy =     -311.87860052  energy(sigma->0) =     -311.87860052


--------------------------------------------------------------------------------------------------------




----------------------------------------- Iteration    1(   4)  ---------------------------------------


     EDDAV:  cpu time  469.01: real time  938.54
 BZINTS: Fermi energy:  3.762845;128.000000 electrons
         Band energy:-773.012600;  BLOECHL correction:  0.000000
       DOS:  cpu time    0.04: real time    0.07
    --------------------------------------------
      LOOP:  cpu time  469.06: real time  938.67

 eigenvalue-minimisations  : 15948
 total energy-change (2. order) :-0.1059073E+01  (-0.1056841E+01)
 number of electron     128.0000000 magnetization 
 augmentation part      128.0000000 magnetization 

 Free energy of the ion-electron system (eV)
  ---------------------------------------------------
  alpha Z        PSCENC =       311.09060117
  Ewald energy   TEWEN  =     -3937.60943239
  -Hartree energ DENC   =     -1029.46296634
  -exchange      EXHF   =         0.00000000
  -V(xc)+E(xc)   XCENC  =       443.93052317
  PAW double counting   =      1210.60617908    -1247.42152856
  entropy T*S    EENTRO =         0.00000000
  eigenvalues    EBANDS =      -773.01260014
  atomic energy  EATOM  =      4708.94155045
  ---------------------------------------------------
  free energy    TOTEN  =      -312.93767356 eV

  energy without entropy =     -312.93767356  energy(sigma->0) =     -312.93767356


--------------------------------------------------------------------------------------------------------




----------------------------------------- Iteration    1(   5)  ---------------------------------------


     EDDAV:  cpu time  477.73: real time  955.95
 BZINTS: Fermi energy:  3.763789;128.000000 electrons
         Band energy:-773.042692;  BLOECHL correction: -0.000000
       DOS:  cpu time    0.04: real time    0.08
    CHARGE:  cpu time    6.31: real time   12.61
    MIXING:  cpu time    0.09: real time    0.18
    --------------------------------------------
      LOOP:  cpu time  484.19: real time  968.89

 eigenvalue-minimisations  : 16116
 total energy-change (2. order) :-0.3009137E-01  (-0.3008001E-01)
 number of electron     127.9999995 magnetization 
 augmentation part        3.3876615 magnetization 

 Broyden mixing:
  rms(total) = 0.22072E+01    rms(broyden)= 0.22072E+01
  rms(prec ) = 0.26415E+01
  weight for this iteration     100.00

 Free energy of the ion-electron system (eV)
  ---------------------------------------------------
  alpha Z        PSCENC =       311.09060117
  Ewald energy   TEWEN  =     -3937.60943239
  -Hartree energ DENC   =     -1029.46296634
  -exchange      EXHF   =         0.00000000
  -V(xc)+E(xc)   XCENC  =       443.93052317
  PAW double counting   =      1210.60617908    -1247.42152856
  entropy T*S    EENTRO =         0.00000000
  eigenvalues    EBANDS =      -773.04269151
  atomic energy  EATOM  =      4708.94155045
  ---------------------------------------------------
  free energy    TOTEN  =      -312.96776493 eV

  energy without entropy =     -312.96776493  energy(sigma->0) =     -312.96776493


--------------------------------------------------------------------------------------------------------




----------------------------------------- Iteration    1(   6)  ---------------------------------------


    POTLOK:  cpu time    1.29: real time    2.57
    SETDIJ:  cpu time    0.10: real time    0.22
     EDDAV:  cpu time  449.23: real time  898.95
 BZINTS: Fermi energy:  4.467909;128.000000 electrons
         Band energy:-639.779841;  BLOECHL correction: -0.000000
       DOS:  cpu time    0.04: real time    0.08
    CHARGE:  cpu time    6.20: real time   12.40
    MIXING:  cpu time    0.06: real time    0.12
    --------------------------------------------
      LOOP:  cpu time  456.93: real time  914.37

 eigenvalue-minimisations  : 14592
 total energy-change (2. order) : 0.1417085E+02  (-0.1461175E+01)
 number of electron     127.9999995 magnetization 
 augmentation part        3.2336955 magnetization 

 Broyden mixing:
  rms(total) = 0.11574E+01    rms(broyden)= 0.11574E+01
  rms(prec ) = 0.13737E+01
  weight for this iteration     100.00

 eigenvalues of (default mixing * dielectric matrix)
  average eigenvalue GAMMA=   2.0358
  2.0358

 Free energy of the ion-electron system (eV)
  ---------------------------------------------------
  alpha Z        PSCENC =       311.09060117
  Ewald energy   TEWEN  =     -3937.60943239
  -Hartree energ DENC   =     -1153.94470256
  -exchange      EXHF   =         0.00000000
  -V(xc)+E(xc)   XCENC  =       452.19204080
  PAW double counting   =      1641.07920357    -1680.76633684
  entropy T*S    EENTRO =         0.00000000
  eigenvalues    EBANDS =      -639.77984140
  atomic energy  EATOM  =      4708.94155045
  ---------------------------------------------------
  free energy    TOTEN  =      -298.79691720 eV

  energy without entropy =     -298.79691720  energy(sigma->0) =     -298.79691720


--------------------------------------------------------------------------------------------------------




----------------------------------------- Iteration    1(   7)  ---------------------------------------


    POTLOK:  cpu time    1.30: real time    2.59
    SETDIJ:  cpu time    0.07: real time    0.15
     EDDAV:  cpu time  440.66: real time  881.82
 BZINTS: Fermi energy:  5.152146;128.000000 electrons
         Band energy:-504.781142;  BLOECHL correction:  0.000000
       DOS:  cpu time    0.04: real time    0.08
    CHARGE:  cpu time    6.04: real time   12.08
    MIXING:  cpu time    0.07: real time    0.15
    --------------------------------------------
      LOOP:  cpu time  448.20: real time  896.91

 eigenvalue-minimisations  : 14556
 total energy-change (2. order) : 0.4442637E+01  (-0.1508641E+01)
 number of electron     127.9999994 magnetization 
 augmentation part        3.0708224 magnetization 

 Broyden mixing:
  rms(total) = 0.19010E+00    rms(broyden)= 0.19009E+00
  rms(prec ) = 0.20575E+00
  weight for this iteration     100.00

 eigenvalues of (default mixing * dielectric matrix)
  average eigenvalue GAMMA=   2.1401
  2.1401  2.1401

 Free energy of the ion-electron system (eV)
  ---------------------------------------------------
  alpha Z        PSCENC =       311.09060117
  Ewald energy   TEWEN  =     -3937.60943239
  -Hartree energ DENC   =     -1291.52667923
  -exchange      EXHF   =         0.00000000
  -V(xc)+E(xc)   XCENC  =       461.55023757
  PAW double counting   =      2178.93551672    -2220.95493162
  entropy T*S    EENTRO =         0.00000000
  eigenvalues    EBANDS =      -504.78114236
  atomic energy  EATOM  =      4708.94155045
  ---------------------------------------------------
  free energy    TOTEN  =      -294.35427970 eV

  energy without entropy =     -294.35427970  energy(sigma->0) =     -294.35427970


--------------------------------------------------------------------------------------------------------




----------------------------------------- Iteration    1(   8)  ---------------------------------------


    POTLOK:  cpu time    1.24: real time    2.48
    SETDIJ:  cpu time    0.06: real time    0.12
     EDDAV:  cpu time  444.43: real time  889.33
 BZINTS: Fermi energy:  5.120502;128.000000 electrons
         Band energy:-507.886483;  BLOECHL correction:  0.000000
       DOS:  cpu time    0.03: real time    0.05
    CHARGE:  cpu time    6.38: real time   12.78
    MIXING:  cpu time    0.12: real time    0.23
    --------------------------------------------
      LOOP:  cpu time  452.27: real time  905.01

 eigenvalue-minimisations  : 14640
 total energy-change (2. order) :-0.5443855E-01  (-0.4364882E-01)
 number of electron     127.9999994 magnetization 
 augmentation part        3.0653908 magnetization 

 Broyden mixing:
  rms(total) = 0.48866E-01    rms(broyden)= 0.48864E-01
  rms(prec ) = 0.79566E-01
  weight for this iteration     100.00

 eigenvalues of (default mixing * dielectric matrix)
  average eigenvalue GAMMA=   1.6703
  2.3864  2.0119  0.6127

 Free energy of the ion-electron system (eV)
  ---------------------------------------------------
  alpha Z        PSCENC =       311.09060117
  Ewald energy   TEWEN  =     -3937.60943239
  -Hartree energ DENC   =     -1289.05895788
  -exchange      EXHF   =         0.00000000
  -V(xc)+E(xc)   XCENC  =       461.42195988
  PAW double counting   =      2211.40673561    -2252.71469241
  entropy T*S    EENTRO =         0.00000000
  eigenvalues    EBANDS =      -507.88648267
  atomic energy  EATOM  =      4708.94155045
  ---------------------------------------------------
  free energy    TOTEN  =      -294.40871825 eV

  energy without entropy =     -294.40871825  energy(sigma->0) =     -294.40871825


--------------------------------------------------------------------------------------------------------




----------------------------------------- Iteration    1(   9)  ---------------------------------------


    POTLOK:  cpu time    1.28: real time    2.57
    SETDIJ:  cpu time    0.03: real time    0.05
     EDDAV:  cpu time  462.58: real time  925.68
 BZINTS: Fermi energy:  5.126663;128.000000 electrons
         Band energy:-506.947141;  BLOECHL correction: -0.000000
       DOS:  cpu time    0.05: real time    0.09
    CHARGE:  cpu time    6.34: real time   12.70
    MIXING:  cpu time    0.07: real time    0.13
    --------------------------------------------
      LOOP:  cpu time  470.37: real time  941.25

 eigenvalue-minimisations  : 15288
 total energy-change (2. order) : 0.2201381E-03  (-0.6946123E-02)
 number of electron     127.9999994 magnetization 
 augmentation part        3.0632229 magnetization 

 Broyden mixing:
  rms(total) = 0.24131E-01    rms(broyden)= 0.24131E-01
  rms(prec ) = 0.37640E-01
  weight for this iteration     100.00

 eigenvalues of (default mixing * dielectric matrix)
  average eigenvalue GAMMA=   1.3924
  2.4369  1.9940  0.5693  0.5693

 Free energy of the ion-electron system (eV)
  ---------------------------------------------------
  alpha Z        PSCENC =       311.09060117
  Ewald energy   TEWEN  =     -3937.60943239
  -Hartree energ DENC   =     -1290.15028083
  -exchange      EXHF   =         0.00000000
  -V(xc)+E(xc)   XCENC  =       461.50748696
  PAW double counting   =      2219.81551295    -2261.05679542
  entropy T*S    EENTRO =         0.00000000
  eigenvalues    EBANDS =      -506.94714100
  atomic energy  EATOM  =      4708.94155045
  ---------------------------------------------------
  free energy    TOTEN  =      -294.40849811 eV

  energy without entropy =     -294.40849811  energy(sigma->0) =     -294.40849811


--------------------------------------------------------------------------------------------------------




----------------------------------------- Iteration    1(  10)  ---------------------------------------


    POTLOK:  cpu time    1.32: real time    2.63
    SETDIJ:  cpu time    0.13: real time    0.24
     EDDAV:  cpu time  452.42: real time  905.32
 BZINTS: Fermi energy:  5.126653;128.000000 electrons
         Band energy:-506.400867;  BLOECHL correction:  0.000000
       DOS:  cpu time    0.03: real time    0.07
    CHARGE:  cpu time    6.22: real time   12.44
    MIXING:  cpu time    0.10: real time    0.21
    --------------------------------------------
      LOOP:  cpu time  460.23: real time  920.94

 eigenvalue-minimisations  : 14760
 total energy-change (2. order) : 0.9972751E-03  (-0.9440135E-03)
 number of electron     127.9999994 magnetization 
 augmentation part        3.0622754 magnetization 

 Broyden mixing:
  rms(total) = 0.14523E-01    rms(broyden)= 0.14523E-01
  rms(prec ) = 0.22093E-01
  weight for this iteration     100.00

 eigenvalues of (default mixing * dielectric matrix)
  average eigenvalue GAMMA=   1.4905
  2.4609  1.9872  1.4940  1.0389  0.4717

 Free energy of the ion-electron system (eV)
  ---------------------------------------------------
  alpha Z        PSCENC =       311.09060117
  Ewald energy   TEWEN  =     -3937.60943239
  -Hartree energ DENC   =     -1290.75034236
  -exchange      EXHF   =         0.00000000
  -V(xc)+E(xc)   XCENC  =       461.55273796
  PAW double counting   =      2222.40113826    -2263.63288721
  entropy T*S    EENTRO =         0.00000000
  eigenvalues    EBANDS =      -506.40086671
  atomic energy  EATOM  =      4708.94155045
  ---------------------------------------------------
  free energy    TOTEN  =      -294.40750084 eV

  energy without entropy =     -294.40750084  energy(sigma->0) =     -294.40750084


--------------------------------------------------------------------------------------------------------




----------------------------------------- Iteration    1(  11)  ---------------------------------------


    POTLOK:  cpu time    1.39: real time    2.78
    SETDIJ:  cpu time    0.08: real time    0.18
     EDDAV:  cpu time  590.51: real time 1181.62
 BZINTS: Fermi energy:  5.133735;128.000000 electrons
         Band energy:-505.559581;  BLOECHL correction:  0.000000
       DOS:  cpu time    0.04: real time    0.07
    CHARGE:  cpu time    6.61: real time   13.23
    MIXING:  cpu time    0.14: real time    0.26
    --------------------------------------------
      LOOP:  cpu time  598.77: real time 1198.15

 eigenvalue-minimisations  : 22068
 total energy-change (2. order) :-0.2010666E-02  (-0.3649181E-02)
 number of electron     127.9999994 magnetization 
 augmentation part        3.0616117 magnetization 

 Broyden mixing:
  rms(total) = 0.15556E-01    rms(broyden)= 0.15555E-01
  rms(prec ) = 0.25428E-01
  weight for this iteration     100.00

 eigenvalues of (default mixing * dielectric matrix)
  average eigenvalue GAMMA=   1.3936
  2.6361  1.8813  1.8813  0.7530  0.7530  0.4570

 Free energy of the ion-electron system (eV)
  ---------------------------------------------------
  alpha Z        PSCENC =       311.09060117
  Ewald energy   TEWEN  =     -3937.60943239
  -Hartree energ DENC   =     -1291.66205107
  -exchange      EXHF   =         0.00000000
  -V(xc)+E(xc)   XCENC  =       461.62207307
  PAW double counting   =      2223.94612139    -2265.17879329
  entropy T*S    EENTRO =         0.00000000
  eigenvalues    EBANDS =      -505.55958083
  atomic energy  EATOM  =      4708.94155045
  ---------------------------------------------------
  free energy    TOTEN  =      -294.40951151 eV

  energy without entropy =     -294.40951151  energy(sigma->0) =     -294.40951151


--------------------------------------------------------------------------------------------------------




----------------------------------------- Iteration    1(  12)  ---------------------------------------


    POTLOK:  cpu time    1.31: real time    2.62
    SETDIJ:  cpu time    0.04: real time    0.07
     EDDAV:  cpu time  461.33: real time  923.13
 BZINTS: Fermi energy:  5.129964;128.000000 electrons
         Band energy:-505.301498;  BLOECHL correction:  0.000000
       DOS:  cpu time    0.02: real time    0.05
    CHARGE:  cpu time    6.54: real time   13.07
    MIXING:  cpu time    0.18: real time    0.36
    --------------------------------------------
      LOOP:  cpu time  469.42: real time  939.32

 eigenvalue-minimisations  : 15516
 total energy-change (2. order) : 0.1186949E-02  (-0.2091262E-03)
 number of electron     127.9999994 magnetization 
 augmentation part        3.0612633 magnetization 

 Broyden mixing:
  rms(total) = 0.11929E-01    rms(broyden)= 0.11929E-01
  rms(prec ) = 0.19374E-01
  weight for this iteration     100.00

 eigenvalues of (default mixing * dielectric matrix)
  average eigenvalue GAMMA=   1.3780
  2.6590  2.0138  2.0138  0.8428  0.8428  0.8120  0.4620

 Free energy of the ion-electron system (eV)
  ---------------------------------------------------
  alpha Z        PSCENC =       311.09060117
  Ewald energy   TEWEN  =     -3937.60943239
  -Hartree energ DENC   =     -1291.94123351
  -exchange      EXHF   =         0.00000000
  -V(xc)+E(xc)   XCENC  =       461.64272446
  PAW double counting   =      2225.04504354    -2266.27608055
  entropy T*S    EENTRO =         0.00000000
  eigenvalues    EBANDS =      -505.30149771
  atomic energy  EATOM  =      4708.94155045
  ---------------------------------------------------
  free energy    TOTEN  =      -294.40832456 eV

  energy without entropy =     -294.40832456  energy(sigma->0) =     -294.40832456


--------------------------------------------------------------------------------------------------------




----------------------------------------- Iteration    1(  13)  ---------------------------------------


    POTLOK:  cpu time    1.20: real time    2.40
    SETDIJ:  cpu time    0.05: real time    0.10
     EDDAV:  cpu time  486.39: real time  973.35
 BZINTS: Fermi energy:  5.132343;128.000000 electrons
         Band energy:-505.289584;  BLOECHL correction:  0.000000
       DOS:  cpu time    0.05: real time    0.09
    CHARGE:  cpu time    5.98: real time   11.98
    MIXING:  cpu time    0.17: real time    0.35
    --------------------------------------------
      LOOP:  cpu time  493.88: real time  988.31

 eigenvalue-minimisations  : 17028
 total energy-change (2. order) : 0.4527576E-03  (-0.1637625E-03)
 number of electron     127.9999994 magnetization 
 augmentation part        3.0612251 magnetization 

 Broyden mixing:
  rms(total) = 0.64063E-02    rms(broyden)= 0.64061E-02
  rms(prec ) = 0.11238E-01
  weight for this iteration     100.00

 eigenvalues of (default mixing * dielectric matrix)
  average eigenvalue GAMMA=   1.3310
  2.7569  2.4103  1.9286  0.9153  0.9443  0.9443  0.4646  0.2834

 Free energy of the ion-electron system (eV)
  ---------------------------------------------------
  alpha Z        PSCENC =       311.09060117
  Ewald energy   TEWEN  =     -3937.60943239
  -Hartree energ DENC   =     -1291.95622187
  -exchange      EXHF   =         0.00000000
  -V(xc)+E(xc)   XCENC  =       461.64437102
  PAW double counting   =      2224.79437401    -2266.02353004
  entropy T*S    EENTRO =         0.00000000
  eigenvalues    EBANDS =      -505.28958414
  atomic energy  EATOM  =      4708.94155045
  ---------------------------------------------------
  free energy    TOTEN  =      -294.40787180 eV

  energy without entropy =     -294.40787180  energy(sigma->0) =     -294.40787180


--------------------------------------------------------------------------------------------------------




----------------------------------------- Iteration    1(  14)  ---------------------------------------


    POTLOK:  cpu time    1.24: real time    2.47
    SETDIJ:  cpu time    0.03: real time    0.06
     EDDAV:  cpu time  567.24: real time 1135.09
 BZINTS: Fermi energy:  5.136403;128.000000 electrons
         Band energy:-505.286928;  BLOECHL correction:  0.000000
       DOS:  cpu time    0.04: real time    0.07
    CHARGE:  cpu time    6.37: real time   12.74
    MIXING:  cpu time    0.10: real time    0.20
    --------------------------------------------
      LOOP:  cpu time  575.03: real time 1150.68

 eigenvalue-minimisations  : 21372
 total energy-change (2. order) :-0.5363334E-03  (-0.8806623E-03)
 number of electron     127.9999994 magnetization 
 augmentation part        3.0612913 magnetization 

 Broyden mixing:
  rms(total) = 0.10219E-01    rms(broyden)= 0.10218E-01
  rms(prec ) = 0.17631E-01
  weight for this iteration     100.00

 eigenvalues of (default mixing * dielectric matrix)
  average eigenvalue GAMMA=   1.2715
  2.7811  2.4808  1.9199  0.8371  0.8371  1.0061  0.8645  0.4617  0.2550

 Free energy of the ion-electron system (eV)
  ---------------------------------------------------
  alpha Z        PSCENC =       311.09060117
  Ewald energy   TEWEN  =     -3937.60943239
  -Hartree energ DENC   =     -1291.96513468
  -exchange      EXHF   =         0.00000000
  -V(xc)+E(xc)   XCENC  =       461.64627988
  PAW double counting   =      2224.09707281    -2265.32241721
  entropy T*S    EENTRO =         0.00000000
  eigenvalues    EBANDS =      -505.28692816
  atomic energy  EATOM  =      4708.94155045
  ---------------------------------------------------
  free energy    TOTEN  =      -294.40840813 eV

  energy without entropy =     -294.40840813  energy(sigma->0) =     -294.40840813


--------------------------------------------------------------------------------------------------------




----------------------------------------- Iteration    1(  15)  ---------------------------------------


    POTLOK:  cpu time    1.17: real time    2.32
    SETDIJ:  cpu time    0.10: real time    0.21
     EDDAV:  cpu time  510.55: real time 1021.65
 BZINTS: Fermi energy:  5.134876;128.000000 electrons
         Band energy:-505.256273;  BLOECHL correction:  0.000000
       DOS:  cpu time    0.04: real time    0.07
    CHARGE:  cpu time    6.58: real time   13.17
    MIXING:  cpu time    0.21: real time    0.41
    --------------------------------------------
      LOOP:  cpu time  518.65: real time 1037.88

 eigenvalue-minimisations  : 17532
 total energy-change (2. order) : 0.5135823E-03  (-0.2033358E-03)
 number of electron     127.9999994 magnetization 
 augmentation part        3.0612707 magnetization 

 Broyden mixing:
  rms(total) = 0.14825E-02    rms(broyden)= 0.14819E-02
  rms(prec ) = 0.23200E-02
  weight for this iteration     100.00

 eigenvalues of (default mixing * dielectric matrix)
  average eigenvalue GAMMA=   1.1999
  2.8556  2.4940  1.9096  0.8037  0.8037  1.0241  0.8041  0.5842  0.4549  0.2647

 Free energy of the ion-electron system (eV)
  ---------------------------------------------------
  alpha Z        PSCENC =       311.09060117
  Ewald energy   TEWEN  =     -3937.60943239
  -Hartree energ DENC   =     -1291.99753483
  -exchange      EXHF   =         0.00000000
  -V(xc)+E(xc)   XCENC  =       461.64879792
  PAW double counting   =      2224.02101235    -2265.24661653
  entropy T*S    EENTRO =         0.00000000
  eigenvalues    EBANDS =      -505.25627268
  atomic energy  EATOM  =      4708.94155045
  ---------------------------------------------------
  free energy    TOTEN  =      -294.40789455 eV

  energy without entropy =     -294.40789455  energy(sigma->0) =     -294.40789455


--------------------------------------------------------------------------------------------------------




----------------------------------------- Iteration    1(  16)  ---------------------------------------


    POTLOK:  cpu time    1.27: real time    2.52
    SETDIJ:  cpu time    0.05: real time    0.11
     EDDAV:  cpu time  447.94: real time  896.40
 BZINTS: Fermi energy:  5.134703;128.000000 electrons
         Band energy:-505.251284;  BLOECHL correction:  0.000000
       DOS:  cpu time    0.05: real time    0.09
    CHARGE:  cpu time    6.42: real time   12.84
    MIXING:  cpu time    0.22: real time    0.44
    --------------------------------------------
      LOOP:  cpu time  455.96: real time  912.44

 eigenvalue-minimisations  : 14460
 total energy-change (2. order) :-0.1774110E-04  (-0.1451549E-04)
 number of electron     127.9999994 magnetization 
 augmentation part        3.0612442 magnetization 

 Broyden mixing:
  rms(total) = 0.23534E-02    rms(broyden)= 0.23534E-02
  rms(prec ) = 0.40375E-02
  weight for this iteration     100.00

 eigenvalues of (default mixing * dielectric matrix)
  average eigenvalue GAMMA=   1.1605
  2.8507  2.5048  1.8972  0.8033  0.8033  1.1014  0.8242  0.8242  0.4662  0.4254
  0.2645

 Free energy of the ion-electron system (eV)
  ---------------------------------------------------
  alpha Z        PSCENC =       311.09060117
  Ewald energy   TEWEN  =     -3937.60943239
  -Hartree energ DENC   =     -1292.00337079
  -exchange      EXHF   =         0.00000000
  -V(xc)+E(xc)   XCENC  =       461.64921599
  PAW double counting   =      2223.98974869    -2265.21494145
  entropy T*S    EENTRO =         0.00000000
  eigenvalues    EBANDS =      -505.25128396
  atomic energy  EATOM  =      4708.94155045
  ---------------------------------------------------
  free energy    TOTEN  =      -294.40791229 eV

  energy without entropy =     -294.40791229  energy(sigma->0) =     -294.40791229


--------------------------------------------------------------------------------------------------------




----------------------------------------- Iteration    1(  17)  ---------------------------------------


    POTLOK:  cpu time    1.29: real time    2.56
    SETDIJ:  cpu time    0.09: real time    0.20
     EDDAV:  cpu time  489.58: real time  979.66
 BZINTS: Fermi energy:  5.134741;128.000000 electrons
         Band energy:-505.249189;  BLOECHL correction:  0.000000
       DOS:  cpu time    0.04: real time    0.08
    CHARGE:  cpu time    6.70: real time   13.41
    MIXING:  cpu time    0.19: real time    0.40
    --------------------------------------------
      LOOP:  cpu time  497.92: real time  996.37

 eigenvalue-minimisations  : 16164
 total energy-change (2. order) : 0.7184032E-05  (-0.3463315E-05)
 number of electron     127.9999994 magnetization 
 augmentation part        3.0612418 magnetization 

 Broyden mixing:
  rms(total) = 0.11493E-02    rms(broyden)= 0.11492E-02
  rms(prec ) = 0.17633E-02
  weight for this iteration     100.00

 eigenvalues of (default mixing * dielectric matrix)
  average eigenvalue GAMMA=   1.1741
  2.8720  2.4793  1.9225  0.8280  0.8280  1.0920  1.0920  1.0537  0.8555  0.4610
  0.2654  0.3397

 Free energy of the ion-electron system (eV)
  ---------------------------------------------------
  alpha Z        PSCENC =       311.09060117
  Ewald energy   TEWEN  =     -3937.60943239
  -Hartree energ DENC   =     -1292.00559959
  -exchange      EXHF   =         0.00000000
  -V(xc)+E(xc)   XCENC  =       461.64927472
  PAW double counting   =      2223.96910374    -2265.19421426
  entropy T*S    EENTRO =         0.00000000
  eigenvalues    EBANDS =      -505.24918894
  atomic energy  EATOM  =      4708.94155045
  ---------------------------------------------------
  free energy    TOTEN  =      -294.40790511 eV

  energy without entropy =     -294.40790511  energy(sigma->0) =     -294.40790511


--------------------------------------------------------------------------------------------------------




----------------------------------------- Iteration    1(  18)  ---------------------------------------


    POTLOK:  cpu time    1.39: real time    2.79
    SETDIJ:  cpu time    0.10: real time    0.19
     EDDAV:  cpu time  658.77: real time 1075.75
 BZINTS: Fermi energy:  5.132109;128.000000 electrons
         Band energy:-505.230729;  BLOECHL correction:  0.000000
       DOS:  cpu time    0.05: real time    0.09
    CHARGE:  cpu time    5.83: real time   11.36
    MIXING:  cpu time    0.11: real time    0.22
    --------------------------------------------
      LOOP:  cpu time  666.27: real time 1090.42

 eigenvalue-minimisations  : 23112
 total energy-change (2. order) :-0.2932700E-04  (-0.4318422E-04)
 number of electron     127.9999994 magnetization 
 augmentation part        3.0612293 magnetization 

 Broyden mixing:
  rms(total) = 0.39404E-02    rms(broyden)= 0.39402E-02
  rms(prec ) = 0.69947E-02
  weight for this iteration     100.00

 eigenvalues of (default mixing * dielectric matrix)
  average eigenvalue GAMMA=   1.1592
  2.8928  2.4963  1.9082  1.3426  0.8311  0.8311  1.0622  1.0622  0.9069  0.4546
  0.5088  0.5088  0.2647

 Free energy of the ion-electron system (eV)
  ---------------------------------------------------
  alpha Z        PSCENC =       311.09060117
  Ewald energy   TEWEN  =     -3937.60943239
  -Hartree energ DENC   =     -1292.02497900
  -exchange      EXHF   =         0.00000000
  -V(xc)+E(xc)   XCENC  =       461.65050565
  PAW double counting   =      2223.98448309    -2265.20993393
  entropy T*S    EENTRO =         0.00000000
  eigenvalues    EBANDS =      -505.23072947
  atomic energy  EATOM  =      4708.94155045
  ---------------------------------------------------
  free energy    TOTEN  =      -294.40793443 eV

  energy without entropy =     -294.40793443  energy(sigma->0) =     -294.40793443


--------------------------------------------------------------------------------------------------------




----------------------------------------- Iteration    1(  19)  ---------------------------------------


    POTLOK:  cpu time    1.33: real time    2.14
    SETDIJ:  cpu time    0.10: real time    0.21
     EDDAV:  cpu time  631.46: real time  783.10
 BZINTS: Fermi energy:  5.134707;128.000000 electrons
         Band energy:-505.233432;  BLOECHL correction:  0.000000
       DOS:  cpu time    0.08: real time    0.08
    CHARGE:  cpu time   10.95: real time   10.96
    MIXING:  cpu time    0.06: real time    0.06
    --------------------------------------------
      LOOP:  cpu time  643.98: real time  796.56

 eigenvalue-minimisations  : 22332
 total energy-change (2. order) : 0.2513234E-04  (-0.5545175E-04)
 number of electron     127.9999994 magnetization 
 augmentation part        3.0612316 magnetization 

 Broyden mixing:
  rms(total) = 0.19299E-02    rms(broyden)= 0.19295E-02
  rms(prec ) = 0.33820E-02
  weight for this iteration     100.00

 eigenvalues of (default mixing * dielectric matrix)
  average eigenvalue GAMMA=   1.1782
  2.9377  2.5372  2.3397  1.9279  0.8134  0.8134  1.0303  1.0303  0.8549  0.5724
  0.4526  0.4599  0.4599  0.2646

 Free energy of the ion-electron system (eV)
  ---------------------------------------------------
  alpha Z        PSCENC =       311.09060117
  Ewald energy   TEWEN  =     -3937.60943239
  -Hartree energ DENC   =     -1292.02218110
  -exchange      EXHF   =         0.00000000
  -V(xc)+E(xc)   XCENC  =       461.65025778
  PAW double counting   =      2223.96501623    -2265.19028932
  entropy T*S    EENTRO =         0.00000000
  eigenvalues    EBANDS =      -505.23343211
  atomic energy  EATOM  =      4708.94155045
  ---------------------------------------------------
  free energy    TOTEN  =      -294.40790930 eV

  energy without entropy =     -294.40790930  energy(sigma->0) =     -294.40790930


--------------------------------------------------------------------------------------------------------




----------------------------------------- Iteration    1(  20)  ---------------------------------------


    POTLOK:  cpu time    1.91: real time    1.91
    SETDIJ:  cpu time    0.16: real time    0.16
     EDDAV:  cpu time  511.28: real time  511.53
 BZINTS: Fermi energy:  5.134878;128.000000 electrons
         Band energy:-505.227314;  BLOECHL correction:  0.000000
       DOS:  cpu time    0.03: real time    0.03
    CHARGE:  cpu time   11.03: real time   11.04
    MIXING:  cpu time    0.15: real time    0.15
    --------------------------------------------
      LOOP:  cpu time  524.56: real time  524.82

 eigenvalue-minimisations  : 17424
 total energy-change (2. order) : 0.6130165E-05  (-0.8329919E-05)
 number of electron     127.9999994 magnetization 
 augmentation part        3.0612284 magnetization 

 Broyden mixing:
  rms(total) = 0.41072E-03    rms(broyden)= 0.41059E-03
  rms(prec ) = 0.80863E-03
  weight for this iteration     100.00

 eigenvalues of (default mixing * dielectric matrix)
  average eigenvalue GAMMA=   1.1321
  3.0032  2.6059  2.4565  1.9286  0.8134  0.8134  0.9320  0.9250  0.9250  0.4556
  0.4556  0.5479  0.4563  0.2646  0.3985

 Free energy of the ion-electron system (eV)
  ---------------------------------------------------
  alpha Z        PSCENC =       311.09060117
  Ewald energy   TEWEN  =     -3937.60943239
  -Hartree energ DENC   =     -1292.02857722
  -exchange      EXHF   =         0.00000000
  -V(xc)+E(xc)   XCENC  =       461.65058914
  PAW double counting   =      2223.95274040    -2265.17806090
  entropy T*S    EENTRO =         0.00000000
  eigenvalues    EBANDS =      -505.22731383
  atomic energy  EATOM  =      4708.94155045
  ---------------------------------------------------
  free energy    TOTEN  =      -294.40790317 eV

  energy without entropy =     -294.40790317  energy(sigma->0) =     -294.40790317


--------------------------------------------------------------------------------------------------------




----------------------------------------- Iteration    1(  21)  ---------------------------------------


    POTLOK:  cpu time    1.72: real time    1.72
    SETDIJ:  cpu time    0.05: real time    0.05
     EDDAV:  cpu time  446.90: real time  447.12
 BZINTS: Fermi energy:  5.134840;128.000000 electrons
         Band energy:-505.226477;  BLOECHL correction:  0.000000
       DOS:  cpu time    0.05: real time    0.05
    CHARGE:  cpu time   11.01: real time   11.02
    MIXING:  cpu time    0.14: real time    0.14
    --------------------------------------------
      LOOP:  cpu time  459.87: real time  460.10

 eigenvalue-minimisations  : 14592
 total energy-change (2. order) : 0.2111083E-06  (-0.4908654E-06)
 number of electron     127.9999994 magnetization 
 augmentation part        3.0612231 magnetization 

 Broyden mixing:
  rms(total) = 0.91311E-04    rms(broyden)= 0.91303E-04
  rms(prec ) = 0.14472E-03
  weight for this iteration     100.00

 eigenvalues of (default mixing * dielectric matrix)
  average eigenvalue GAMMA=   1.1113
  3.0361  2.5699  2.4888  1.9214  0.8110  0.8110  0.9893  0.9123  0.9123  0.5947
  0.5947  0.4583  0.4583  0.5098  0.4478  0.2646

 Free energy of the ion-electron system (eV)
  ---------------------------------------------------
  alpha Z        PSCENC =       311.09060117
  Ewald energy   TEWEN  =     -3937.60943239
  -Hartree energ DENC   =     -1292.02947760
  -exchange      EXHF   =         0.00000000
  -V(xc)+E(xc)   XCENC  =       461.65062865
[...]
     79      13.0055      0.00000
     80      13.0088      0.00000
     81      13.1979      0.00000
     82      13.2024      0.00000
     83      13.4274      0.00000
     84      13.4290      0.00000

 k-point    75 :       0.3333    0.5000    0.5000
  band No.  band energies     occupation 
      1     -13.3337      2.00000
      2     -13.3333      2.00000
      3     -13.0399      2.00000
      4     -13.0394      2.00000
      5     -12.3599      2.00000
      6     -12.3596      2.00000
      7     -12.0833      2.00000
      8     -12.0829      2.00000
      9     -11.3976      2.00000
     10     -11.3972      2.00000
     11     -11.1382      2.00000
     12     -11.1378      2.00000
     13      -8.7098      2.00000
     14      -8.7092      2.00000
     15      -8.5156      2.00000
     16      -8.5149      2.00000
     17      -6.8254      2.00000
     18      -6.8226      2.00000
     19      -6.6938      2.00000
     20      -6.6911      2.00000
     21      -4.5139      2.00000
     22      -4.5115      2.00000
     23      -4.4098      2.00000
     24      -4.4072      2.00000
     25      -4.3530      2.00000
     26      -4.3515      2.00000
     27      -4.2389      2.00000
     28      -4.2373      2.00000
     29      -3.3756      2.00000
     30      -3.3735      2.00000
     31      -3.2534      2.00000
     32      -3.2512      2.00000
     33      -2.3087      2.00000
     34      -2.3067      2.00000
     35      -2.2284      2.00000
     36      -2.2266      2.00000
     37      -1.8962      2.00000
     38      -1.8948      2.00000
     39      -1.2772      2.00000
     40      -1.2732      2.00000
     41      -1.1991      2.00000
     42      -1.1946      2.00000
     43      -0.7601      2.00000
     44      -0.7577      2.00000
     45      -0.7451      2.00000
     46      -0.7437      2.00000
     47      -0.6909      2.00000
     48      -0.6883      2.00000
     49      -0.2064      2.00000
     50      -0.2047      2.00000
     51       0.1314      2.00000
     52       0.1365      2.00000
     53       0.1835      2.00000
     54       0.1878      2.00000
     55       0.3736      2.00000
     56       0.3752      2.00000
     57       0.8524      2.00000
     58       0.8540      2.00000
     59       1.8684      2.00000
     60       1.8701      2.00000
     61       3.3084      2.00000
     62       3.3109      2.00000
     63       4.2523      2.00000
     64       4.2555      2.00000
     65       6.2252      0.00000
     66       6.2289      0.00000
     67       6.7311      0.00000
     68       6.7350      0.00000
     69       9.2752      0.00000
     70       9.2773      0.00000
     71       9.8663      0.00000
     72       9.8690      0.00000
     73      10.7401      0.00000
     74      10.7429      0.00000
     75      11.4118      0.00000
     76      11.4137      0.00000
     77      12.1264      0.00000
     78      12.1289      0.00000
     79      13.0028      0.00000
     80      13.0063      0.00000
     81      13.1979      0.00000
     82      13.2024      0.00000
     83      13.4269      0.00000
     84      13.4290      0.00000

 k-point    76 :       0.5000    0.5000    0.5000
  band No.  band energies     occupation 
      1     -13.0104      2.00000
      2     -13.0075      2.00000
      3     -13.0075      2.00000
      4     -13.0045      2.00000
      5     -12.7223      2.00000
      6     -12.7194      2.00000
      7     -12.7194      2.00000
      8     -12.7162      2.00000
      9     -10.1563      2.00000
     10     -10.1545      2.00000
     11     -10.1545      2.00000
     12     -10.1527      2.00000
     13      -9.9207      2.00000
     14      -9.9189      2.00000
     15      -9.9189      2.00000
     16      -9.9170      2.00000
     17      -5.3823      2.00000
     18      -5.3778      2.00000
     19      -5.3774      2.00000
     20      -5.3774      2.00000
     21      -5.2991      2.00000
     22      -5.2950      2.00000
     23      -5.2946      2.00000
     24      -5.2945      2.00000
     25      -3.7813      2.00000
     26      -3.7813      2.00000
     27      -3.7799      2.00000
     28      -3.7772      2.00000
     29      -3.7203      2.00000
     30      -3.7203      2.00000
     31      -3.7188      2.00000
     32      -3.7156      2.00000
     33      -2.2896      2.00000
     34      -2.2893      2.00000
     35      -2.2892      2.00000
     36      -2.2835      2.00000
     37      -2.1791      2.00000
     38      -2.1786      2.00000
     39      -2.1786      2.00000
     40      -2.1721      2.00000
     41      -1.5113      2.00000
     42      -1.5083      2.00000
     43      -1.5081      2.00000
     44      -1.5058      2.00000
     45       0.1316      2.00000
     46       0.1414      2.00000
     47       0.1414      2.00000
     48       0.1430      2.00000
     49       0.1484      2.00000
     50       0.1519      2.00000
     51       0.1521      2.00000
     52       0.1547      2.00000
     53       0.1900      2.00000
     54       0.1974      2.00000
     55       0.1974      2.00000
     56       0.1991      2.00000
     57       1.7841      2.00000
     58       1.7855      2.00000
     59       1.7856      2.00000
     60       1.7891      2.00000
     61       3.1084      2.00000
     62       3.1096      2.00000
     63       3.1099      2.00000
     64       3.1143      2.00000
     65       7.6691      0.00000
     66       7.6739      0.00000
     67       7.6742      0.00000
     68       7.6753      0.00000
     69       8.2347      0.00000
     70       8.2405      0.00000
     71       8.2409      0.00000
     72       8.2419      0.00000
     73      11.9891      0.00000
     74      11.9966      0.00000
     75      11.9986      0.00000
     76      12.0065      0.00000
     77      12.5312      0.00000
     78      12.5407      0.00000
     79      12.5429      0.00000
     80      12.5510      0.00000
     81      12.6718      0.00000
     82      12.6754      0.00000
     83      12.6762      0.00000
     84      12.6838      0.00000


--------------------------------------------------------------------------------------------------------


 soft charge-density along one line, spin component           1
         0         1         2         3         4         5         6         7         8         9
 total charge-density along one line
 
 pseudopotential strength for first ion, spin component:           1
  9.743   0.004  -0.000   0.000  -0.000   0.000  -0.000   0.000
  0.004  -0.002   0.000  -0.000  -0.000   0.000  -0.000   0.000
 -0.000   0.000  -3.919  -0.000  -0.000  -0.015  -0.000  -0.000
  0.000  -0.000  -0.000  -3.913   0.000  -0.000  -0.011   0.000
 -0.000  -0.000  -0.000   0.000  -3.919  -0.000   0.000  -0.015
  0.000   0.000  -0.015  -0.000  -0.000  -0.763  -0.000  -0.000
 -0.000  -0.000  -0.000  -0.011   0.000  -0.000  -0.763   0.000
  0.000   0.000  -0.000   0.000  -0.015  -0.000   0.000  -0.763
 total augmentation occupancy for first ion, spin component:           1
  1.470  -1.120   0.000  -0.000  -0.003   0.000   0.001  -0.001
 -1.120   1.058  -0.000  -0.006   0.003  -0.000  -0.002   0.001
  0.000  -0.000   1.222  -0.000   0.003   0.228   0.000   0.001
 -0.000  -0.006  -0.000   0.924  -0.000   0.000   0.104  -0.000
 -0.003   0.003   0.003  -0.000   1.222   0.001  -0.000   0.228
  0.000  -0.000   0.228   0.000   0.001   0.048   0.000   0.000
  0.001  -0.002   0.000   0.104  -0.000   0.000   0.013  -0.000
 -0.001   0.001   0.001  -0.000   0.228   0.000  -0.000   0.048


------------------------ aborting loop because EDIFF is reached ----------------------------------------


    CHARGE:  cpu time   10.93: real time   10.94
    FORLOC:  cpu time    0.15: real time    0.15
    FORNL :  cpu time   63.44: real time   63.47
    STRESS:  cpu time  114.89: real time  114.95
    FORHAR:  cpu time    0.47: real time    0.47
    MIXING:  cpu time    0.10: real time    0.10
    OFIELD:  cpu time    0.00: real time    0.00

 ---------------------------------------------------------------------------------------------

         DFTD3 V3.0 Rev 1        
 IVDW         = 12
 DF pbe       
 parameters
 VDW_S6       =    1.0000
 VDW_S8       =    0.7875
 VDW_A1       =    0.4289
 VDW_A2       =    4.4407
 k1-k3        =   16.0000    1.3333   -4.0000
 VDW_RADIUS   =   50.2022 A
 VDW_CNRADIUS =   21.1671 A
 Edisp (eV)   -5.32117

 E6    (eV) :    -3.8028
 E8    (eV) :    -1.5184
 % E8        : 28.53
    FORVDW:  cpu time    0.20: real time    0.21

  FORCE on cell =-STRESS in cart. coord.  units (eV):
  Direction    XX          YY          ZZ          XY          YZ          ZX
  --------------------------------------------------------------------------------------
  Alpha Z   311.09060   311.09060   311.09060
  Ewald     366.75882   366.26998 -4670.65627     0.36550     0.00061    -0.00967
  Hartree  1111.96648  1111.96268  -931.90112     0.10495     0.00025    -0.00233
  E(xc)    -468.13050  -468.13749  -484.50716    -0.00303     0.00004    -0.00011
  Local   -3120.78083 -3120.38246  3692.93510    -0.40161    -0.00014     0.00840
  n-local  -111.59442  -111.70643  -102.79543    -0.09132     0.00065    -0.00149
  augment   -12.37091   -12.37002   -11.33857    -0.00050    -0.00001     0.00005
  Kinetic  1922.83907  1923.60648  2207.35620     0.53438    -0.00846     0.02046
  Fock        0.00000     0.00000     0.00000     0.00000     0.00000     0.00000
  vdW        -0.66306    -0.65227    -6.13423     0.00894    -0.00000    -0.00002
  -------------------------------------------------------------------------------------
  Total      -0.88476    -0.31893     4.04914     0.51730    -0.00706     0.01529
  in kB      -5.28532    -1.90519    24.18849     3.09022    -0.04215     0.09134
  external pressure =        5.67 kB  Pullay stress =        0.00 kB


 VOLUME and BASIS-vectors are now :
 -----------------------------------------------------------------------------
  energy-cutoff  :      800.00
  volume of cell :      268.20
      direct lattice vectors                 reciprocal lattice vectors
     4.932874498 -0.001919286  0.000000000     0.202767147  0.117172881  0.000000000
    -2.468099399  4.271034986  0.000000000     0.000091118  0.234187941  0.000000000
     0.000000000  0.000000000 12.732961398     0.000000000  0.000000000  0.078536325

  length of vectors
     4.932874871  4.932874871 12.732961398     0.234187958  0.234187958  0.078536325


 FORCES acting on ions
    electron-ion (+dipol)            ewald-force                    non-local-force                 convergence-correction
 -----------------------------------------------------------------------------------------------
   -.902E+00 0.631E-01 0.154E+01   0.102E+01 -.583E-01 -.158E+01   0.944E-01 0.296E-02 0.166E+00   0.349E-05 -.403E-05 0.387E-04
   0.944E-01 0.654E-01 -.378E+00   -.122E+00 -.616E-01 0.360E+00   -.240E-01 0.284E-02 0.179E-01   0.418E-05 -.564E-06 0.511E-04
   -.876E-01 -.397E-01 -.378E+00   0.869E-01 0.589E-01 0.360E+00   -.127E-01 0.924E-02 0.179E-01   0.231E-05 -.390E-05 0.517E-04
   -.881E-01 0.171E+00 -.379E+00   0.872E-01 -.182E+00 0.361E+00   -.127E-01 -.377E-02 0.179E-01   0.688E-05 -.333E-05 0.512E-04
   -.114E+00 0.658E-01 0.101E+00   0.107E+00 -.617E-01 -.102E+00   -.483E-02 0.282E-02 -.556E-02   0.180E-04 -.226E-05 -.190E-04
   -.114E+00 0.658E-01 0.997E-01   0.107E+00 -.617E-01 -.100E+00   -.481E-02 0.282E-02 -.565E-02   0.170E-04 -.394E-05 -.193E-04
   -.114E+00 0.657E-01 0.997E-01   0.107E+00 -.616E-01 -.100E+00   -.482E-02 0.281E-02 -.565E-02   0.189E-04 -.185E-05 -.195E-04
   -.114E+00 0.658E-01 0.997E-01   0.107E+00 -.618E-01 -.100E+00   -.482E-02 0.283E-02 -.565E-02   0.165E-04 -.275E-05 -.191E-04
   0.114E+00 -.607E-01 0.840E-01   -.107E+00 0.562E-01 -.833E-01   0.472E-02 -.276E-02 0.575E-02   0.584E-05 -.354E-05 -.306E-04
   0.114E+00 -.711E-01 0.836E-01   -.107E+00 0.669E-01 -.832E-01   0.485E-02 -.298E-02 0.614E-02   0.775E-05 -.246E-05 -.306E-04
   0.123E+00 -.662E-01 0.837E-01   -.116E+00 0.617E-01 -.832E-01   0.497E-02 -.300E-02 0.594E-02   0.532E-05 -.491E-05 -.307E-04
   0.103E+00 -.661E-01 0.157E+00   -.963E-01 0.618E-01 -.157E+00   0.468E-02 -.291E-02 0.546E-02   0.712E-05 -.344E-05 -.316E-04
   0.114E+00 -.600E-01 0.834E-01   -.107E+00 0.560E-01 -.831E-01   0.503E-02 -.267E-02 0.607E-02   0.605E-05 -.315E-05 0.284E-05
   0.114E+00 -.711E-01 0.836E-01   -.107E+00 0.674E-01 -.830E-01   0.487E-02 -.288E-02 0.566E-02   0.611E-05 -.346E-05 0.303E-05
   0.124E+00 -.653E-01 0.836E-01   -.117E+00 0.616E-01 -.831E-01   0.514E-02 -.264E-02 0.587E-02   0.649E-05 -.365E-05 0.284E-05
   0.103E+00 -.653E-01 0.157E+00   -.955E-01 0.615E-01 -.157E+00   0.485E-02 -.273E-02 0.564E-02   0.535E-05 -.394E-05 0.244E-05
   0.193E+00 -.643E-01 -.316E+00   -.186E+00 0.614E-01 0.314E+00   0.330E-02 -.230E-02 -.101E-01   -.283E-05 0.138E-05 0.499E-04
   -.134E+00 -.574E-01 -.834E+00   0.138E+00 0.537E-01 0.867E+00   -.224E-01 -.197E-02 -.781E-01   0.802E-06 -.962E-06 0.519E-04
   0.452E+00 0.275E+00 -.838E+00   -.504E+00 -.310E+00 0.872E+00   -.153E-01 0.183E-02 -.783E-01   0.222E-05 0.146E-06 0.519E-04
   0.463E+00 -.407E+00 -.830E+00   -.514E+00 0.436E+00 0.862E+00   -.142E-01 -.697E-02 -.779E-01   -.314E-05 0.255E-05 0.517E-04
   0.111E+00 -.642E-01 0.998E-01   -.106E+00 0.612E-01 -.100E+00   0.399E-02 -.233E-02 0.131E-02   -.165E-04 0.204E-05 -.198E-04
   0.111E+00 -.642E-01 0.100E+00   -.106E+00 0.612E-01 -.101E+00   0.400E-02 -.233E-02 0.129E-02   -.157E-04 0.307E-05 -.199E-04
   0.111E+00 -.642E-01 0.100E+00   -.106E+00 0.612E-01 -.101E+00   0.400E-02 -.233E-02 0.129E-02   -.170E-04 0.185E-05 -.197E-04
   0.111E+00 -.643E-01 0.100E+00   -.106E+00 0.613E-01 -.101E+00   0.399E-02 -.233E-02 0.129E-02   -.148E-04 0.201E-05 -.199E-04
   -.136E+00 0.762E-01 0.985E-01   0.132E+00 -.730E-01 -.981E-01   -.409E-02 0.238E-02 -.203E-02   -.612E-05 0.408E-05 -.309E-04
   -.851E-01 0.822E-01 0.118E+00   0.795E-01 -.792E-01 -.118E+00   -.405E-02 0.252E-02 -.160E-02   -.844E-05 0.295E-05 -.307E-04
   -.116E+00 0.351E-01 0.108E+00   0.111E+00 -.312E-01 -.108E+00   -.419E-02 0.242E-02 -.183E-02   -.680E-05 0.551E-05 -.307E-04
   -.107E+00 0.647E-01 0.773E-01   0.102E+00 -.613E-01 -.770E-01   -.386E-02 0.244E-02 -.933E-03   -.884E-05 0.452E-05 -.299E-04
   -.850E-01 0.459E-01 0.118E+00   0.792E-01 -.427E-01 -.118E+00   -.403E-02 0.216E-02 -.166E-02   -.808E-05 0.352E-05 0.324E-05
   -.136E+00 0.524E-01 0.979E-01   0.132E+00 -.494E-01 -.976E-01   -.411E-02 0.229E-02 -.205E-02   -.747E-05 0.428E-05 0.281E-05
   -.116E+00 0.936E-01 0.108E+00   0.111E+00 -.915E-01 -.108E+00   -.418E-02 0.229E-02 -.182E-02   -.829E-05 0.452E-05 0.295E-05
   -.107E+00 0.639E-01 0.771E-01   0.101E+00 -.612E-01 -.768E-01   -.385E-02 0.225E-02 -.936E-03   -.757E-05 0.450E-05 0.310E-05
 -----------------------------------------------------------------------------------------------
   0.126E-04 0.219E-04 0.837E-02   -.174E-13 -.408E-14 0.854E-13   -.417E-04 -.151E-04 -.837E-02   0.882E-05 -.524E-05 0.195E-04
 
 
 POSITION                                       TOTAL-FORCE (eV/Angst)
 -----------------------------------------------------------------------------------
      2.46041      0.00044      1.58230         0.210687      0.007804      0.131010
      4.93046     -0.00052      1.59162        -0.052642      0.006712      0.000352
      1.22997      2.13595      1.59162        -0.013873      0.029123      0.000422
      3.69641      2.13499      1.59162        -0.013981     -0.015677      0.000368
      2.46402      0.00044      7.95810        -0.011747      0.006937     -0.006179
      4.93046     -0.00052      7.95810        -0.011797      0.006937     -0.006258
      1.22997      2.13595      7.95810        -0.011775      0.006949     -0.006258
      3.69641      2.13499      7.95810        -0.011774      0.006923     -0.006258
     -1.23163      2.13412      4.77486         0.011410     -0.007310      0.006385
      1.23481      2.13316      4.77486         0.011735     -0.007207      0.006511
     -2.46568      4.26964      4.77486         0.011488     -0.007543      0.006445
      0.00076      4.26868      4.77486         0.011706     -0.007333      0.005171
     -1.23163      2.13412     11.14134         0.012362     -0.006730      0.006443
      1.23481      2.13316     11.14134         0.012020     -0.006641      0.006310
     -2.46568      4.26964     11.14134         0.012116     -0.006373      0.006381
      0.00076      4.26868     11.14134         0.012319     -0.006560      0.005323
     -0.00332      1.42496      1.59162         0.010185     -0.005267     -0.011749
      2.46311      1.42400      1.59162        -0.018540     -0.005761     -0.045460
     -1.23737      3.56047      1.59162        -0.066415     -0.032892     -0.045011
      1.22906      3.55952      1.59162        -0.065703      0.021899     -0.045822
     -0.00332      1.42496      7.95810         0.009174     -0.005402      0.000961
      2.46311      1.42400      7.95810         0.009171     -0.005402      0.000925
     -1.23737      3.56047      7.95810         0.009172     -0.005401      0.000924
      1.22906      3.55952      7.95810         0.009172     -0.005402      0.000922
      1.23571      0.70960      4.77486        -0.008814      0.005671     -0.001722
      3.70215      0.70864      4.77486        -0.009727      0.005510     -0.001794
      0.00166      2.84512      4.77486        -0.009127      0.006361     -0.001771
      2.46810      2.84416      4.77486        -0.009374      0.005854     -0.000611
      1.23571      0.70960     11.14134        -0.009905      0.005453     -0.001861
      3.70215      0.70864     11.14134        -0.008837      0.005281     -0.001729
      0.00166      2.84512     11.14134        -0.009221      0.004433     -0.001757
      2.46810      2.84416     11.14134        -0.009464      0.005053     -0.000612
 -----------------------------------------------------------------------------------
    total drift:                               -0.000020      0.000002      0.000018


--------------------------------------------------------------------------------------------------------



  FREE ENERGIE OF THE ION-ELECTRON SYSTEM (eV)
  ---------------------------------------------------
  free  energy   TOTEN  =      -299.72906976 eV

  energy  without entropy=     -299.72906976  energy(sigma->0) =     -299.72906976
 


--------------------------------------------------------------------------------------------------------


    POTLOK:  cpu time    1.99: real time    1.99


--------------------------------------------------------------------------------------------------------


     LOOP+:  cpu time13382.04: real time22184.50
    4ORBIT:  cpu time    0.00: real time    0.00
 BZINTS: Fermi energy:  5.134660;128.000000 electrons
         Band energy:-505.227788;  BLOECHL correction:  0.000000

 total amount of memory used by VASP on root node   386886. kBytes
========================================================================

   base      :      30000. kBytes
   nonl-proj :      74382. kBytes
   fftplans  :      13581. kBytes
   grid      :      28889. kBytes
   one-center:         98. kBytes
   wavefun   :     239936. kBytes
 
  
  
 General timing and accounting informations for this job:
 ========================================================
  
                  Total CPU time used (sec):    13515.481
                            User time (sec):     6105.199
                          System time (sec):     7410.282
                         Elapsed time (sec):    22450.829
  
                   Maximum memory used (kb):      476308.
                   Average memory used (kb):           0.
  
                          Minor page faults:     55673598
                          Major page faults:            0
                 Voluntary context switches:         1087
