   48   48  200    1
  0.9235776E+01  0.7255596E-09  0.9244349E-09  0.6609448E-09  0.5000000E-15
  1.000000000000000E-004
  CAR 
 benzene                                 
    120     27     86
 
  0.0000000E+00  0.0000000E+00  0.0000000E+00  0.1562500E-01
    1      -16.596967
    2      -16.459643
    3      -16.384797
    4      -16.360211
    5      -13.897263
    6      -13.724727
    7      -13.678421
    8      -13.637700
    9      -13.607779
   10      -13.560311
   11      -13.552385
   12      -13.521548
   13      -10.180346
   14      -10.167864
   15      -10.107313
   16      -10.051332
   17       -9.996259
   18       -9.969394
   19       -9.928144
   20       -9.734135
   21       -8.510887
   22       -8.058998
   23       -8.002654
   24       -7.642370
   25       -6.763777
   26       -6.561802
   27       -6.267675
   28       -6.181756
   29       -6.164051
   30       -6.146516
   31       -6.041215
   32       -6.035590
   33       -5.846084
   34       -5.812152
   35       -5.740891
   36       -5.340523
   37       -5.289339
   38       -5.257658
   39       -5.230306
   40       -5.005244
   41       -4.269395
   42       -4.135372
   43       -4.051852
   44       -3.994554
   45       -3.762789
   46       -3.663275
   47       -3.659837
   48       -3.536147
   49       -3.305293
   50       -3.280284
   51       -3.279390
   52       -3.063458
   53       -1.968964
   54       -1.950698
   55       -1.787867
   56       -1.714293
   57       -1.468307
   58       -1.376397
   59       -1.271811
   60       -1.226901
   61        3.166484
   62        3.196278
   63        3.323257
   64        3.476256
   65        3.505030
   66        3.592414
   67        3.795002
   68        3.967016
   69        4.603042
   70        5.726623
   71        5.853624
   72        6.699095
   73        6.728840
   74        6.768837
   75        6.858817
   76        7.075217
   77        7.198675
   78        7.236258
   79        7.283883
   80        7.284360
   81        7.410715
   82        7.772317
   83        8.029993
   84        8.068708
   85        8.142964
   86        8.664181
 
  0.2500000E+00  0.0000000E+00  0.0000000E+00  0.3125000E-01
    1      -16.567949
    2      -16.445357
    3      -16.418147
    4      -16.375057
    5      -13.861723
    6      -13.715112
    7      -13.669271
    8      -13.638817
    9      -13.635826
   10      -13.577422
   11      -13.552333
   12      -13.528944
   13      -10.136017
   14      -10.112469
   15      -10.105577
   16      -10.064078
   17       -9.991352
   18       -9.971800
   19       -9.964725
   20       -9.797143
   21       -8.480159
   22       -8.171175
   23       -7.958336
   24       -7.707596
   25       -6.725484
   26       -6.580713
   27       -6.178839
   28       -6.149803
   29       -6.134273
   30       -6.122492
   31       -6.036635
   32       -6.029821
   33       -5.741692
   34       -5.714375
   35       -5.685085
   36       -5.437636
   37       -5.284954
   38       -5.245827
   39       -5.239938
   40       -5.053962
   41       -4.444951
   42       -4.316298
   43       -4.161606
   44       -4.130942
   45       -3.628530
   46       -3.544594
   47       -3.534441
   48       -3.499323
   49       -3.293644
   50       -3.286892
   51       -3.239932
   52       -3.097883
   53       -1.874786
   54       -1.872009
   55       -1.787629
   56       -1.737807
   57       -1.457525
   58       -1.442550
   59       -1.347257
   60       -1.341892
   61        3.221541
   62        3.274600
   63        3.349052
   64        3.474066
   65        3.506841
   66        3.530246
   67        3.683777
   68        3.823968
   69        4.841665
   70        5.848546
   71        5.976720
   72        6.307278
   73        6.592256
   74        6.835837
   75        6.997662
   76        7.017708
   77        7.033777
   78        7.206046
   79        7.367226
   80        7.393818
   81        7.533264
   82        7.854053
   83        7.913518
   84        8.252888
   85        8.253323
   86        8.517467
 
  0.5000000E+00  0.0000000E+00  0.0000000E+00  0.1562500E-01
    1      -16.495194
    2      -16.495193
    3      -16.410446
    4      -16.410446
    5      -13.774653
    6      -13.774652
    7      -13.650119
    8      -13.650119
    9      -13.620364
   10      -13.620364
   11      -13.544191
   12      -13.544191
   13      -10.095184
   14      -10.095184
   15      -10.047811
   16      -10.047811
   17       -9.981851
   18       -9.981850
   19       -9.950842
   20       -9.950842
   21       -8.362986
   22       -8.362986
   23       -7.842484
   24       -7.842483
   25       -6.645059
   26       -6.645058
   27       -6.128952
   28       -6.128952
   29       -6.077322
   30       -6.077321
   31       -6.030158
   32       -6.030157
   33       -5.672889
   34       -5.672888
   35       -5.412955
   36       -5.412954
   37       -5.375840
   38       -5.375840
   39       -5.160449
   40       -5.160448
   41       -4.532161
   42       -4.532160
   43       -4.270112
   44       -4.270112
   45       -3.509943
   46       -3.509943
   47       -3.367801
   48       -3.367800
   49       -3.345716
   50       -3.345715
   51       -3.170185
   52       -3.170185
   53       -1.779813
   54       -1.779813
   55       -1.663535
   56       -1.663534
   57       -1.619860
   58       -1.619859
   59       -1.417483
   60       -1.417483
   61        3.356976
   62        3.356976
   63        3.427338
   64        3.427339
   65        3.506958
   66        3.506958
   67        3.568447
   68        3.568448
   69        5.475174
   70        5.475176
   71        6.028062
   72        6.028062
   73        6.679515
   74        6.679517
   75        7.129778
   76        7.129779
   77        7.173640
   78        7.173642
   79        7.326686
   80        7.326687
   81        7.952658
   82        7.952658
   83        7.973917
   84        7.973918
   85        8.253158
   86        8.253158
 
  0.0000000E+00  0.2500000E+00  0.0000000E+00  0.3125000E-01
    1      -16.578344
    2      -16.481402
    3      -16.381200
    4      -16.363856
    5      -13.844915
    6      -13.711805
    7      -13.667461
    8      -13.650076
    9      -13.600429
   10      -13.576671
   11      -13.572344
   12      -13.561410
   13      -10.155998
   14      -10.115496
   15      -10.102823
   16      -10.030475
   17       -9.999891
   18       -9.982578
   19       -9.953614
   20       -9.798781
   21       -8.414923
   22       -8.054296
   23       -8.013212
   24       -7.819787
   25       -6.683745
   26       -6.477039
   27       -6.315003
   28       -6.141261
   29       -6.136290
   30       -6.128540
   31       -6.057438
   32       -6.046919
   33       -5.812075
   34       -5.745501
   35       -5.689146
   36       -5.403469
   37       -5.344495
   38       -5.332729
   39       -5.287673
   40       -5.111530
   41       -4.254366
   42       -4.134324
   43       -4.111791
   44       -4.042371
   45       -3.626435
   46       -3.578564
   47       -3.576087
   48       -3.450091
   49       -3.338676
   50       -3.314328
   51       -3.293721
   52       -3.120173
   53       -1.975802
   54       -1.967336
   55       -1.724913
   56       -1.679953
   57       -1.509008
   58       -1.421524
   59       -1.282308
   60       -1.238087
   61        3.163388
   62        3.186137
   63        3.359839
   64        3.468173
   65        3.525042
   66        3.637037
   67        3.731591
   68        3.901643
   69        4.772623
   70        5.647056
   71        5.960418
   72        6.447832
   73        6.494266
   74        6.667930
   75        6.959658
   76        7.145978
   77        7.222566
   78        7.226668
   79        7.294133
   80        7.362303
   81        7.670276
   82        7.792437
   83        7.941501
   84        8.076742
   85        8.159960
   86        8.410358
 
  0.2500000E+00  0.2500000E+00  0.0000000E+00  0.6250000E-01
    1      -16.551145
    2      -16.464580
    3      -16.411926
    4      -16.381471
    5      -13.818579
    6      -13.708085
    7      -13.663802
    8      -13.656816
    9      -13.609658
   10      -13.608694
   11      -13.560326
   12      -13.555110
   13      -10.105890
   14      -10.097787
   15      -10.096358
   16      -10.046426
   17       -9.999636
   18       -9.982811
   19       -9.977677
   20       -9.849964
   21       -8.386547
   22       -8.135266
   23       -7.983951
   24       -7.848360
   25       -6.653830
   26       -6.502622
   27       -6.270429
   28       -6.182211
   29       -6.110489
   30       -6.092701
   31       -6.053159
   32       -6.043672
   33       -5.713156
   34       -5.700435
   35       -5.579850
   36       -5.525595
   37       -5.353524
   38       -5.250309
   39       -5.242350
   40       -5.110108
   41       -4.405023
   42       -4.296829
   43       -4.207685
   44       -4.167775
   45       -3.555466
   46       -3.484269
   47       -3.483940
   48       -3.439539
   49       -3.315592
   50       -3.310893
   51       -3.261427
   52       -3.153758
   53       -1.895042
   54       -1.867920
   55       -1.731688
   56       -1.694933
   57       -1.501887
   58       -1.457692
   59       -1.384254
   60       -1.348677
   61        3.208573
   62        3.272379
   63        3.359684
   64        3.464744
   65        3.523725
   66        3.580714
   67        3.653147
   68        3.785225
   69        4.999009
   70        5.795716
   71        6.054763
   72        6.429709
   73        6.458538
   74        6.569375
   75        6.779398
   76        7.018151
   77        7.123157
   78        7.217859
   79        7.417050
   80        7.450168
   81        7.622705
   82        7.783236
   83        7.871190
   84        8.141955
   85        8.311184
   86        8.376370
 
  0.5000000E+00  0.2500000E+00  0.0000000E+00  0.3125000E-01
    1      -16.483298
    2      -16.483298
    3      -16.423396
    4      -16.423395
    5      -13.754957
    6      -13.754956
    7      -13.648320
    8      -13.648319
    9      -13.631021
   10      -13.631020
   11      -13.554184
   12      -13.554184
   13      -10.080556
   14      -10.080555
   15      -10.046018
   16      -10.046018
   17       -9.988760
   18       -9.988760
   19       -9.971418
   20       -9.971418
   21       -8.285807
   22       -8.285807
   23       -7.915595
   24       -7.915595
   25       -6.577967
   26       -6.577967
   27       -6.210459
   28       -6.210458
   29       -6.084483
   30       -6.084482
   31       -6.044035
   32       -6.044035
   33       -5.663663
   34       -5.663662
   35       -5.463582
   36       -5.463582
   37       -5.326198
   38       -5.326197
   39       -5.136723
   40       -5.136723
   41       -4.488272
   42       -4.488271
   43       -4.315859
   44       -4.315859
   45       -3.463655
   46       -3.463654
   47       -3.353328
   48       -3.353327
   49       -3.348778
   50       -3.348777
   51       -3.212834
   52       -3.212833
   53       -1.748021
   54       -1.748020
   55       -1.640421
   56       -1.640420
   57       -1.626993
   58       -1.626992
   59       -1.468665
   60       -1.468664
   61        3.327637
   62        3.327637
   63        3.435375
   64        3.435375
   65        3.507028
   66        3.507029
   67        3.595605
   68        3.595605
   69        5.602100
   70        5.602101
   71        6.078930
   72        6.078930
   73        6.528645
   74        6.528646
   75        7.005898
   76        7.005899
   77        7.047330
   78        7.047331
   79        7.451974
   80        7.451975
   81        7.839806
   82        7.839806
   83        7.919373
   84        7.919374
   85        8.358569
   86        8.358569
 
  0.0000000E+00  0.5000000E+00  0.0000000E+00  0.1562500E-01
    1      -16.531414
    2      -16.531412
    3      -16.372578
    4      -16.372577
    5      -13.721206
    6      -13.721205
    7      -13.680689
    8      -13.680688
    9      -13.611335
   10      -13.611333
   11      -13.581748
   12      -13.581747
   13      -10.111505
   14      -10.111504
   15      -10.024926
   16      -10.024925
   17       -9.994779
   18       -9.994778
   19       -9.941018
   20       -9.941017
   21       -8.151935
   22       -8.151931
   23       -8.036600
   24       -8.036599
   25       -6.491758
   26       -6.491757
   27       -6.279920
   28       -6.279919
   29       -6.089626
   30       -6.089625
   31       -6.085027
   32       -6.085026
   33       -5.640558
   34       -5.640556
   35       -5.563423
   36       -5.563421
   37       -5.391565
   38       -5.391561
   39       -5.331940
   40       -5.331939
   41       -4.197984
   42       -4.197982
   43       -4.106557
   44       -4.106555
   45       -3.444864
   46       -3.444863
   47       -3.437731
   48       -3.437730
   49       -3.383525
   50       -3.383524
   51       -3.271256
   52       -3.271254
   53       -1.984735
   54       -1.984734
   55       -1.596920
   56       -1.596919
   57       -1.570573
   58       -1.570572
   59       -1.264733
   60       -1.264732
   61        3.166457
   62        3.166458
   63        3.427987
   64        3.427988
   65        3.609282
   66        3.609284
   67        3.759463
   68        3.759464
   69        5.218393
   70        5.218399
   71        6.194387
   72        6.194392
   73        6.462656
   74        6.462660
   75        7.123448
   76        7.123450
   77        7.245518
   78        7.245521
   79        7.340005
   80        7.340006
   81        7.767465
   82        7.767466
   83        7.969248
   84        7.969255
   85        8.337098
   86        8.337103
 
  0.2500000E+00  0.5000000E+00  0.0000000E+00  0.3125000E-01
    1      -16.509078
    2      -16.509076
    3      -16.396806
    4      -16.396805
    5      -13.717004
    6      -13.717004
    7      -13.689056
    8      -13.689055
    9      -13.603508
   10      -13.603506
   11      -13.581752
   12      -13.581751
   13      -10.092007
   14      -10.092006
   15      -10.029976
   16      -10.029975
   17      -10.000494
   18      -10.000493
   19       -9.962520
   20       -9.962519
   21       -8.138985
   22       -8.138982
   23       -8.054550
   24       -8.054549
   25       -6.469591
   26       -6.469590
   27       -6.315828
   28       -6.315827
   29       -6.081949
   30       -6.081948
   31       -6.078622
   32       -6.078621
   33       -5.637310
   34       -5.637309
   35       -5.565951
   36       -5.565950
   37       -5.315640
   38       -5.315637
   39       -5.241057
   40       -5.241057
   41       -4.309918
   42       -4.309916
   43       -4.238452
   44       -4.238451
   45       -3.428149
   46       -3.428148
   47       -3.382500
   48       -3.382500
   49       -3.340096
   50       -3.340095
   51       -3.293477
   52       -3.293475
   53       -1.889000
   54       -1.888998
   55       -1.599723
   56       -1.599722
   57       -1.590044
   58       -1.590043
   59       -1.372454
   60       -1.372452
   61        3.229054
   62        3.229054
   63        3.410023
   64        3.410024
   65        3.585943
   66        3.585944
   67        3.691843
   68        3.691844
   69        5.410735
   70        5.410742
   71        6.243376
   72        6.243377
   73        6.532041
   74        6.532046
   75        6.775834
   76        6.775837
   77        7.318852
   78        7.318853
   79        7.329138
   80        7.329139
   81        7.657550
   82        7.657551
   83        7.852810
   84        7.852816
   85        8.480956
   86        8.480961
 
  0.5000000E+00  0.5000000E+00  0.0000000E+00  0.1562500E-01
    1      -16.453873
    2      -16.453872
    3      -16.453871
    4      -16.453871
    5      -13.704905
    6      -13.704904
    7      -13.704904
    8      -13.704903
    9      -13.588926
   10      -13.588925
   11      -13.588925
   12      -13.588924
   13      -10.049440
   14      -10.049440
   15      -10.049439
   16      -10.049439
   17       -9.999454
   18       -9.999454
   19       -9.999454
   20       -9.999453
   21       -8.099183
   22       -8.099183
   23       -8.099181
   24       -8.099181
   25       -6.402068
   26       -6.402068
   27       -6.402068
   28       -6.402067
   29       -6.072404
   30       -6.072404
   31       -6.072403
   32       -6.072403
   33       -5.592657
   34       -5.592657
   35       -5.592656
   36       -5.592656
   37       -5.187441
   38       -5.187440
   39       -5.187439
   40       -5.187438
   41       -4.402295
   42       -4.402295
   43       -4.402294
   44       -4.402294
   45       -3.376785
   46       -3.376784
   47       -3.376784
   48       -3.376783
   49       -3.306219
   50       -3.306219
   51       -3.306218
   52       -3.306218
   53       -1.672971
   54       -1.672970
   55       -1.672970
   56       -1.672969
   57       -1.570487
   58       -1.570486
   59       -1.570486
   60       -1.570486
   61        3.352597
   62        3.352597
   63        3.352597
   64        3.352598
   65        3.583787
   66        3.583787
   67        3.583788
   68        3.583788
   69        5.899693
   70        5.899693
   71        5.899699
   72        5.899700
   73        6.614266
   74        6.614267
   75        6.614269
   76        6.614271
   77        7.319606
   78        7.319607
   79        7.319608
   80        7.319609
   81        7.698069
   82        7.698069
   83        7.698071
   84        7.698072
   85        8.558498
   86        8.558502
 
  0.0000000E+00  0.0000000E+00  0.2500000E+00  0.3125000E-01
    1      -16.563798
    2      -16.447990
    3      -16.396508
    4      -16.395018
    5      -13.851094
    6      -13.708339
    7      -13.677019
    8      -13.635117
    9      -13.604087
   10      -13.600303
   11      -13.573283
   12      -13.541693
   13      -10.169340
   14      -10.160146
   15      -10.071308
   16      -10.055104
   17      -10.016358
   18       -9.975278
   19       -9.914740
   20       -9.774701
   21       -8.480355
   22       -8.130379
   23       -7.996705
   24       -7.705209
   25       -6.652563
   26       -6.503885
   27       -6.288037
   28       -6.213154
   29       -6.149249
   30       -6.117084
   31       -6.065247
   32       -6.036812
   33       -5.743932
   34       -5.741957
   35       -5.674829
   36       -5.397052
   37       -5.287899
   38       -5.236965
   39       -5.231320
   40       -5.064516
   41       -4.410310
   42       -4.276664
   43       -4.187941
   44       -4.186385
   45       -3.621251
   46       -3.566301
   47       -3.509483
   48       -3.450892
   49       -3.294666
   50       -3.283771
   51       -3.219404
   52       -3.146029
   53       -1.860773
   54       -1.837512
   55       -1.770851
   56       -1.659667
   57       -1.536985
   58       -1.428515
   59       -1.361051
   60       -1.314418
   61        3.263724
   62        3.266407
   63        3.339603
   64        3.486594
   65        3.492342
   66        3.559257
   67        3.699189
   68        3.866096
   69        4.886287
   70        5.888239
   71        6.038935
   72        6.504527
   73        6.551169
   74        6.701490
   75        6.851069
   76        6.949682
   77        7.050576
   78        7.072385
   79        7.083819
   80        7.124019
   81        7.441896
   82        7.862406
   83        7.976790
   84        8.026821
   85        8.182730
   86        8.404020
 
  0.2500000E+00  0.0000000E+00  0.2500000E+00  0.6250000E-01
    1      -16.540134
    2      -16.440110
    3      -16.420849
    4      -16.403689
    5      -13.822397
    6      -13.696902
    7      -13.677777
    8      -13.638112
    9      -13.637645
   10      -13.595120
   11      -13.583342
   12      -13.546188
   13      -10.134063
   14      -10.113915
   15      -10.074099
   16      -10.051662
   17      -10.008776
   18       -9.975025
   19       -9.949247
   20       -9.830288
   21       -8.429489
   22       -8.093776
   23       -8.066378
   24       -7.765142
   25       -6.626518
   26       -6.521984
   27       -6.238568
   28       -6.179857
   29       -6.135841
   30       -6.113003
   31       -6.056847
   32       -6.043159
   33       -5.719499
   34       -5.685599
   35       -5.647656
   36       -5.380194
   37       -5.351993
   38       -5.301877
   39       -5.260158
   40       -5.111921
   41       -4.504469
   42       -4.315427
   43       -4.192783
   44       -4.073225
   45       -3.591150
   46       -3.500850
   47       -3.477914
   48       -3.439687
   49       -3.302754
   50       -3.292039
   51       -3.238748
   52       -3.168240
   53       -1.803741
   54       -1.782096
   55       -1.745534
   56       -1.674914
   57       -1.530514
   58       -1.466824
   59       -1.397660
   60       -1.397342
   61        3.247536
   62        3.250470
   63        3.376083
   64        3.407283
   65        3.528331
   66        3.561062
   67        3.599326
   68        3.809417
   69        5.034647
   70        5.936433
   71        5.981875
   72        6.213977
   73        6.586041
   74        6.606217
   75        6.811911
   76        6.956524
   77        6.997554
   78        7.101171
   79        7.118864
   80        7.379632
   81        7.408304
   82        7.782818
   83        7.891547
   84        7.952103
   85        8.310311
   86        8.342122
 
  0.5000000E+00  0.0000000E+00  0.2500000E+00  0.3125000E-01
    1      -16.481579
    2      -16.481578
    3      -16.421558
    4      -16.421558
    5      -13.749380
    6      -13.749380
    7      -13.663478
    8      -13.663477
    9      -13.622484
   10      -13.622484
   11      -13.566653
   12      -13.566653
   13      -10.088327
   14      -10.088327
   15      -10.020070
   16      -10.020070
   17      -10.008858
   18      -10.008857
   19       -9.951345
   20       -9.951345
   21       -8.283519
   22       -8.283518
   23       -7.914190
   24       -7.914189
   25       -6.567844
   26       -6.567844
   27       -6.174208
   28       -6.174208
   29       -6.115315
   30       -6.115315
   31       -6.045875
   32       -6.045875
   33       -5.615391
   34       -5.615390
   35       -5.524481
   36       -5.524481
   37       -5.436858
   38       -5.436858
   39       -5.219969
   40       -5.219968
   41       -4.357656
   42       -4.357656
   43       -4.191744
   44       -4.191744
   45       -3.476260
   46       -3.476259
   47       -3.376426
   48       -3.376426
   49       -3.369494
   50       -3.369493
   51       -3.223841
   52       -3.223841
   53       -1.729605
   54       -1.729605
   55       -1.641613
   56       -1.641613
   57       -1.588057
   58       -1.588057
   59       -1.453214
   60       -1.453213
   61        3.272838
   62        3.272838
   63        3.316217
   64        3.316217
   65        3.581462
   66        3.581462
   67        3.625268
   68        3.625268
   69        5.499972
   70        5.499974
   71        5.938438
   72        5.938439
   73        6.704428
   74        6.704430
   75        6.878389
   76        6.878389
   77        7.109037
   78        7.109038
   79        7.151675
   80        7.151676
   81        7.659180
   82        7.659181
   83        7.828422
   84        7.828423
   85        8.552023
   86        8.552023
 
  0.0000000E+00  0.2500000E+00  0.2500000E+00  0.6250000E-01
    1      -16.547865
    2      -16.466068
    3      -16.396215
    4      -16.395155
    5      -13.813084
    6      -13.713237
    7      -13.668644
    8      -13.649760
    9      -13.619570
   10      -13.603009
   11      -13.565382
   12      -13.558591
   13      -10.182354
   14      -10.128530
   15      -10.094341
   16      -10.025815
   17      -10.025023
   18       -9.971363
   19       -9.907551
   20       -9.810091
   21       -8.388441
   22       -8.107149
   23       -8.015356
   24       -7.852393
   25       -6.593403
   26       -6.451835
   27       -6.333191
   28       -6.199115
   29       -6.124243
   30       -6.110498
   31       -6.073010
   32       -6.048792
   33       -5.694108
   34       -5.692344
   35       -5.655169
   36       -5.508253
   37       -5.305055
   38       -5.276181
   39       -5.188668
   40       -5.161290
   41       -4.381320
   42       -4.284060
   43       -4.203390
   44       -4.200870
   45       -3.548527
   46       -3.539579
   47       -3.491414
   48       -3.379975
   49       -3.347595
   50       -3.302313
   51       -3.216322
   52       -3.149808
   53       -1.874853
   54       -1.869582
   55       -1.694123
   56       -1.657689
   57       -1.570525
   58       -1.457497
   59       -1.363081
   60       -1.316724
   61        3.207138
   62        3.217161
   63        3.413674
   64        3.471164
   65        3.490968
   66        3.525824
   67        3.750163
   68        3.852806
   69        5.047189
   70        5.844773
   71        6.149045
   72        6.352127
   73        6.495839
   74        6.630731
   75        6.829801
   76        6.985262
   77        7.035381
   78        7.049814
   79        7.086215
   80        7.242794
   81        7.576982
   82        7.663300
   83        7.957593
   84        8.084435
   85        8.117742
   86        8.332381
 
  0.2500000E+00  0.2500000E+00  0.2500000E+00  0.1250000E+00
    1      -16.526222
    2      -16.455547
    3      -16.418266
    4      -16.406132
    5      -13.796972
    6      -13.714264
    7      -13.688124
    8      -13.655541
    9      -13.629019
   10      -13.594689
   11      -13.569185
   12      -13.546585
   13      -10.154079
   14      -10.121822
   15      -10.098555
   16      -10.041562
   17      -10.003328
   18       -9.963874
   19       -9.920201
   20       -9.850462
   21       -8.341914
   22       -8.078453
   23       -8.056115
   24       -7.874147
   25       -6.579019
   26       -6.479188
   27       -6.317778
   28       -6.228851
   29       -6.109477
   30       -6.096865
   31       -6.065034
   32       -6.053390
   33       -5.719637
   34       -5.707897
   35       -5.669679
   36       -5.428620
   37       -5.339626
   38       -5.275894
   39       -5.202926
   40       -5.104069
   41       -4.492118
   42       -4.324092
   43       -4.173041
   44       -4.088398
   45       -3.573139
   46       -3.508292
   47       -3.462790
   48       -3.410941
   49       -3.327040
   50       -3.298703
   51       -3.230827
   52       -3.171025
   53       -1.827303
   54       -1.808101
   55       -1.671932
   56       -1.666775
   57       -1.566105
   58       -1.476958
   59       -1.423060
   60       -1.380974
   61        3.189798
   62        3.210042
   63        3.346162
   64        3.417071
   65        3.494089
   66        3.574008
   67        3.713400
   68        3.821990
   69        5.181592
   70        5.912340
   71        6.060462
   72        6.303891
   73        6.410116
   74        6.535782
   75        6.663783
   76        6.914060
   77        7.043835
   78        7.104242
   79        7.274723
   80        7.322101
   81        7.465625
   82        7.718713
   83        7.882878
   84        7.997078
   85        8.140143
   86        8.334885
 
  0.5000000E+00  0.2500000E+00  0.2500000E+00  0.6250000E-01
    1      -16.472963
    2      -16.472963
    3      -16.430542
    4      -16.430541
    5      -13.752829
    6      -13.752829
    7      -13.685460
    8      -13.685458
    9      -13.608133
   10      -13.608132
   11      -13.552326
   12      -13.552325
   13      -10.112738
   14      -10.112737
   15      -10.086908
   16      -10.086907
   17       -9.950449
   18       -9.950448
   19       -9.931154
   20       -9.931153
   21       -8.217880
   22       -8.217880
   23       -7.951978
   24       -7.951978
   25       -6.532881
   26       -6.532880
   27       -6.275526
   28       -6.275525
   29       -6.092157
   30       -6.092157
   31       -6.055654
   32       -6.055654
   33       -5.720958
   34       -5.720958
   35       -5.586129
   36       -5.586128
   37       -5.294877
   38       -5.294876
   39       -5.140120
   40       -5.140120
   41       -4.332842
   42       -4.332842
   43       -4.205495
   44       -4.205494
   45       -3.498364
   46       -3.498364
   47       -3.429775
   48       -3.429775
   49       -3.319826
   50       -3.319825
   51       -3.224104
   52       -3.224104
   53       -1.737977
   54       -1.737976
   55       -1.649646
   56       -1.649645
   57       -1.560948
   58       -1.560947
   59       -1.469213
   60       -1.469213
   61        3.209923
   62        3.209923
   63        3.279295
   64        3.279295
   65        3.625606
   66        3.625606
   67        3.688566
   68        3.688567
   69        5.614380
   70        5.614381
   71        5.987001
   72        5.987001
   73        6.507513
   74        6.507514
   75        6.815437
   76        6.815438
   77        7.083021
   78        7.083023
   79        7.285785
   80        7.285786
   81        7.555807
   82        7.555807
   83        7.982617
   84        7.982618
   85        8.258232
   86        8.258233
 
  0.0000000E+00  0.5000000E+00  0.2500000E+00  0.3125000E-01
    1      -16.508020
    2      -16.508018
    3      -16.395625
    4      -16.395623
    5      -13.735859
    6      -13.735859
    7      -13.667571
    8      -13.667571
    9      -13.632588
   10      -13.632587
   11      -13.559758
   12      -13.559758
   13      -10.151699
   14      -10.151699
   15      -10.082831
   16      -10.082830
   17       -9.955819
   18       -9.955819
   19       -9.886197