  32  32   0   0
  0.9749312E+01  0.4934311E-09  0.4934311E-09  0.1479663E-08  0.5000000E-15
  1.000000000000000E-004
  CAR 
 graphite                                
     14.60534352    -17.69958630  301      3.85613807      1.00000000
    -17.700  0.0000E+00  0.0000E+00
    -17.592  0.0000E+00  0.0000E+00
    -17.484  0.0000E+00  0.0000E+00
    -17.377  0.0000E+00  0.0000E+00
    -17.269  0.0000E+00  0.0000E+00
    -17.161  0.0000E+00  0.0000E+00
    -17.053  0.0000E+00  0.0000E+00
    -16.946  0.0000E+00  0.0000E+00
    -16.838  0.0000E+00  0.0000E+00
    -16.730  0.0000E+00  0.0000E+00
    -16.623  0.0000E+00  0.0000E+00
    -16.515  0.0000E+00  0.0000E+00
    -16.407  0.0000E+00  0.0000E+00
    -16.300  0.0000E+00  0.0000E+00
    -16.192  0.0000E+00  0.0000E+00
    -16.084  0.0000E+00  0.0000E+00
    -15.977  0.0000E+00  0.0000E+00
    -15.869  0.0000E+00  0.0000E+00
    -15.761  0.0000E+00  0.0000E+00
    -15.654  0.1297E+01  0.2316E-01
    -15.546  0.4432E+01  0.3344E+00
    -15.438  0.4987E+01  0.8648E+00
    -15.331  0.4858E+01  0.1399E+01
    -15.223  0.4977E+01  0.1921E+01
    -15.115  0.5017E+01  0.2463E+01
    -15.008  0.4844E+01  0.2992E+01
    -14.900  0.4938E+01  0.3517E+01
    -14.792  0.5079E+01  0.4058E+01
    -14.684  0.4954E+01  0.4600E+01
    -14.577  0.4990E+01  0.5131E+01
    -14.469  0.5839E+01  0.5708E+01
    -14.361  0.5898E+01  0.6364E+01
    -14.254  0.6543E+01  0.7022E+01
    -14.146  0.2447E+01  0.7619E+01
    -14.038  0.2274E+01  0.7817E+01
    -13.931  0.4391E+01  0.8176E+01
    -13.823  0.4650E+01  0.8693E+01
    -13.715  0.4380E+01  0.9149E+01
    -13.608  0.8525E+01  0.1005E+02
    -13.500  0.4288E+01  0.1066E+02
    -13.392  0.4360E+01  0.1113E+02
    -13.285  0.4468E+01  0.1160E+02
    -13.177  0.4570E+01  0.1209E+02
    -13.069  0.4673E+01  0.1259E+02
    -12.962  0.5737E+01  0.1314E+02
    -12.854  0.5777E+01  0.1380E+02
    -12.746  0.5410E+01  0.1439E+02
    -12.638  0.5732E+01  0.1499E+02
    -12.531  0.5025E+01  0.1557E+02
    -12.423  0.4794E+01  0.1609E+02
    -12.315  0.4880E+01  0.1661E+02
    -12.208  0.4946E+01  0.1714E+02
    -12.100  0.4987E+01  0.1767E+02
    -11.992  0.5014E+01  0.1821E+02
    -11.885  0.5902E+01  0.1880E+02
    -11.777  0.5758E+01  0.1943E+02
    -11.669  0.5614E+01  0.2004E+02
    -11.562  0.5563E+01  0.2064E+02
    -11.454  0.5713E+01  0.2125E+02
    -11.346  0.5067E+01  0.2185E+02
    -11.239  0.5368E+01  0.2240E+02
    -11.131  0.5481E+01  0.2300E+02
    -11.023  0.5422E+01  0.2358E+02
    -10.916  0.5545E+01  0.2417E+02
    -10.808  0.5767E+01  0.2478E+02
    -10.700  0.5991E+01  0.2541E+02
    -10.593  0.9497E+01  0.2617E+02
    -10.485  0.8649E+01  0.2726E+02
    -10.377  0.5582E+01  0.2801E+02
    -10.269  0.7053E+01  0.2858E+02
    -10.162  0.3859E+01  0.2936E+02
    -10.054  0.3492E+01  0.2976E+02
     -9.946  0.3125E+01  0.3012E+02
     -9.839  0.2758E+01  0.3043E+02
     -9.731  0.2391E+01  0.3071E+02
     -9.623  0.2515E+01  0.3096E+02
     -9.516  0.3302E+01  0.3131E+02
     -9.408  0.1380E+01  0.3153E+02
     -9.300  0.1738E+01  0.3168E+02
     -9.193  0.2673E+01  0.3192E+02
     -9.085  0.7418E+01  0.3242E+02
     -8.977  0.3847E+01  0.3315E+02
     -8.870  0.3980E+01  0.3356E+02
     -8.762  0.4307E+01  0.3400E+02
     -8.654  0.9988E+01  0.3476E+02
     -8.547  0.6520E+01  0.3546E+02
     -8.439  0.7665E+01  0.3623E+02
     -8.331  0.8648E+01  0.3710E+02
     -8.223  0.7402E+01  0.3805E+02
     -8.116  0.6255E+01  0.3874E+02
     -8.008  0.6001E+01  0.3940E+02
     -7.900  0.5749E+01  0.4004E+02
     -7.793  0.5517E+01  0.4064E+02
     -7.685  0.5332E+01  0.4123E+02
     -7.577  0.5150E+01  0.4179E+02
     -7.470  0.4955E+01  0.4233E+02
     -7.362  0.4856E+01  0.4286E+02
     -7.254  0.4825E+01  0.4338E+02
     -7.147  0.4793E+01  0.4390E+02
     -7.039  0.4614E+01  0.4441E+02
     -6.931  0.4398E+01  0.4489E+02
     -6.824  0.4344E+01  0.4536E+02
     -6.716  0.3995E+01  0.4578E+02
     -6.608  0.4308E+01  0.4622E+02
     -6.501  0.4934E+01  0.4672E+02
     -6.393  0.5883E+01  0.4730E+02
     -6.285  0.6543E+01  0.4797E+02
     -6.177  0.1046E+02  0.4893E+02
     -6.070  0.8289E+01  0.4994E+02
     -5.962  0.6122E+01  0.5072E+02
     -5.854  0.3955E+01  0.5126E+02
     -5.747  0.2793E+01  0.5159E+02
     -5.639  0.3182E+01  0.5191E+02
     -5.531  0.4432E+01  0.5231E+02
     -5.424  0.5686E+01  0.5286E+02
     -5.316  0.7273E+01  0.5355E+02
     -5.208  0.7851E+01  0.5440E+02
     -5.101  0.6685E+01  0.5518E+02
     -4.993  0.5535E+01  0.5584E+02
     -4.885  0.7660E+01  0.5653E+02
     -4.778  0.7161E+01  0.5733E+02
     -4.670  0.6662E+01  0.5808E+02
     -4.562  0.6164E+01  0.5877E+02
     -4.455  0.5665E+01  0.5940E+02
     -4.347  0.5166E+01  0.5999E+02
     -4.239  0.7968E+01  0.6097E+02
     -4.132  0.9604E+01  0.6194E+02
     -4.024  0.8908E+01  0.6294E+02
     -3.916  0.7059E+01  0.6381E+02
     -3.808  0.6535E+01  0.6452E+02
     -3.701  0.7106E+01  0.6526E+02
     -3.593  0.8501E+01  0.6609E+02
     -3.485  0.1032E+02  0.6709E+02
     -3.378  0.1474E+02  0.6844E+02
     -3.270  0.1321E+02  0.7001E+02
     -3.162  0.1308E+02  0.7140E+02
     -3.055  0.1374E+02  0.7294E+02
     -2.947  0.1710E+02  0.7444E+02
     -2.839  0.1399E+02  0.7613E+02
     -2.732  0.1937E+02  0.7759E+02
     -2.624  0.1134E+02  0.7922E+02
     -2.516  0.1537E+02  0.8054E+02
     -2.409  0.1725E+02  0.8262E+02
     -2.301  0.1723E+02  0.8458E+02
     -2.193  0.1553E+02  0.8645E+02
     -2.086  0.1184E+02  0.8795E+02
     -1.978  0.6982E+01  0.8895E+02
     -1.870  0.1153E+02  0.8979E+02
     -1.762  0.8790E+01  0.9097E+02
     -1.655  0.9419E+01  0.9192E+02
     -1.547  0.1282E+02  0.9324E+02
     -1.439  0.2018E+02  0.9463E+02
     -1.332  0.9746E+01  0.9601E+02
     -1.224  0.1035E+02  0.9709E+02
     -1.116  0.1132E+02  0.9827E+02
     -1.009  0.1090E+02  0.9946E+02
     -0.901  0.1134E+02  0.1007E+03
     -0.793  0.1023E+02  0.1018E+03
     -0.686  0.9814E+01  0.1029E+03
     -0.578  0.9330E+01  0.1039E+03
     -0.470  0.9050E+01  0.1049E+03
     -0.363  0.8948E+01  0.1058E+03
     -0.255  0.9072E+01  0.1068E+03
     -0.147  0.9749E+01  0.1078E+03
     -0.040  0.9425E+01  0.1088E+03
      0.068  0.9372E+01  0.1099E+03
      0.176  0.9270E+01  0.1109E+03
      0.283  0.9198E+01  0.1119E+03
      0.391  0.9348E+01  0.1129E+03
      0.499  0.9200E+01  0.1139E+03
      0.607  0.9741E+01  0.1149E+03
      0.714  0.1086E+02  0.1160E+03
      0.822  0.7591E+01  0.1170E+03
      0.930  0.6450E+01  0.1177E+03
      1.037  0.5718E+01  0.1184E+03
      1.145  0.4743E+01  0.1189E+03
      1.253  0.4909E+01  0.1194E+03
      1.360  0.3843E+01  0.1199E+03
      1.468  0.5411E+01  0.1204E+03
      1.576  0.9835E+01  0.1212E+03
      1.683  0.1285E+02  0.1224E+03
      1.791  0.7271E+01  0.1233E+03
      1.899  0.5486E+01  0.1240E+03
      2.006  0.4762E+01  0.1245E+03
      2.114  0.4169E+01  0.1250E+03
      2.222  0.3514E+01  0.1254E+03
      2.329  0.3252E+01  0.1258E+03
      2.437  0.2949E+01  0.1261E+03
      2.545  0.2669E+01  0.1264E+03
      2.653  0.2457E+01  0.1267E+03
      2.760  0.2147E+01  0.1270E+03
      2.868  0.1897E+01  0.1272E+03
      2.976  0.1647E+01  0.1274E+03
      3.083  0.1390E+01  0.1275E+03
      3.191  0.1106E+01  0.1277E+03
      3.299  0.8860E+00  0.1278E+03
      3.406  0.6774E+00  0.1279E+03
      3.514  0.4692E+00  0.1279E+03
      3.622  0.2953E+00  0.1280E+03
      3.729  0.1480E+00  0.1280E+03
      3.837  0.1911E-01  0.1280E+03
      3.945  0.8685E-01  0.1280E+03
      4.052  0.2131E+00  0.1280E+03
      4.160  0.3637E+00  0.1281E+03
      4.268  0.5601E+00  0.1281E+03
      4.375  0.7816E+00  0.1282E+03
      4.483  0.1003E+01  0.1283E+03
      4.591  0.1226E+01  0.1284E+03
      4.698  0.1732E+01  0.1285E+03
      4.806  0.2179E+01  0.1288E+03
      4.914  0.2733E+01  0.1290E+03
      5.022  0.2499E+01  0.1293E+03
      5.129  0.3088E+01  0.1296E+03
      5.237  0.3872E+01  0.1300E+03
      5.345  0.8173E+01  0.1305E+03
      5.452  0.9769E+01  0.1313E+03
      5.560  0.9723E+01  0.1323E+03
      5.668  0.8976E+01  0.1334E+03
      5.775  0.7193E+01  0.1342E+03
      5.883  0.6617E+01  0.1350E+03
      5.991  0.5913E+01  0.1356E+03
      6.098  0.5744E+01  0.1363E+03
      6.206  0.5441E+01  0.1369E+03
      6.314  0.4924E+01  0.1374E+03
      6.421  0.4394E+01  0.1379E+03
      6.529  0.3813E+01  0.1384E+03
      6.637  0.3794E+01  0.1388E+03
      6.744  0.4397E+01  0.1392E+03
      6.852  0.4708E+01  0.1397E+03
      6.960  0.4557E+01  0.1402E+03
      7.068  0.4362E+01  0.1407E+03
      7.175  0.4223E+01  0.1411E+03
      7.283  0.4071E+01  0.1416E+03
      7.391  0.3946E+01  0.1420E+03
      7.498  0.3815E+01  0.1424E+03
      7.606  0.3976E+01  0.1429E+03
      7.714  0.4093E+01  0.1433E+03
      7.821  0.4184E+01  0.1437E+03
      7.929  0.4206E+01  0.1442E+03
      8.037  0.4288E+01  0.1446E+03
      8.144  0.4357E+01  0.1451E+03
      8.252  0.4495E+01  0.1456E+03
      8.360  0.4420E+01  0.1461E+03
      8.467  0.4447E+01  0.1465E+03
      8.575  0.4550E+01  0.1470E+03
      8.683  0.4731E+01  0.1475E+03
      8.790  0.4931E+01  0.1480E+03
      8.898  0.4661E+01  0.1486E+03
      9.006  0.4600E+01  0.1491E+03
      9.114  0.4580E+01  0.1496E+03
      9.221  0.4570E+01  0.1500E+03
      9.329  0.4888E+01  0.1505E+03
      9.437  0.5098E+01  0.1511E+03
      9.544  0.5085E+01  0.1516E+03
      9.652  0.4945E+01  0.1522E+03
      9.760  0.4810E+01  0.1527E+03
      9.867  0.4830E+01  0.1532E+03
      9.975  0.5147E+01  0.1538E+03
     10.083  0.5468E+01  0.1543E+03
     10.190  0.6114E+01  0.1550E+03
     10.298  0.3616E+01  0.1555E+03
     10.406  0.3607E+01  0.1559E+03
     10.513  0.4289E+01  0.1563E+03
     10.621  0.4553E+01  0.1568E+03
     10.729  0.4697E+01  0.1573E+03
     10.836  0.4745E+01  0.1578E+03
     10.944  0.4389E+01  0.1583E+03
     11.052  0.4411E+01  0.1588E+03
     11.159  0.6256E+01  0.1593E+03
     11.267  0.9554E+01  0.1602E+03
     11.375  0.1169E+02  0.1613E+03
     11.483  0.1382E+02  0.1627E+03
     11.590  0.1167E+02  0.1640E+03
     11.698  0.1134E+02  0.1652E+03
     11.806  0.7661E+01  0.1663E+03
     11.913  0.5657E+01  0.1670E+03
     12.021  0.3344E+01  0.1675E+03
     12.129  0.1547E+01  0.1678E+03
     12.236  0.8113E+00  0.1679E+03
     12.344  0.4536E+00  0.1680E+03
     12.452  0.1920E+00  0.1680E+03
     12.559  0.2669E-01  0.1680E+03
     12.667  0.0000E+00  0.1680E+03
     12.775  0.0000E+00  0.1680E+03
     12.882  0.0000E+00  0.1680E+03
     12.990  0.0000E+00  0.1680E+03
     13.098  0.0000E+00  0.1680E+03
     13.205  0.0000E+00  0.1680E+03
     13.313  0.0000E+00  0.1680E+03
     13.421  0.0000E+00  0.1680E+03
     13.529  0.0000E+00  0.1680E+03
     13.636  0.0000E+00  0.1680E+03
     13.744  0.0000E+00  0.1680E+03
     13.852  0.0000E+00  0.1680E+03
     13.959  0.0000E+00  0.1680E+03
     14.067  0.0000E+00  0.1680E+03
     14.175  0.0000E+00  0.1680E+03
     14.282  0.0000E+00  0.1680E+03
     14.390  0.0000E+00  0.1680E+03
     14.498  0.0000E+00  0.1680E+03
     14.605  0.0000E+00  0.1680E+03
