   32   32    1    1
  0.9749312E+01  0.4934311E-09  0.4934311E-09  0.1479663E-08  0.5000000E-15
  1.000000000000000E-004
  CAR 
 graphite                                
    128    163     84
 
  0.0000000E+00  0.0000000E+00  0.0000000E+00  0.3086420E-02
    1      -15.699586
    2      -15.633314
    3      -15.633111
    4      -15.564483
    5      -10.423845
    6      -10.421742
    7      -10.419997
    8      -10.400011
    9      -10.397075
   10      -10.396549
   11      -10.396255
   12      -10.396249
   13      -10.392852
   14      -10.374910
   15      -10.373653
   16      -10.371370
   17       -9.368311
   18       -9.365072
   19       -9.363643
   20       -9.352426
   21       -9.349433
   22       -9.348028
   23       -9.347954
   24       -9.347948
   25       -9.344458
   26       -9.330395
   27       -9.327762
   28       -9.325323
   29       -4.291488
   30       -3.754980
   31       -3.753936
   32       -3.129789
   33       -2.544151
   34       -2.541254
   35       -2.537632
   36       -2.534374
   37       -2.531349
   38       -2.531348
   39       -2.530683
   40       -2.528208
   41       -2.525630
   42       -2.522234
   43       -2.520459
   44       -2.515641
   45        0.828962
   46        0.838819
   47        0.840784
   48        0.843080
   49        0.843291
   50        0.845556
   51        0.847534
   52        0.857286
   53        1.286840
   54        1.288808
   55        1.290596
   56        1.497984
   57        1.501288
   58        1.501314
   59        1.501459
   60        1.501617
   61        1.505006
   62        1.676187
   63        1.677748
   64        1.679323
   65        5.369973
   66        5.373999
   67        5.375986
   68        5.514918
   69        5.519899
   70        5.521637
   71        5.522103
   72        5.522310
   73        5.527284
   74        5.815943
   75        5.820426
   76        5.823131
   77        7.504660
   78        9.462225
   79        9.464464
   80       11.137373
   81       11.142452
   82       11.145206
   83       11.229393
   84       11.234378
 
  0.1111111E+00  0.0000000E+00  0.0000000E+00  0.6172840E-02
    1      -15.626304
    2      -15.560318
    3      -15.560114
    4      -15.491892
    5      -11.193864
    6      -11.148621
    7      -11.148440
    8      -11.102504
    9      -10.656631
   10      -10.654536
   11      -10.618883
   12      -10.617555
   13      -10.616806
   14      -10.614718
   15      -10.579289
   16      -10.577102
   17       -9.042298
   18       -9.039247
   19       -9.011842
   20       -9.009402
   21       -9.007859
   22       -9.007330
   23       -8.977368
   24       -8.974551
   25       -8.521856
   26       -8.487827
   27       -8.485965
   28       -8.450859
   29       -4.202861
   30       -3.667756
   31       -3.666714
   32       -3.044945
   33       -2.766654
   34       -2.762474
   35       -2.755320
   36       -2.754859
   37       -2.751787
   38       -2.749146
   39       -2.743184
   40       -2.738047
   41       -2.470746
   42       -2.461331
   43       -2.459255
   44       -2.449982
   45        0.542750
   46        0.546392
   47        0.548958
   48        0.556502
   49        0.675789
   50        0.683520
   51        0.685864
   52        0.689135
   53        0.749200
   54        1.074484
   55        1.076179
   56        1.192429
   57        1.194508
   58        1.407343
   59        1.449069
   60        1.449795
   61        1.449910
   62        1.453270
   63        1.684823
   64        1.686860
   65        5.478796
   66        5.483026
   67        5.645066
   68        5.649875
   69        5.651596
   70        5.652955
   71        5.840700
   72        5.946848
   73        5.951385
   74        6.060284
   75        6.063983
   76        6.392163
   77        7.596650
   78        9.548342
   79        9.550572
   80       11.177104
   81       11.266154
   82       11.267246
   83       11.357500
   84       11.479249
 
  0.2222222E+00 -0.1387779E-16  0.0000000E+00  0.6172840E-02
    1      -15.406854
    2      -15.341837
    3      -15.341632
    4      -15.274533
    5      -12.197076
    6      -12.146133
    7      -12.145938
    8      -12.093645
    9      -10.997711
   10      -10.995888
   11      -10.954125
   12      -10.952777
   13      -10.952211
   14      -10.950538
   15      -10.908094
   16      -10.906223
   17       -8.357605
   18       -8.354606
   19       -8.324836
   20       -8.322641
   21       -8.320951
   22       -8.320444
   23       -8.288881
   24       -8.286057
   25       -7.201258
   26       -7.169878
   27       -7.168131
   28       -7.136450
   29       -3.937859
   30       -3.407620
   31       -3.406588
   32       -3.368974
   33       -3.365019
   34       -3.354172
   35       -3.353886
   36       -3.351012
   37       -3.348311
   38       -3.338913
   39       -3.334233
   40       -2.791536
   41       -2.256652
   42       -2.247300
   43       -2.245109
   44       -2.235967
   45       -0.278575
   46       -0.271600
   47       -0.268597
   48       -0.260691
   49       -0.225860
   50        0.187807
   51        0.188909
   52        0.260638
   53        0.268098
   54        0.270960
   55        0.275805
   56        0.646980
   57        1.003788
   58        1.005709
   59        1.328223
   60        1.329066
   61        1.329147
   62        1.332393
   63        1.660328
   64        1.662445
   65        5.781813
   66        5.785812
   67        5.976306
   68        5.980887
   69        5.982340
   70        5.983493
   71        6.261030
   72        6.264851
   73        7.030467
   74        7.278508
   75        7.281423
   76        7.602034
   77        7.873125
   78        9.806356
   79        9.808565
   80       11.282851
   81       11.372174
   82       11.373313
   83       11.432871
   84       12.070844
 
  0.3333333E+00  0.5551115E-16  0.0000000E+00  0.6172840E-02
    1      -15.042313
    2      -14.978933
    3      -14.978725
    4      -14.913410
    5      -13.104495
    6      -13.049614
    7      -13.049385
    8      -12.993134
    9      -11.252105
   10      -11.250426
   11      -11.206262
   12      -11.204841
   13      -11.204495
   14      -11.202922
   15      -11.157973
   16      -11.156262
   17       -7.554091
   18       -7.551000
   19       -7.524446
   20       -7.522047
   21       -7.520282
   22       -7.519956
   23       -7.491868
   24       -7.489023
   25       -5.774702
   26       -5.748206
   27       -5.746276
   28       -5.719355
   29       -4.179818
   30       -4.176367
   31       -4.161988
   32       -4.161857
   33       -4.159477
   34       -4.156677
   35       -4.143535
   36       -4.139448
   37       -3.499247
   38       -2.977695
   39       -2.976677
   40       -2.373121
   41       -1.909101
   42       -1.899878
   43       -1.897504
   44       -1.888872
   45       -1.457521
   46       -1.446038
   47       -1.442914
   48       -1.431211
   49       -1.225108
   50       -0.764119
   51       -0.763157
   52       -0.297875
   53       -0.290276
   54       -0.287321
   55       -0.281118
   56       -0.241061
   57        0.834251
   58        0.836103
   59        1.204499
   60        1.205415
   61        1.205499
   62        1.208654
   63        1.604516
   64        1.606632
   65        6.172217
   66        6.175646
   67        6.363541
   68        6.367905
   69        6.368930
   70        6.369705
   71        6.597763
   72        6.600774
   73        8.333537
   74        8.535221
   75        8.750680
   76        8.753487
   77        9.032752
   78       10.231449
   79       10.233682
   80       10.777472
   81       11.492716
   82       11.523418
   83       11.524757
   84       11.690474
 
  0.4444444E+00 -0.2775558E-16  0.0000000E+00  0.6172840E-02
    1      -14.534651
    2      -14.473506
    3      -14.473300
    4      -14.410346
    5      -13.886983
    6      -13.828689
    7      -13.828451
    8      -13.768453
    9      -11.383648
   10      -11.382039
   11      -11.337131
   12      -11.335641
   13      -11.335469
   14      -11.333890
   15      -11.287884
   16      -11.286247
   17       -6.817925
   18       -6.815089
   19       -6.797678
   20       -6.794495
   21       -6.793601
   22       -6.793287
   23       -6.774044
   24       -6.771922
   25       -4.931921
   26       -4.929947
   27       -4.917133
   28       -4.915990
   29       -4.915701
   30       -4.912535
   31       -4.900152
   32       -4.897265
   33       -4.301538
   34       -4.279987
   35       -4.277695
   36       -4.256012
   37       -2.892581
   38       -2.836457
   39       -2.820468
   40       -2.817730
   41       -2.801181
   42       -2.384079
   43       -2.383132
   44       -2.127982
   45       -1.797201
   46       -1.638645
   47       -1.637698
   48       -1.444482
   49       -1.435871
   50       -1.433274
   51       -1.425163
   52       -1.077260
   53       -0.891550
   54       -0.883459
   55       -0.880720
   56       -0.873217
   57        0.738413
   58        0.740243
   59        1.130040
   60        1.130997
   61        1.131089
   62        1.134197
   63        1.562152
   64        1.564257
   65        6.463016
   66        6.465724
   67        6.627478
   68        6.631846
   69        6.632272
   70        6.632599
   71        6.802643
   72        6.805081
   73        8.977449
   74        9.799163
   75       10.133000
   76       10.269272
   77       10.273686
   78       10.519935
   79       10.785809
   80       10.789701
   81       11.518254
   82       11.522664
   83       11.690996
   84       11.715275
 
  0.0000000E+00  0.1111111E+00  0.0000000E+00  0.6172840E-02
    1      -15.626305
    2      -15.560319
    3      -15.560116
    4      -15.491893
    5      -11.193794
    6      -11.148523
    7      -11.148390
    8      -11.102427
    9      -10.656766
   10      -10.654666
   11      -10.619154
   12      -10.617555
   13      -10.616808
   14      -10.614981
   15      -10.579373
   16      -10.577305
   17       -9.042480
   18       -9.038198
   19       -9.012162
   20       -9.009402
   21       -9.007854
   22       -9.004921
   23       -8.977496
   24       -8.973155
   25       -8.522656
   26       -8.487844
   27       -8.487653
   28       -8.451771
   29       -4.202857
   30       -3.667751
   31       -3.666709
   32       -3.044939
   33       -2.767834
   34       -2.762461
   35       -2.756988
   36       -2.754860
   37       -2.751787
   38       -2.749518
   39       -2.744064
   40       -2.738588
   41       -2.469243
   42       -2.459256
   43       -2.459069
   44       -2.449039
   45        0.541438
   46        0.545704
   47        0.546390
   48        0.550759
   49        0.682086
   50        0.685866
   51        0.686456
   52        0.690357
   53        0.750013
   54        1.075954
   55        1.076466
   56        1.191607
   57        1.194216
   58        1.408267
   59        1.447501
   60        1.449798
   61        1.449913
   62        1.452588
   63        1.684068
   64        1.686487
   65        5.478957
   66        5.484620
   67        5.645594
   68        5.649837
   69        5.651864
   70        5.656031
   71        5.839112
   72        5.947036
   73        5.953244
   74        6.059623
   75        6.061411
   76        6.390489
   77        7.596654
   78        9.548350
   79        9.550580
   80       11.177528
   81       11.266951
   82       11.267358
   83       11.357629
   84       11.484178
 
  0.1111111E+00  0.1111111E+00  0.0000000E+00  0.6172840E-02
    1      -15.479923
    2      -15.414594
    3      -15.414389
    4      -15.346902
    5      -11.654263
    6      -11.651500
    7      -11.607134
    8      -11.604434
    9      -11.604417
   10      -11.601612
   11      -11.556252
   12      -11.553444
   13      -10.233291
   14      -10.209614
   15      -10.208242
   16      -10.186167
   17       -9.185076
   18       -9.170032
   19       -9.167417
   20       -9.149024
   21       -7.842785
   22       -7.839983
   23       -7.810007
   24       -7.807927
   25       -7.807910
   26       -7.804107
   27       -7.774432
   28       -7.771212
   29       -4.026025
   30       -3.494165
   31       -3.493131
   32       -3.440228
   33       -3.426098
   34       -3.423950
   35       -3.409534
   36       -2.875807
   37       -2.623714
   38       -2.620645
   39       -2.612974
   40       -2.609858
   41       -2.609856
   42       -2.608402
   43       -2.599515
   44       -2.597428
   45        0.012523
   46        0.016295
   47        0.018835
   48        0.026473
   49        0.338859
   50        0.341998
   51        0.363166
   52        0.370127
   53        0.372220
   54        0.375096
   55        0.716385
   56        0.718986
   57        0.719070
   58        0.720793
   59        1.123965
   60        1.126140
   61        1.556856
   62        1.767075
   63        1.769564
   64        1.942372
   65        5.330544
   66        5.439894
   67        5.444014
   68        5.683087
   69        6.359699
   70        6.361890
   71        6.598652
   72        6.600080
   73        6.600278
   74        6.604190
   75        6.919984
   76        6.922438
   77        7.780973
   78        9.720717
   79        9.722931
   80       11.546006
   81       11.550272
   82       11.637178
   83       11.641016
   84       11.642297
 
  0.2222222E+00  0.1111111E+00  0.0000000E+00  0.6172840E-02
    1      -15.187920
    2      -15.123896
    3      -15.123688
    4      -15.057621
    5      -12.613438
    6      -12.560658
    7      -12.560461
    8      -12.506283
    9      -11.992005
   10      -11.941911
   11      -11.941756
   12      -11.890355
   13      -10.272470
   14      -10.235944
   15      -10.235176
   16      -10.198535
   17       -8.699212
   18       -8.670944
   19       -8.668761
   20       -8.639169
   21       -7.063329
   22       -7.032846
   23       -7.032641
   24       -7.001717
   25       -6.465597
   26       -6.437050
   27       -6.435276
   28       -6.406257
   29       -4.341824
   30       -4.323840
   31       -4.321723
   32       -4.303351
   33       -3.674109
   34       -3.149096
   35       -3.148062
   36       -3.143890
   37       -3.130037
   38       -3.129547
   39       -3.115287
   40       -2.539817
   41       -2.337317
   42       -2.326857
   43       -2.324708
   44       -2.314378
   45       -0.934939
   46       -0.927783
   47       -0.924269
   48       -0.915290
   49       -0.670688
   50       -0.231199
   51       -0.230141
   52       -0.178657
   53       -0.170503
   54       -0.167512
   55       -0.162879
   56        0.022570
   57        0.263117
   58        0.432620
   59        0.433481
   60        0.886476
   61        1.713564
   62        1.969208
   63        1.971566
   64        2.205480
   65        5.336078
   66        5.444652
   67        5.448473
   68        5.646329
   69        6.942728
   70        7.165632
   71        7.167319
   72        7.438449
   73        7.735515
   74        7.966121
   75        7.968478
   76        8.150109
   77        8.257303
   78       10.064444
   79       10.066641
   80       11.380372
   81       11.727129
   82       11.768201
   83       11.769295
   84       11.952867
 
  0.3333333E+00  0.1111111E+00  0.0000000E+00  0.6172840E-02
    1      -14.751813
    2      -14.689729
    3      -14.689517
    4      -14.625527
    5      -13.459028
    6      -13.402572
    7      -13.402355
    8      -13.344336
    9      -12.198768
   10      -12.147766
   11      -12.147616
   12      -12.095253
   13      -10.412334
   14      -10.371001
   15      -10.370644
   16      -10.328390
   17       -7.934498
   18       -7.906990
   19       -7.904937
   20       -7.877039
   21       -6.272548
   22       -6.247935
   23       -6.247116
   24       -6.222445
   25       -5.275230
   26       -5.256292
   27       -5.254051
   28       -5.234367
   29       -5.023580
   30       -5.000019
   31       -4.998050
   32       -4.974112
   33       -3.840680
   34       -3.825260
   35       -3.824050
   36       -3.808485
   37       -3.151209
   38       -2.637102
   39       -2.636070
   40       -2.172917
   41       -2.160516
   42       -2.157106
   43       -2.144192
   44       -2.042138
   45       -1.922318
   46       -1.912626
   47       -1.910352
   48       -1.900765
   49       -1.628642
   50       -1.153422
   51       -1.152492
   52       -0.797750
   53       -0.789538
   54       -0.786352
   55       -0.779498
   56       -0.611014
   57       -0.178043
   58        0.249871
   59        0.250849
   60        0.729443
   61        1.740255
   62        2.059140
   63        2.061085
   64        2.389588
   65        5.411423
   66        5.560012
   67        5.563106
   68        5.743948
   69        7.437414
   70        7.617654
   71        7.619374
   72        7.815571
   73        8.703212
   74        9.284152
   75        9.465379
   76        9.468046
   77        9.708288
   78       10.347422
   79       10.568924
   80       10.571358
   81       11.847813
   82       11.849796
   83       11.919405
   84       12.095804
 
  0.4444444E+00  0.1111111E+00  0.0000000E+00  0.6172840E-02
    1      -14.175544
    2      -14.172980
    3      -14.117033
    4      -14.114651
    5      -14.114528
    6      -14.111880
    7      -14.054363
    8      -14.051736
    9      -12.268330
   10      -12.216846
   11      -12.216698
   12      -12.164110
   13      -10.467261
   14      -10.425123
   15      -10.424910
   16      -10.381529
   17       -7.442025
   18       -7.425350
   19       -7.423449
   20       -7.407388
   21       -5.810781
   22       -5.803341
   23       -5.797305
   24       -5.794864
   25       -5.792710
   26       -5.790440
   27       -5.782127
   28       -5.778374
   29       -4.267926
   30       -4.258676
   31       -4.255978
   32       -4.245663
   33       -3.570728
   34       -3.568619
   35       -3.551653
   36       -3.551363
   37       -3.551316
   38       -3.546321
   39       -3.532268
   40       -3.528236
   41       -2.465822
   42       -2.463741
   43       -1.968447
   44       -1.965945
   45       -1.965815
   46       -1.963718
   47       -1.403748
   48       -1.395115
   49       -1.394070
   50       -1.391853
   51       -1.390947
   52       -1.386305
   53       -1.386241
   54       -1.384832
   55       -1.378440
   56       -1.375818
   57       -0.246232
   58        0.187275
   59        0.188382
   60        0.675014
   61        1.738595
   62        2.081230
   63        2.082658
   64        2.449144
   65        5.459886
   66        5.625983
   67        5.628142
   68        5.800543
   69        7.645145
   70        7.794553
   71        7.796607
   72        7.946574
   73        9.437585
   74        9.438316
   75       10.844951
   76       10.847821
   77       10.872369
   78       10.879310
   79       10.880148
   80       10.889656
   81       11.155985
   82       11.158995
   83       11.363846
   84       11.372669
 
 -0.4444444E+00  0.1111111E+00  0.0000000E+00  0.6172840E-02
    1      -14.751920
    2      -14.689831
    3      -14.689630
    4      -14.625635
    5      -13.458866
    6      -13.402418
    7      -13.402176
    8      -13.344179
    9      -12.198991
   10      -12.147987
   11      -12.147839
   12      -12.095474
   13      -10.412197
   14      -10.370772
   15      -10.370610
   16      -10.328265
   17       -7.932080
   18       -7.903927
   19       -7.903406
   20       -7.874840
   21       -6.275123
   22       -6.251043
   23       -6.248901
   24       -6.224789
   25       -5.277827
   26       -5.258285
   27       -5.257529
   28       -5.237288
   29       -5.023595
   30       -5.000157
   31       -4.997875
   32       -4.974046
   33       -3.837817
   34       -3.822964
   35       -3.820224
   36       -3.805073
   37       -3.151241
   38       -2.637123
   39       -2.636095
   40       -2.173761
   41       -2.160996
   42       -2.158726
   43       -2.145804
   44       -2.042147
   45       -1.922646
   46       -1.912836
   47       -1.910255
   48       -1.900765
   49       -1.628608
   50       -1.153421
   51       -1.152451
   52       -0.795555
   53       -0.788166
   54       -0.785859
   55       -0.778747
   56       -0.611012
   57       -0.177933
   58        0.249883
   59        0.251145
   60        0.729658
   61        1.739681
   62        2.058992
   63        2.059906
   64        2.388820
   65        5.413657
   66        5.562670
   67        5.564143
   68        5.745394
   69        7.435706
   70        7.615789
   71        7.618421
   72        7.814467
   73        8.703130
   74        9.284505
   75        9.465651
   76        9.468561
   77        9.708738
   78       10.347528
   79       10.568930
   80       10.571372
   81       11.846735
   82       11.849142
   83       11.918451
   84       12.093820
 
 -0.3333333E+00  0.1111111E+00  0.0000000E+00  0.6172840E-02
    1      -15.187996
    2      -15.123969
    3      -15.123768
    4      -15.057698
    5      -12.613242
    6      -12.560477
    7      -12.560248
    8      -12.506085
    9      -11.992445
   10      -11.942345
   11      -11.942198
   12      -11.890791
   13      -10.272308
   14      -10.235483
   15      -10.235348
   16      -10.198410
   17       -8.696374
   18       -8.667191
   19       -8.667101
   20       -8.636559
   21       -7.066052
   22       -7.036249
   23       -7.034550
   24       -7.004316
   25       -6.465758
   26       -6.437262
   27       -6.435361
   28       -6.406391
   29       -4.345156
   30       -4.326380
   31       -4.326106
   32       -4.306992
   33       -3.674134
   34       -3.149098
   35       -3.148073
   36       -3.140240
   37       -3.127153
   38       -3.124690
   39       -3.111069
   40       -2.539826
   41       -2.337370
   42       -2.326920
   43       -2.324582
   44       -2.314315
   45       -0.936875
   46       -0.929220
   47       -0.927374
   48       -0.919770
   49       -0.670662
   50       -0.231224
   51       -0.230073
   52       -0.173195
   53       -0.167847
   54       -0.166039
   55       -0.161053
   56        0.022823
   57        0.263111
   58        0.432648
   59        0.434117
   60        0.886929
   61        1.712428
   62        1.968972
   63        1.969428
   64        2.204314
   65        5.339521
   66        5.449105
   67        5.450532
   68        5.649323
   69        6.939948
   70        7.162429
   71        7.165537
   72        7.436229
   73        7.735739
   74        7.966251
   75        7.968892
   76        8.150051
   77        8.257634
   78       10.064443
   79       10.066643
   80       11.380244
   81       11.726575
   82       11.767353
   83       11.768848
   84       11.952570
 
 -0.2222222E+00  0.1111111E+00  0.0000000E+00  0.6172840E-02
    1      -15.479969
    2      -15.414638
    3      -15.414437
    4      -15.346948
    5      -11.653395
    6      -11.652581
    7      -11.605091
    8      -11.604930
    9      -11.604274
   10      -11.604116
   11      -11.555551
   12      -11.554746
   13      -10.233150
   14      -10.208862
   15      -10.208761
   16      -10.186081
   17       -9.181936
   18       -9.165968
   19       -9.165843
   20       -9.146345
   21       -7.844209
   22       -7.841054
   23       -7.811193
   24       -7.809649
   25       -7.808148
   26       -7.806373
   27       -7.775909
   28       -7.772728
   29       -4.026041
   30       -3.494178
   31       -3.493143
   32       -3.443919
   33       -3.428936
   34       -3.428811
   35       -3.413629
   36       -2.875813
   37       -2.622600
   38       -2.617224
   39       -2.611914
   40       -2.609764
   41       -2.606756
   42       -2.604406
   43       -2.599100
   44       -2.593590
   45        0.008359
   46        0.012945
   47        0.013173
   48        0.017657
   49        0.340129
   50        0.341548
   51        0.372089
   52        0.375401
   53        0.375939
   54        0.379375
   55        0.717661
   56        0.718967
   57        0.719074
   58        0.720687
   59        1.124617
   60        1.126179
   61        1.555421
   62        1.766860
   63        1.767029
   64        1.941195
   65        5.334328
   66        5.445101
   67        5.446762
   68        5.687143
   69        6.356627
   70        6.361668
   71        6.594987
   72        6.598438
   73        6.600156
   74        6.603469
   75        6.917369
   76        6.922168
   77        7.780937
   78        9.720715
   79        9.722929
   80       11.547862
   81       11.552967
   82       11.638184
   83       11.643418
   84       11.643918
 
 -0.1111111E+00  0.1111111E+00  0.0000000E+00  0.6172840E-02
    1      -15.626321
    2      -15.560333
    3      -15.560132
    4      -15.491909
    5      -11.194503
    6      -11.149291
    7      -11.149025
    8      -11.103120
    9      -10.656389
   10      -10.654261
   11      -10.618942
   12      -10.616641
   13      -10.616638
   14      -10.614758
   15      -10.579012
   16      -10.576937
   17       -9.039868
   18       -9.038303
   19       -9.008577
   20       -9.008038
   21       -9.008032
   22       -9.005146
   23       -8.975234
   24       -8.973338
   25       -8.525104
   26       -8.490936
   27       -8.489348
   28       -8.454119
   29       -4.202862
   30       -3.667756
   31       -3.666713
   32       -3.044941
   33       -2.768655
   34       -2.765888
   35       -2.757812
   36       -2.754827
   37       -2.754825
   38       -2.753684
   39       -2.744348
   40       -2.742516
   41       -2.465278
   42       -2.456114
   43       -2.453811
   44       -2.444338
   45        0.532049
   46        0.540321
   47        0.542923
   48        0.546638
   49        0.686188
   50        0.689365
   51        0.691782
   52        0.700067
   53        0.750757
   54        1.076100
   55        1.078116
   56        1.191208
   57        1.193452
   58        1.409323
   59        1.446645
   60        1.449816
   61        1.449847
   62        1.451015
   63        1.683669
   64        1.685680
   65        5.482688
   66        5.484852
   67        5.650686
   68        5.651924
   69        5.652123
   70        5.656846
   71        5.835293
   72        5.950869
   73        5.953646
   74        6.054900
   75        6.058604
   76        6.386761
   77        7.596641
   78        9.548349
   79        9.550579
   80       11.182448
   81       11.271576
   82       11.272614
   83       11.362358
   84       11.476205
 
 -0.1694066E-20  0.2222222E+00  0.0000000E+00  0.6172840E-02
    1      -15.406859
    2      -15.341840
    3      -15.341640
    4      -15.274539
    5      -12.197110
    6      -12.146149
    7      -12.145990
    8      -12.093679
    9      -10.998115
   10      -10.995622
   11      -10.954864
   12      -10.952777
   13      -10.952212
   14      -10.949917
   15      -10.908413
   16      -10.905887
   17       -8.357958
   18       -8.353562
   19       -8.325455
   20       -8.322641
   21       -8.320945
   22       -8.317956
   23       -8.289087
   24       -8.284636
   25       -7.202012
   26       -7.169894
   27       -7.169733
   28       -7.137324
   29       -3.937840
   30       -3.407600
   31       -3.406568
   32       -3.370199
   33       -3.365079
   34       -3.356049
   35       -3.353889
   36       -3.351012
   37       -3.348665
   38       -3.339805
   39       -3.334573
   40       -2.791512
   41       -2.255056
   42       -2.245110
   43       -2.244967
   44       -2.235009
   45       -0.279947
   46       -0.272132
   47       -0.271602
   48       -0.263969
   49       -0.225603
   50        0.188490
   51        0.189257
   52        0.265323
   53        0.270960
   54        0.271133
   55        0.276934
   56        0.647570
   57        1.002939
   58        1.005570
   59        1.326536
   60        1.329089
   61        1.329159
   62        1.331943
   63        1.659497
   64        1.662158
   65        5.782037
   66        5.787438
   67        5.976842
   68        5.980862
   69        5.982609
   70        5.986541
   71        6.261222
   72        6.266644
   73        7.029205
   74        7.277847
   75        7.279653
   76        7.600809
   77        7.873133
   78        9.806387
   79        9.808595
   80       11.283361
   81       11.373190
   82       11.373340
   83       11.433371
   84       12.070463
 
  0.1111111E+00  0.2222222E+00  0.0000000E+00  0.6172840E-02
    1      -15.187924
    2      -15.123898
    3      -15.123694
    4      -15.057625
    5      -12.613486
    6      -12.560686
    7      -12.560531
    8      -12.506332
    9      -11.991970
   10      -11.941894
   11      -11.941704
   12      -11.890320
   13      -10.272462
   14      -10.235944
   15      -10.235159
   16      -10.198527
   17       -8.699151
   18       -8.670841
   19       -8.668761
   20       -8.639122
   21       -7.062476
   22       -7.032651
   23       -7.031026
   24       -7.000752
   25       -6.466429
   26       -6.437104
   27       -6.437013
   28       -6.407229
   29       -4.341881
   30       -4.323840
   31       -4.321866
   32       -4.303445
   33       -3.674095
   34       -3.149094
   35       -3.148066
   36       -3.145247
   37       -3.131949
   38       -3.130037
   39       -3.116375
   40       -2.539798
   41       -2.335728
   42       -2.324708
   43       -2.324370
   44       -2.313316
   45       -0.935342
   46       -0.927784
   47       -0.925503
   48       -0.917742
   49       -0.670316