<?xml version="1.0" encoding="ISO-8859-1"?>
<modeling>
 <generator>
  <i name="program" type="string">vasp </i>
  <i name="version" type="string">5.3.5  </i>
  <i name="subversion" type="string">31Mar14 (build Nov 04 2014 22:34:45) complex                          parallel </i>
  <i name="platform" type="string">atom-AMD-MKL </i>
  <i name="date" type="string">2016 08 28 </i>
  <i name="time" type="string">18:30:05 </i>
 </generator>
 <incar>
  <i type="string" name="SYSTEM">graphite</i>
  <i type="string" name="PREC">accurate</i>
  <i type="int" name="NELM">   200</i>
  <i type="int" name="IBRION">    -1</i>
  <i name="EDIFF">      0.00000100</i>
  <i name="EDIFFG">      0.00100000</i>
  <i type="int" name="NSW">     0</i>
  <i type="int" name="ISIF">     2</i>
  <i name="ENCUT">    600.00000000</i>
  <i type="int" name="ISMEAR">    -5</i>
  <i type="logical" name="LWAVE"> F  </i>
  <i type="logical" name="LCHARG"> F  </i>
  <i type="int" name="NELM">   200</i>
  <i type="string" name="GGA">PE</i>
 </incar>
 <kpoints>
  <generation param="Gamma">
   <v type="int" name="divisions">       9        9        4 </v>
   <v name="usershift">      0.00000000       0.00000000       0.00000000 </v>
   <v name="genvec1">      0.11111111      -0.00000000       0.00000000 </v>
   <v name="genvec2">     -0.00000000       0.11111111       0.00000000 </v>
   <v name="genvec3">      0.00000000       0.00000000       0.25000000 </v>
   <v name="shift">      0.00000000       0.00000000       0.00000000 </v>
  </generation>
  <varray name="kpointlist" >
   <v>       0.00000000       0.00000000       0.00000000 </v>
   <v>       0.11111111       0.00000000       0.00000000 </v>
   <v>       0.22222222       0.00000000       0.00000000 </v>
   <v>       0.33333333       0.00000000       0.00000000 </v>
   <v>       0.44444444       0.00000000       0.00000000 </v>
   <v>       0.00000000       0.11111111       0.00000000 </v>
   <v>       0.11111111       0.11111111       0.00000000 </v>
   <v>       0.22222222       0.11111111       0.00000000 </v>
   <v>       0.33333333       0.11111111       0.00000000 </v>
   <v>       0.44444444       0.11111111       0.00000000 </v>
   <v>      -0.44444444       0.11111111       0.00000000 </v>
   <v>      -0.33333333       0.11111111       0.00000000 </v>
   <v>      -0.22222222       0.11111111       0.00000000 </v>
   <v>      -0.11111111       0.11111111       0.00000000 </v>
   <v>      -0.00000000       0.22222222       0.00000000 </v>
   <v>       0.11111111       0.22222222       0.00000000 </v>
   <v>       0.22222222       0.22222222       0.00000000 </v>
   <v>       0.33333333       0.22222222       0.00000000 </v>
   <v>       0.44444444       0.22222222       0.00000000 </v>
   <v>      -0.44444444       0.22222222       0.00000000 </v>
   <v>      -0.33333333       0.22222222       0.00000000 </v>
   <v>      -0.22222222       0.22222222       0.00000000 </v>
   <v>      -0.11111111       0.22222222       0.00000000 </v>
   <v>       0.00000000       0.33333333       0.00000000 </v>
   <v>       0.11111111       0.33333333       0.00000000 </v>
   <v>       0.22222222       0.33333333       0.00000000 </v>
   <v>       0.33333333       0.33333333       0.00000000 </v>
   <v>       0.44444444       0.33333333       0.00000000 </v>
   <v>      -0.44444444       0.33333333       0.00000000 </v>
   <v>      -0.33333333       0.33333333       0.00000000 </v>
   <v>      -0.22222222       0.33333333       0.00000000 </v>
   <v>      -0.11111111       0.33333333       0.00000000 </v>
   <v>      -0.00000000       0.44444444       0.00000000 </v>
   <v>       0.11111111       0.44444444       0.00000000 </v>
   <v>       0.22222222       0.44444444       0.00000000 </v>
   <v>       0.33333333       0.44444444       0.00000000 </v>
   <v>       0.44444444       0.44444444       0.00000000 </v>
   <v>      -0.44444444       0.44444444       0.00000000 </v>
   <v>      -0.33333333       0.44444444       0.00000000 </v>
   <v>      -0.22222222       0.44444444       0.00000000 </v>
   <v>      -0.11111111       0.44444444       0.00000000 </v>
   <v>       0.00000000       0.00000000       0.25000000 </v>
   <v>       0.11111111       0.00000000       0.25000000 </v>
   <v>       0.22222222       0.00000000       0.25000000 </v>
   <v>       0.33333333       0.00000000       0.25000000 </v>
   <v>       0.44444444       0.00000000       0.25000000 </v>
   <v>      -0.44444444      -0.00000000       0.25000000 </v>
   <v>      -0.33333333       0.00000000       0.25000000 </v>
   <v>      -0.22222222      -0.00000000       0.25000000 </v>
   <v>      -0.11111111      -0.00000000       0.25000000 </v>
   <v>       0.00000000       0.11111111       0.25000000 </v>
   <v>       0.11111111       0.11111111       0.25000000 </v>
   <v>       0.22222222       0.11111111       0.25000000 </v>
   <v>       0.33333333       0.11111111       0.25000000 </v>
   <v>       0.44444444       0.11111111       0.25000000 </v>
   <v>      -0.44444444       0.11111111       0.25000000 </v>
   <v>      -0.33333333       0.11111111       0.25000000 </v>
   <v>      -0.22222222       0.11111111       0.25000000 </v>
   <v>      -0.11111111       0.11111111       0.25000000 </v>
   <v>      -0.00000000       0.22222222       0.25000000 </v>
   <v>       0.11111111       0.22222222       0.25000000 </v>
   <v>       0.22222222       0.22222222       0.25000000 </v>
   <v>       0.33333333       0.22222222       0.25000000 </v>
   <v>       0.44444444       0.22222222       0.25000000 </v>
   <v>      -0.44444444       0.22222222       0.25000000 </v>
   <v>      -0.33333333       0.22222222       0.25000000 </v>
   <v>      -0.22222222       0.22222222       0.25000000 </v>
   <v>      -0.11111111       0.22222222       0.25000000 </v>
   <v>       0.00000000       0.33333333       0.25000000 </v>
   <v>       0.11111111       0.33333333       0.25000000 </v>
   <v>       0.22222222       0.33333333       0.25000000 </v>
   <v>       0.33333333       0.33333333       0.25000000 </v>
   <v>       0.44444444       0.33333333       0.25000000 </v>
   <v>      -0.44444444       0.33333333       0.25000000 </v>
   <v>      -0.33333333       0.33333333       0.25000000 </v>
   <v>      -0.22222222       0.33333333       0.25000000 </v>
   <v>      -0.11111111       0.33333333       0.25000000 </v>
   <v>      -0.00000000       0.44444444       0.25000000 </v>
   <v>       0.11111111       0.44444444       0.25000000 </v>
   <v>       0.22222222       0.44444444       0.25000000 </v>
   <v>       0.33333333       0.44444444       0.25000000 </v>
   <v>       0.44444444       0.44444444       0.25000000 </v>
   <v>      -0.44444444       0.44444444       0.25000000 </v>
   <v>      -0.33333333       0.44444444       0.25000000 </v>
   <v>      -0.22222222       0.44444444       0.25000000 </v>
   <v>      -0.11111111       0.44444444       0.25000000 </v>
   <v>       0.00000000      -0.44444444       0.25000000 </v>
   <v>       0.11111111      -0.44444444       0.25000000 </v>
   <v>       0.22222222      -0.44444444       0.25000000 </v>
   <v>       0.33333333      -0.44444444       0.25000000 </v>
   <v>       0.44444444      -0.44444444       0.25000000 </v>
   <v>      -0.44444444      -0.44444444       0.25000000 </v>
   <v>      -0.33333333      -0.44444444       0.25000000 </v>
   <v>      -0.22222222      -0.44444444       0.25000000 </v>
   <v>      -0.11111111      -0.44444444       0.25000000 </v>
   <v>       0.00000000      -0.33333333       0.25000000 </v>
   <v>       0.11111111      -0.33333333       0.25000000 </v>
   <v>       0.22222222      -0.33333333       0.25000000 </v>
   <v>       0.33333333      -0.33333333       0.25000000 </v>
   <v>       0.44444444      -0.33333333       0.25000000 </v>
   <v>      -0.44444444      -0.33333333       0.25000000 </v>
   <v>      -0.33333333      -0.33333333       0.25000000 </v>
   <v>      -0.22222222      -0.33333333       0.25000000 </v>
   <v>      -0.11111111      -0.33333333       0.25000000 </v>
   <v>       0.00000000      -0.22222222       0.25000000 </v>
   <v>       0.11111111      -0.22222222       0.25000000 </v>
   <v>       0.22222222      -0.22222222       0.25000000 </v>
   <v>       0.33333333      -0.22222222       0.25000000 </v>
   <v>       0.44444444      -0.22222222       0.25000000 </v>
   <v>      -0.44444444      -0.22222222       0.25000000 </v>
   <v>      -0.33333333      -0.22222222       0.25000000 </v>
   <v>      -0.22222222      -0.22222222       0.25000000 </v>
   <v>      -0.11111111      -0.22222222       0.25000000 </v>
   <v>       0.00000000      -0.11111111       0.25000000 </v>
   <v>       0.11111111      -0.11111111       0.25000000 </v>
   <v>       0.22222222      -0.11111111       0.25000000 </v>
   <v>       0.33333333      -0.11111111       0.25000000 </v>
   <v>       0.44444444      -0.11111111       0.25000000 </v>
   <v>      -0.44444444      -0.11111111       0.25000000 </v>
   <v>      -0.33333333      -0.11111111       0.25000000 </v>
   <v>      -0.22222222      -0.11111111       0.25000000 </v>
   <v>      -0.11111111      -0.11111111       0.25000000 </v>
   <v>       0.00000000       0.00000000       0.50000000 </v>
   <v>       0.11111111       0.00000000       0.50000000 </v>
   <v>       0.22222222       0.00000000       0.50000000 </v>
   <v>       0.33333333       0.00000000       0.50000000 </v>
   <v>       0.44444444       0.00000000       0.50000000 </v>
   <v>       0.00000000       0.11111111       0.50000000 </v>
   <v>       0.11111111       0.11111111       0.50000000 </v>
   <v>       0.22222222       0.11111111       0.50000000 </v>
   <v>       0.33333333       0.11111111       0.50000000 </v>
   <v>       0.44444444       0.11111111       0.50000000 </v>
   <v>      -0.44444444       0.11111111       0.50000000 </v>
   <v>      -0.33333333       0.11111111       0.50000000 </v>
   <v>      -0.22222222       0.11111111       0.50000000 </v>
   <v>      -0.11111111       0.11111111       0.50000000 </v>
   <v>      -0.00000000       0.22222222       0.50000000 </v>
   <v>       0.11111111       0.22222222       0.50000000 </v>
   <v>       0.22222222       0.22222222       0.50000000 </v>
   <v>       0.33333333       0.22222222       0.50000000 </v>
   <v>       0.44444444       0.22222222       0.50000000 </v>
   <v>      -0.44444444       0.22222222       0.50000000 </v>
   <v>      -0.33333333       0.22222222       0.50000000 </v>
   <v>      -0.22222222       0.22222222       0.50000000 </v>
   <v>      -0.11111111       0.22222222       0.50000000 </v>
   <v>       0.00000000       0.33333333       0.50000000 </v>
   <v>       0.11111111       0.33333333       0.50000000 </v>
   <v>       0.22222222       0.33333333       0.50000000 </v>
   <v>       0.33333333       0.33333333       0.50000000 </v>
   <v>       0.44444444       0.33333333       0.50000000 </v>
   <v>      -0.44444444       0.33333333       0.50000000 </v>
   <v>      -0.33333333       0.33333333       0.50000000 </v>
   <v>      -0.22222222       0.33333333       0.50000000 </v>
   <v>      -0.11111111       0.33333333       0.50000000 </v>
   <v>      -0.00000000       0.44444444       0.50000000 </v>
   <v>       0.11111111       0.44444444       0.50000000 </v>
   <v>       0.22222222       0.44444444       0.50000000 </v>
   <v>       0.33333333       0.44444444       0.50000000 </v>
   <v>       0.44444444       0.44444444       0.50000000 </v>
   <v>      -0.44444444       0.44444444       0.50000000 </v>
   <v>      -0.33333333       0.44444444       0.50000000 </v>
   <v>      -0.22222222       0.44444444       0.50000000 </v>
   <v>      -0.11111111       0.44444444       0.50000000 </v>
  </varray>
  <varray name="weights" >
   <v>       0.00308642 </v>
   <v>       0.00617284 </v>
   <v>       0.00617284 </v>
   <v>       0.00617284 </v>
   <v>       0.00617284 </v>
   <v>       0.00617284 </v>
   <v>       0.00617284 </v>
   <v>       0.00617284 </v>
   <v>       0.00617284 </v>
   <v>       0.00617284 </v>
   <v>       0.00617284 </v>
   <v>       0.00617284 </v>
   <v>       0.00617284 </v>
   <v>       0.00617284 </v>
   <v>       0.00617284 </v>
   <v>       0.00617284 </v>
   <v>       0.00617284 </v>
   <v>       0.00617284 </v>
   <v>       0.00617284 </v>
   <v>       0.00617284 </v>
   <v>       0.00617284 </v>
   <v>       0.00617284 </v>
   <v>       0.00617284 </v>
   <v>       0.00617284 </v>
   <v>       0.00617284 </v>
   <v>       0.00617284 </v>
   <v>       0.00617284 </v>
   <v>       0.00617284 </v>
   <v>       0.00617284 </v>
   <v>       0.00617284 </v>
   <v>       0.00617284 </v>
   <v>       0.00617284 </v>
   <v>       0.00617284 </v>
   <v>       0.00617284 </v>
   <v>       0.00617284 </v>
   <v>       0.00617284 </v>
   <v>       0.00617284 </v>
   <v>       0.00617284 </v>
   <v>       0.00617284 </v>
   <v>       0.00617284 </v>
   <v>       0.00617284 </v>
   <v>       0.00617284 </v>
   <v>       0.00617284 </v>
   <v>       0.00617284 </v>
   <v>       0.00617284 </v>
   <v>       0.00617284 </v>
   <v>       0.00617284 </v>
   <v>       0.00617284 </v>
   <v>       0.00617284 </v>
   <v>       0.00617284 </v>
   <v>       0.00617284 </v>
   <v>       0.00617284 </v>
   <v>       0.00617284 </v>
   <v>       0.00617284 </v>
   <v>       0.00617284 </v>
   <v>       0.00617284 </v>
   <v>       0.00617284 </v>
   <v>       0.00617284 </v>
   <v>       0.00617284 </v>
   <v>       0.00617284 </v>
   <v>       0.00617284 </v>
   <v>       0.00617284 </v>
   <v>       0.00617284 </v>
   <v>       0.00617284 </v>
   <v>       0.00617284 </v>
   <v>       0.00617284 </v>
   <v>       0.00617284 </v>
   <v>       0.00617284 </v>
   <v>       0.00617284 </v>
   <v>       0.00617284 </v>
   <v>       0.00617284 </v>
   <v>       0.00617284 </v>
   <v>       0.00617284 </v>
   <v>       0.00617284 </v>
   <v>       0.00617284 </v>
   <v>       0.00617284 </v>
   <v>       0.00617284 </v>
   <v>       0.00617284 </v>
   <v>       0.00617284 </v>
   <v>       0.00617284 </v>
   <v>       0.00617284 </v>
   <v>       0.00617284 </v>
   <v>       0.00617284 </v>
   <v>       0.00617284 </v>
   <v>       0.00617284 </v>
   <v>       0.00617284 </v>
   <v>       0.00617284 </v>
   <v>       0.00617284 </v>
   <v>       0.00617284 </v>
   <v>       0.00617284 </v>
   <v>       0.00617284 </v>
   <v>       0.00617284 </v>
   <v>       0.00617284 </v>
   <v>       0.00617284 </v>
   <v>       0.00617284 </v>
   <v>       0.00617284 </v>
   <v>       0.00617284 </v>
   <v>       0.00617284 </v>
   <v>       0.00617284 </v>
   <v>       0.00617284 </v>
   <v>       0.00617284 </v>
   <v>       0.00617284 </v>
   <v>       0.00617284 </v>
   <v>       0.00617284 </v>
   <v>       0.00617284 </v>
   <v>       0.00617284 </v>
   <v>       0.00617284 </v>
   <v>       0.00617284 </v>
   <v>       0.00617284 </v>
   <v>       0.00617284 </v>
   <v>       0.00617284 </v>
   <v>       0.00617284 </v>
   <v>       0.00617284 </v>
   <v>       0.00617284 </v>
   <v>       0.00617284 </v>
   <v>       0.00617284 </v>
   <v>       0.00617284 </v>
   <v>       0.00617284 </v>
   <v>       0.00617284 </v>
   <v>       0.00617284 </v>
   <v>       0.00617284 </v>
   <v>       0.00617284 </v>
   <v>       0.00308642 </v>
   <v>       0.00617284 </v>
   <v>       0.00617284 </v>
   <v>       0.00617284 </v>
   <v>       0.00617284 </v>
   <v>       0.00617284 </v>
   <v>       0.00617284 </v>
   <v>       0.00617284 </v>
   <v>       0.00617284 </v>
   <v>       0.00617284 </v>
   <v>       0.00617284 </v>
   <v>       0.00617284 </v>
   <v>       0.00617284 </v>
   <v>       0.00617284 </v>
   <v>       0.00617284 </v>
   <v>       0.00617284 </v>
   <v>       0.00617284 </v>
   <v>       0.00617284 </v>
   <v>       0.00617284 </v>
   <v>       0.00617284 </v>
   <v>       0.00617284 </v>
   <v>       0.00617284 </v>
   <v>       0.00617284 </v>
   <v>       0.00617284 </v>
   <v>       0.00617284 </v>
   <v>       0.00617284 </v>
   <v>       0.00617284 </v>
   <v>       0.00617284 </v>
   <v>       0.00617284 </v>
   <v>       0.00617284 </v>
   <v>       0.00617284 </v>
   <v>       0.00617284 </v>
   <v>       0.00617284 </v>
   <v>       0.00617284 </v>
   <v>       0.00617284 </v>
   <v>       0.00617284 </v>
   <v>       0.00617284 </v>
   <v>       0.00617284 </v>
   <v>       0.00617284 </v>
   <v>       0.00617284 </v>
   <v>       0.00617284 </v>
  </varray>
  <varray name="tetrahedronlist"  type="int" >
   <v type="int" >        2        2        6        7       51 </v>
   <v type="int" >        2        1        2        6       51 </v>
   <v type="int" >        2        1        2       42       51 </v>
   <v type="int" >        2        2        7       51       52 </v>
   <v type="int" >        2        2       43       51       52 </v>
   <v type="int" >        2        2       42       43       51 </v>
   <v type="int" >        2        3        7        8       52 </v>
   <v type="int" >        2        2        3        7       52 </v>
   <v type="int" >        2        2        3       43       52 </v>
   <v type="int" >        2        3        8       52       53 </v>
   <v type="int" >        2        3       44       52       53 </v>
   <v type="int" >        2        3       43       44       52 </v>
   <v type="int" >        2        4        8        9       53 </v>
   <v type="int" >        2        3        4        8       53 </v>
   <v type="int" >        2        3        4       44       53 </v>
   <v type="int" >        2        4        9       53       54 </v>
   <v type="int" >        2        4       45       53       54 </v>
   <v type="int" >        2        4       44       45       53 </v>
   <v type="int" >        2        5        9       10       54 </v>
   <v type="int" >        2        4        5        9       54 </v>
   <v type="int" >        2        4        5       45       54 </v>
   <v type="int" >        2        5       10       54       55 </v>
   <v type="int" >        2        5       46       54       55 </v>
   <v type="int" >        2        5       45       46       54 </v>
   <v type="int" >        2        5       10       11       55 </v>
   <v type="int" >        2        5        5       10       55 </v>
   <v type="int" >        2        5        5       46       55 </v>
   <v type="int" >        2        5       11       55       56 </v>
   <v type="int" >        2        5       47       55       56 </v>
   <v type="int" >        2        5       46       47       55 </v>
   <v type="int" >        2        4       11       12       56 </v>
   <v type="int" >        2        4        5       11       56 </v>
   <v type="int" >        2        4        5       47       56 </v>
   <v type="int" >        2        4       12       56       57 </v>
   <v type="int" >        2        4       48       56       57 </v>
   <v type="int" >        2        4       47       48       56 </v>
   <v type="int" >        2        3       12       13       57 </v>
   <v type="int" >        2        3        4       12       57 </v>
   <v type="int" >        2        3        4       48       57 </v>
   <v type="int" >        2        3       13       57       58 </v>
   <v type="int" >        2        3       49       57       58 </v>
   <v type="int" >        2        3       48       49       57 </v>
   <v type="int" >        2        2       13       14       58 </v>
   <v type="int" >        2        2        3       13       58 </v>
   <v type="int" >        2        2        3       49       58 </v>
   <v type="int" >        2        2       14       58       59 </v>
   <v type="int" >        2        2       50       58       59 </v>
   <v type="int" >        2        2       49       50       58 </v>
   <v type="int" >        2        1        6       14       59 </v>
   <v type="int" >        2        1        2       14       59 </v>
   <v type="int" >        2        1        2       50       59 </v>
   <v type="int" >        2        1        6       51       59 </v>
   <v type="int" >        2        1       42       51       59 </v>
   <v type="int" >        2        1       42       50       59 </v>
   <v type="int" >        2        7       15       16       60 </v>
   <v type="int" >        2        6        7       15       60 </v>
   <v type="int" >        2        6        7       51       60 </v>
   <v type="int" >        2        7       16       60       61 </v>
   <v type="int" >        2        7       52       60       61 </v>
   <v type="int" >        2        7       51       52       60 </v>
   <v type="int" >        2        8       16       17       61 </v>
   <v type="int" >        2        7        8       16       61 </v>
   <v type="int" >        2        7        8       52       61 </v>
   <v type="int" >        2        8       17       61       62 </v>
   <v type="int" >        2        8       53       61       62 </v>
   <v type="int" >        2        8       52       53       61 </v>
   <v type="int" >        2        9       17       18       62 </v>
   <v type="int" >        2        8        9       17       62 </v>
   <v type="int" >        2        8        9       53       62 </v>
   <v type="int" >        2        9       18       62       63 </v>
   <v type="int" >        2        9       54       62       63 </v>
   <v type="int" >        2        9       53       54       62 </v>
   <v type="int" >        2       10       18       19       63 </v>
   <v type="int" >        2        9       10       18       63 </v>
   <v type="int" >        2        9       10       54       63 </v>
   <v type="int" >        2       10       19       63       64 </v>
   <v type="int" >        2       10       55       63       64 </v>
   <v type="int" >        2       10       54       55       63 </v>
   <v type="int" >        2       11       19       20       64 </v>
   <v type="int" >        2       10       11       19       64 </v>
   <v type="int" >        2       10       11       55       64 </v>
   <v type="int" >        2       11       20       64       65 </v>
   <v type="int" >        2       11       56       64       65 </v>
   <v type="int" >        2       11       55       56       64 </v>
   <v type="int" >        2       12       20       21       65 </v>
   <v type="int" >        2       11       12       20       65 </v>
   <v type="int" >        2       11       12       56       65 </v>
   <v type="int" >        2       12       21       65       66 </v>
   <v type="int" >        2       12       57       65       66 </v>
   <v type="int" >        2       12       56       57       65 </v>
   <v type="int" >        2       13       21       22       66 </v>
   <v type="int" >        2       12       13       21       66 </v>
   <v type="int" >        2       12       13       57       66 </v>
   <v type="int" >        2       13       22       66       67 </v>
   <v type="int" >        2       13       58       66       67 </v>
   <v type="int" >        2       13       57       58       66 </v>
   <v type="int" >        2       14       22       23       67 </v>
   <v type="int" >        2       13       14       22       67 </v>
   <v type="int" >        2       13       14       58       67 </v>
   <v type="int" >        2       14       23       67       68 </v>
   <v type="int" >        2       14       59       67       68 </v>
   <v type="int" >        2       14       58       59       67 </v>
   <v type="int" >        2        6       15       23       68 </v>
   <v type="int" >        2        6       14       23       68 </v>
   <v type="int" >        2        6       14       59       68 </v>
   <v type="int" >        2        6       15       60       68 </v>
   <v type="int" >        2        6       51       60       68 </v>
   <v type="int" >        2        6       51       59       68 </v>
   <v type="int" >        2       16       24       25       69 </v>
   <v type="int" >        2       15       16       24       69 </v>
   <v type="int" >        2       15       16       60       69 </v>
   <v type="int" >        2       16       25       69       70 </v>
   <v type="int" >        2       16       61       69       70 </v>
   <v type="int" >        2       16       60       61       69 </v>
   <v type="int" >        2       17       25       26       70 </v>
   <v type="int" >        2       16       17       25       70 </v>
   <v type="int" >        2       16       17       61       70 </v>
   <v type="int" >        2       17       26       70       71 </v>
   <v type="int" >        2       17       62       70       71 </v>
   <v type="int" >        2       17       61       62       70 </v>
   <v type="int" >        2       18       26       27       71 </v>
   <v type="int" >        2       17       18       26       71 </v>
   <v type="int" >        2       17       18       62       71 </v>
   <v type="int" >        2       18       27       71       72 </v>
   <v type="int" >        2       18       63       71       72 </v>
   <v type="int" >        2       18       62       63       71 </v>
   <v type="int" >        2       19       27       28       72 </v>
   <v type="int" >        2       18       19       27       72 </v>
   <v type="int" >        2       18       19       63       72 </v>
   <v type="int" >        2       19       28       72       73 </v>
   <v type="int" >        2       19       64       72       73 </v>
   <v type="int" >        2       19       63       64       72 </v>
   <v type="int" >        2       20       28       29       73 </v>
   <v type="int" >        2       19       20       28       73 </v>
   <v type="int" >        2       19       20       64       73 </v>
   <v type="int" >        2       20       29       73       74 </v>
   <v type="int" >        2       20       65       73       74 </v>
   <v type="int" >        2       20       64       65       73 </v>
   <v type="int" >        2       21       29       30       74 </v>
   <v type="int" >        2       20       21       29       74 </v>
   <v type="int" >        2       20       21       65       74 </v>
   <v type="int" >        2       21       30       74       75 </v>
   <v type="int" >        2       21       66       74       75 </v>
   <v type="int" >        2       21       65       66       74 </v>
   <v type="int" >        2       22       30       31       75 </v>
   <v type="int" >        2       21       22       30       75 </v>
   <v type="int" >        2       21       22       66       75 </v>
   <v type="int" >        2       22       31       75       76 </v>
   <v type="int" >        2       22       67       75       76 </v>
   <v type="int" >        2       22       66       67       75 </v>
   <v type="int" >        2       23       31       32       76 </v>
   <v type="int" >        2       22       23       31       76 </v>
   <v type="int" >        2       22       23       67       76 </v>
   <v type="int" >        2       23       32       76       77 </v>
   <v type="int" >        2       23       68       76       77 </v>
   <v type="int" >        2       23       67       68       76 </v>
   <v type="int" >        2       15       24       32       77 </v>
   <v type="int" >        2       15       23       32       77 </v>
   <v type="int" >        2       15       23       68       77 </v>
   <v type="int" >        2       15       24       69       77 </v>
   <v type="int" >        2       15       60       69       77 </v>
   <v type="int" >        2       15       60       68       77 </v>
   <v type="int" >        2       25       33       34       78 </v>
   <v type="int" >        2       24       25       33       78 </v>
   <v type="int" >        2       24       25       69       78 </v>
   <v type="int" >        2       25       34       78       79 </v>
   <v type="int" >        2       25       70       78       79 </v>
   <v type="int" >        2       25       69       70       78 </v>
   <v type="int" >        2       26       34       35       79 </v>
   <v type="int" >        2       25       26       34       79 </v>
   <v type="int" >        2       25       26       70       79 </v>
   <v type="int" >        2       26       35       79       80 </v>
   <v type="int" >        2       26       71       79       80 </v>
   <v type="int" >        2       26       70       71       79 </v>
   <v type="int" >        2       27       35       36       80 </v>
   <v type="int" >        2       26       27       35       80 </v>
   <v type="int" >        2       26       27       71       80 </v>
   <v type="int" >        2       27       36       80       81 </v>
   <v type="int" >        2       27       72       80       81 </v>
   <v type="int" >        2       27       71       72       80 </v>
   <v type="int" >        2       28       36       37       81 </v>
   <v type="int" >        2       27       28       36       81 </v>
   <v type="int" >        2       27       28       72       81 </v>
   <v type="int" >        2       28       37       81       82 </v>
   <v type="int" >        2       28       73       81       82 </v>
   <v type="int" >        2       28       72       73       81 </v>
   <v type="int" >        2       29       37       38       82 </v>
   <v type="int" >        2       28       29       37       82 </v>
   <v type="int" >        2       28       29       73       82 </v>
   <v type="int" >        2       29       38       82       83 </v>
   <v type="int" >        2       29       74       82       83 </v>
   <v type="int" >        2       29       73       74       82 </v>
   <v type="int" >        2       30       38       39       83 </v>
   <v type="int" >        2       29       30       38       83 </v>
   <v type="int" >        2       29       30       74       83 </v>
   <v type="int" >        2       30       39       83       84 </v>
   <v type="int" >        2       30       75       83       84 </v>
   <v type="int" >        2       30       74       75       83 </v>
   <v type="int" >        2       31       39       40       84 </v>
   <v type="int" >        2       30       31       39       84 </v>
   <v type="int" >        2       30       31       75       84 </v>
   <v type="int" >        2       31       40       84       85 </v>
   <v type="int" >        2       31       76       84       85 </v>
   <v type="int" >        2       31       75       76       84 </v>
   <v type="int" >        2       32       40       41       85 </v>
   <v type="int" >        2       31       32       40       85 </v>
   <v type="int" >        2       31       32       76       85 </v>
   <v type="int" >        2       32       41       85       86 </v>
   <v type="int" >        2       32       77       85       86 </v>
   <v type="int" >        2       32       76       77       85 </v>
   <v type="int" >        2       24       33       41       86 </v>
   <v type="int" >        2       24       32       41       86 </v>
   <v type="int" >        2       24       32       77       86 </v>
   <v type="int" >        2       24       33       78       86 </v>
   <v type="int" >        2       24       69       78       86 </v>
   <v type="int" >        2       24       69       77       86 </v>
   <v type="int" >        2       33       34       41       87 </v>
   <v type="int" >        2       33       33       34       87 </v>
   <v type="int" >        2       33       34       78       87 </v>
   <v type="int" >        2       34       41       87       88 </v>
   <v type="int" >        2       34       79       87       88 </v>
   <v type="int" >        2       34       78       79       87 </v>
   <v type="int" >        2       35       40       41       88 </v>
   <v type="int" >        2       34       35       41       88 </v>
   <v type="int" >        2       34       35       79       88 </v>
   <v type="int" >        2       35       40       88       89 </v>
   <v type="int" >        2       35       80       88       89 </v>
   <v type="int" >        2       35       79       80       88 </v>
   <v type="int" >        2       36       39       40       89 </v>
   <v type="int" >        2       35       36       40       89 </v>
   <v type="int" >        2       35       36       80       89 </v>
   <v type="int" >        2       36       39       89       90 </v>
   <v type="int" >        2       36       81       89       90 </v>
   <v type="int" >        2       36       80       81       89 </v>
   <v type="int" >        2       37       38       39       90 </v>
   <v type="int" >        2       36       37       39       90 </v>
   <v type="int" >        2       36       37       81       90 </v>
   <v type="int" >        2       37       38       90       91 </v>
   <v type="int" >        2       37       82       90       91 </v>
   <v type="int" >        2       37       81       82       90 </v>
   <v type="int" >        4       37       38       38       91 </v>
   <v type="int" >        2       37       38       82       91 </v>
   <v type="int" >        2       37       38       91       92 </v>
   <v type="int" >        2       38       83       91       92 </v>
   <v type="int" >        2       38       82       83       91 </v>
   <v type="int" >        2       36       37       39       92 </v>
   <v type="int" >        2       37       38       39       92 </v>
   <v type="int" >        2       38       39       83       92 </v>
   <v type="int" >        2       36       39       92       93 </v>
   <v type="int" >        2       39       84       92       93 </v>
   <v type="int" >        2       39       83       84       92 </v>
   <v type="int" >        2       35       36       40       93 </v>
   <v type="int" >        2       36       39       40       93 </v>
   <v type="int" >        2       39       40       84       93 </v>
   <v type="int" >        2       35       40       93       94 </v>
   <v type="int" >        2       40       85       93       94 </v>
   <v type="int" >        2       40       84       85       93 </v>
   <v type="int" >        2       34       35       41       94 </v>
   <v type="int" >        2       35       40       41       94 </v>
   <v type="int" >        2       40       41       85       94 </v>
   <v type="int" >        2       34       41       94       95 </v>
   <v type="int" >        2       41       86       94       95 </v>
   <v type="int" >        2       41       85       86       94 </v>
   <v type="int" >        2       33       33       34       95 </v>
   <v type="int" >        2       33       34       41       95 </v>
   <v type="int" >        2       33       41       86       95 </v>
   <v type="int" >        2       33       33       87       95 </v>
   <v type="int" >        2       33       78       87       95 </v>
   <v type="int" >        2       33       78       86       95 </v>
   <v type="int" >        2       24       32       41       96 </v>
   <v type="int" >        2       24       33       41       96 </v>
   <v type="int" >        2       33       41       87       96 </v>
   <v type="int" >        2       32       41       96       97 </v>
   <v type="int" >        2       41       88       96       97 </v>
   <v type="int" >        2       41       87       88       96 </v>
   <v type="int" >        2       31       32       40       97 </v>
   <v type="int" >        2       32       40       41       97 </v>
   <v type="int" >        2       40       41       88       97 </v>
   <v type="int" >        2       31       40       97       98 </v>
   <v type="int" >        2       40       89       97       98 </v>
   <v type="int" >        2       40       88       89       97 </v>
   <v type="int" >        2       30       31       39       98 </v>
   <v type="int" >        2       31       39       40       98 </v>
   <v type="int" >        2       39       40       89       98 </v>
   <v type="int" >        2       30       39       98       99 </v>
   <v type="int" >        2       39       90       98       99 </v>
   <v type="int" >        2       39       89       90       98 </v>
   <v type="int" >        2       29       30       38       99 </v>
   <v type="int" >        2       30       38       39       99 </v>
   <v type="int" >        2       38       39       90       99 </v>
   <v type="int" >        2       29       38       99      100 </v>
   <v type="int" >        2       38       91       99      100 </v>
   <v type="int" >        2       38       90       91       99 </v>
   <v type="int" >        2       28       29       37      100 </v>
   <v type="int" >        2       29       37       38      100 </v>
   <v type="int" >        2       37       38       91      100 </v>
   <v type="int" >        2       28       37      100      101 </v>
   <v type="int" >        2       37       92      100      101 </v>
   <v type="int" >        2       37       91       92      100 </v>
   <v type="int" >        2       27       28       36      101 </v>
   <v type="int" >        2       28       36       37      101 </v>
   <v type="int" >        2       36       37       92      101 </v>
   <v type="int" >        2       27       36      101      102 </v>
   <v type="int" >        2       36       93      101      102 </v>
   <v type="int" >        2       36       92       93      101 </v>
   <v type="int" >        2       26       27       35      102 </v>
   <v type="int" >        2       27       35       36      102 </v>
   <v type="int" >        2       35       36       93      102 </v>
   <v type="int" >        2       26       35      102      103 </v>
   <v type="int" >        2       35       94      102      103 </v>
   <v type="int" >        2       35       93       94      102 </v>
   <v type="int" >        2       25       26       34      103 </v>
   <v type="int" >        2       26       34       35      103 </v>
   <v type="int" >        2       34       35       94      103 </v>
   <v type="int" >        2       25       34      103      104 </v>
   <v type="int" >        2       34       95      103      104 </v>
   <v type="int" >        2       34       94       95      103 </v>
   <v type="int" >        2       24       25       33      104 </v>
   <v type="int" >        2       25       33       34      104 </v>
   <v type="int" >        2       33       34       95      104 </v>
   <v type="int" >        2       24       33       96      104 </v>
   <v type="int" >        2       33       87       96      104 </v>
   <v type="int" >        2       33       87       95      104 </v>
   <v type="int" >        2       15       23       32      105 </v>
   <v type="int" >        2       15       24       32      105 </v>
   <v type="int" >        2       24       32       96      105 </v>
   <v type="int" >        2       23       32      105      106 </v>
   <v type="int" >        2       32       97      105      106 </v>
   <v type="int" >        2       32       96       97      105 </v>
   <v type="int" >        2       22       23       31      106 </v>
   <v type="int" >        2       23       31       32      106 </v>
   <v type="int" >        2       31       32       97      106 </v>
   <v type="int" >        2       22       31      106      107 </v>
   <v type="int" >        2       31       98      106      107 </v>
   <v type="int" >        2       31       97       98      106 </v>
   <v type="int" >        2       21       22       30      107 </v>
   <v type="int" >        2       22       30       31      107 </v>
   <v type="int" >        2       30       31       98      107 </v>
   <v type="int" >        2       21       30      107      108 </v>
   <v type="int" >        2       30       99      107      108 </v>
   <v type="int" >        2       30       98       99      107 </v>
   <v type="int" >        2       20       21       29      108 </v>
   <v type="int" >        2       21       29       30      108 </v>
   <v type="int" >        2       29       30       99      108 </v>
   <v type="int" >        2       20       29      108      109 </v>
   <v type="int" >        2       29      100      108      109 </v>
   <v type="int" >        2       29       99      100      108 </v>
   <v type="int" >        2       19       20       28      109 </v>
   <v type="int" >        2       20       28       29      109 </v>
   <v type="int" >        2       28       29      100      109 </v>
   <v type="int" >        2       19       28      109      110 </v>
   <v type="int" >        2       28      101      109      110 </v>
   <v type="int" >        2       28      100      101      109 </v>
   <v type="int" >        2       18       19       27      110 </v>
   <v type="int" >        2       19       27       28      110 </v>
   <v type="int" >        2       27       28      101      110 </v>
   <v type="int" >        2       18       27      110      111 </v>
   <v type="int" >        2       27      102      110      111 </v>
   <v type="int" >        2       27      101      102      110 </v>
   <v type="int" >        2       17       18       26      111 </v>
   <v type="int" >        2       18       26       27      111 </v>
   <v type="int" >        2       26       27      102      111 </v>
   <v type="int" >        2       17       26      111      112 </v>
   <v type="int" >        2       26      103      111      112 </v>
   <v type="int" >        2       26      102      103      111 </v>
   <v type="int" >        2       16       17       25      112 </v>
   <v type="int" >        2       17       25       26      112 </v>
   <v type="int" >        2       25       26      103      112 </v>
   <v type="int" >        2       16       25      112      113 </v>
   <v type="int" >        2       25      104      112      113 </v>
   <v type="int" >        2       25      103      104      112 </v>
   <v type="int" >        2       15       16       24      113 </v>
   <v type="int" >        2       16       24       25      113 </v>
   <v type="int" >        2       24       25      104      113 </v>
   <v type="int" >        2       15       24      105      113 </v>
   <v type="int" >        2       24       96      105      113 </v>
   <v type="int" >        2       24       96      104      113 </v>
   <v type="int" >        2        6       14       23      114 </v>
   <v type="int" >        2        6       15       23      114 </v>
   <v type="int" >        2       15       23      105      114 </v>
   <v type="int" >        2       14       23      114      115 </v>
   <v type="int" >        2       23      106      114      115 </v>
   <v type="int" >        2       23      105      106      114 </v>
   <v type="int" >        2       13       14       22      115 </v>
   <v type="int" >        2       14       22       23      115 </v>
   <v type="int" >        2       22       23      106      115 </v>
   <v type="int" >        2       13       22      115      116 </v>
   <v type="int" >        2       22      107      115      116 </v>
   <v type="int" >        2       22      106      107      115 </v>
   <v type="int" >        2       12       13       21      116 </v>
   <v type="int" >        2       13       21       22      116 </v>
   <v type="int" >        2       21       22      107      116 </v>
   <v type="int" >        2       12       21      116      117 </v>
   <v type="int" >        2       21      108      116      117 </v>
   <v type="int" >        2       21      107      108      116 </v>
   <v type="int" >        2       11       12       20      117 </v>
   <v type="int" >        2       12       20       21      117 </v>
   <v type="int" >        2       20       21      108      117 </v>
   <v type="int" >        2       11       20      117      118 </v>
   <v type="int" >        2       20      109      117      118 </v>
   <v type="int" >        2       20      108      109      117 </v>
   <v type="int" >        2       10       11       19      118 </v>
   <v type="int" >        2       11       19       20      118 </v>
   <v type="int" >        2       19       20      109      118 </v>
   <v type="int" >        2       10       19      118      119 </v>
   <v type="int" >        2       19      110      118      119 </v>
   <v type="int" >        2       19      109      110      118 </v>
   <v type="int" >        2        9       10       18      119 </v>
   <v type="int" >        2       10       18       19      119 </v>
   <v type="int" >        2       18       19      110      119 </v>
   <v type="int" >        2        9       18      119      120 </v>
   <v type="int" >        2       18      111      119      120 </v>
   <v type="int" >        2       18      110      111      119 </v>
   <v type="int" >        2        8        9       17      120 </v>
   <v type="int" >        2        9       17       18      120 </v>
   <v type="int" >        2       17       18      111      120 </v>
   <v type="int" >        2        8       17      120      121 </v>
   <v type="int" >        2       17      112      120      121 </v>
   <v type="int" >        2       17      111      112      120 </v>
   <v type="int" >        2        7        8       16      121 </v>
   <v type="int" >        2        8       16       17      121 </v>
   <v type="int" >        2       16       17      112      121 </v>
   <v type="int" >        2        7       16      121      122 </v>
   <v type="int" >        2       16      113      121      122 </v>
   <v type="int" >        2       16      112      113      121 </v>
   <v type="int" >        2        6        7       15      122 </v>
   <v type="int" >        2        7       15       16      122 </v>
   <v type="int" >        2       15       16      113      122 </v>
   <v type="int" >        2        6       15      114      122 </v>
   <v type="int" >        2       15      105      114      122 </v>
   <v type="int" >        2       15      105      113      122 </v>
   <v type="int" >        2        1        2       14       42 </v>
   <v type="int" >        2        1        6       14       42 </v>
   <v type="int" >        2        6       14       42      114 </v>
   <v type="int" >        2        2       14       42       43 </v>
   <v type="int" >        2       14       42       43      115 </v>
   <v type="int" >        2       14       42      114      115 </v>
   <v type="int" >        2        2        3       13       43 </v>
   <v type="int" >        2        2       13       14       43 </v>
   <v type="int" >        2       13       14       43      115 </v>
   <v type="int" >        2        3       13       43       44 </v>
   <v type="int" >        2       13       43       44      116 </v>
   <v type="int" >        2       13       43      115      116 </v>
   <v type="int" >        2        3        4       12       44 </v>
   <v type="int" >        2        3       12       13       44 </v>
   <v type="int" >        2       12       13       44      116 </v>
   <v type="int" >        2        4       12       44       45 </v>
   <v type="int" >        2       12       44       45      117 </v>
   <v type="int" >        2       12       44      116      117 </v>
   <v type="int" >        2        4        5       11       45 </v>
   <v type="int" >        2        4       11       12       45 </v>
   <v type="int" >        2       11       12       45      117 </v>
   <v type="int" >        2        5       11       45       46 </v>
   <v type="int" >        2       11       45       46      118 </v>
   <v type="int" >        2       11       45      117      118 </v>
   <v type="int" >        2        5        5       10       46 </v>
   <v type="int" >        2        5       10       11       46 </v>
   <v type="int" >        2       10       11       46      118 </v>
   <v type="int" >        2        5       10       46       47 </v>
   <v type="int" >        2       10       46       47      119 </v>
   <v type="int" >        2       10       46      118      119 </v>
   <v type="int" >        2        4        5        9       47 </v>
   <v type="int" >        2        5        9       10       47 </v>
   <v type="int" >        2        9       10       47      119 </v>
   <v type="int" >        2        4        9       47       48 </v>
   <v type="int" >        2        9       47       48      120 </v>
   <v type="int" >        2        9       47      119      120 </v>
   <v type="int" >        2        3        4        8       48 </v>
   <v type="int" >        2        4        8        9       48 </v>
   <v type="int" >        2        8        9       48      120 </v>
   <v type="int" >        2        3        8       48       49 </v>
   <v type="int" >        2        8       48       49      121 </v>
   <v type="int" >        2        8       48      120      121 </v>
   <v type="int" >        2        2        3        7       49 </v>
   <v type="int" >        2        3        7        8       49 </v>
   <v type="int" >        2        7        8       49      121 </v>
   <v type="int" >        2        2        7       49       50 </v>
   <v type="int" >        2        7       49       50      122 </v>
   <v type="int" >        2        7       49      121      122 </v>
   <v type="int" >        2        1        2        6       50 </v>
   <v type="int" >        2        2        6        7       50 </v>
   <v type="int" >        2        6        7       50      122 </v>
   <v type="int" >        2        1        6       42       50 </v>
   <v type="int" >        2        6       42       50      114 </v>
   <v type="int" >        2        6       50      114      122 </v>
   <v type="int" >        2       43       51       52      128 </v>
   <v type="int" >        2       42       43       51      128 </v>
   <v type="int" >        2       42       43      123      128 </v>
   <v type="int" >        2       43       52      128      129 </v>
   <v type="int" >        2       43      124      128      129 </v>
   <v type="int" >        2       43      123      124      128 </v>
   <v type="int" >        2       44       52       53      129 </v>
   <v type="int" >        2       43       44       52      129 </v>
   <v type="int" >        2       43       44      124      129 </v>
   <v type="int" >        2       44       53      129      130 </v>
   <v type="int" >        2       44      125      129      130 </v>
   <v type="int" >        2       44      124      125      129 </v>
   <v type="int" >        2       45       53       54      130 </v>
   <v type="int" >        2       44       45       53      130 </v>
   <v type="int" >        2       44       45      125      130 </v>
   <v type="int" >        2       45       54      130      131 </v>
   <v type="int" >        2       45      126      130      131 </v>
   <v type="int" >        2       45      125      126      130 </v>
   <v type="int" >        2       46       54       55      131 </v>
   <v type="int" >        2       45       46       54      131 </v>
   <v type="int" >        2       45       46      126      131 </v>
   <v type="int" >        2       46       55      131      132 </v>
   <v type="int" >        2       46      127      131      132 </v>
   <v type="int" >        2       46      126      127      131 </v>
   <v type="int" >        2       47       55       56      132 </v>
   <v type="int" >        2       46       47       55      132 </v>
   <v type="int" >        2       46       47      127      132 </v>
   <v type="int" >        2       47       56      132      133 </v>
   <v type="int" >        2       47      127      132      133 </v>
   <v type="int" >        2       47      127      127      132 </v>
   <v type="int" >        2       48       56       57      133 </v>
   <v type="int" >        2       47       48       56      133 </v>
   <v type="int" >        2       47       48      127      133 </v>
   <v type="int" >        2       48       57      133      134 </v>
   <v type="int" >        2       48      126      133      134 </v>
   <v type="int" >        2       48      126      127      133 </v>
   <v type="int" >        2       49       57       58      134 </v>
   <v type="int" >        2       48       49       57      134 </v>
   <v type="int" >        2       48       49      126      134 </v>
   <v type="int" >        2       49       58      134      135 </v>
   <v type="int" >        2       49      125      134      135 </v>
   <v type="int" >        2       49      125      126      134 </v>
   <v type="int" >        2       50       58       59      135 </v>
   <v type="int" >        2       49       50       58      135 </v>
   <v type="int" >        2       49       50      125      135 </v>
   <v type="int" >        2       50       59      135      136 </v>
   <v type="int" >        2       50      124      135      136 </v>
   <v type="int" >        2       50      124      125      135 </v>
   <v type="int" >        2       42       51       59      136 </v>
   <v type="int" >        2       42       50       59      136 </v>
   <v type="int" >        2       42       50      124      136 </v>
   <v type="int" >        2       42       51      128      136 </v>
   <v type="int" >        2       42      123      128      136 </v>
   <v type="int" >        2       42      123      124      136 </v>
   <v type="int" >        2       52       60       61      137 </v>
   <v type="int" >        2       51       52       60      137 </v>
   <v type="int" >        2       51       52      128      137 </v>
   <v type="int" >        2       52       61      137      138 </v>
   <v type="int" >        2       52      129      137      138 </v>
   <v type="int" >        2       52      128      129      137 </v>
   <v type="int" >        2       53       61       62      138 </v>
   <v type="int" >        2       52       53       61      138 </v>
   <v type="int" >        2       52       53      129      138 </v>
   <v type="int" >        2       53       62      138      139 </v>
   <v type="int" >        2       53      130      138      139 </v>
   <v type="int" >        2       53      129      130      138 </v>
   <v type="int" >        2       54       62       63      139 </v>
   <v type="int" >        2       53       54       62      139 </v>
   <v type="int" >        2       53       54      130      139 </v>
   <v type="int" >        2       54       63      139      140 </v>
   <v type="int" >        2       54      131      139      140 </v>
   <v type="int" >        2       54      130      131      139 </v>
   <v type="int" >        2       55       63       64      140 </v>
   <v type="int" >        2       54       55       63      140 </v>
   <v type="int" >        2       54       55      131      140 </v>
   <v type="int" >        2       55       64      140      141 </v>
   <v type="int" >        2       55      132      140      141 </v>
   <v type="int" >        2       55      131      132      140 </v>
   <v type="int" >        2       56       64       65      141 </v>
   <v type="int" >        2       55       56       64      141 </v>
   <v type="int" >        2       55       56      132      141 </v>
   <v type="int" >        2       56       65      141      142 </v>
   <v type="int" >        2       56      133      141      142 </v>
   <v type="int" >        2       56      132      133      141 </v>
   <v type="int" >        2       57       65       66      142 </v>
   <v type="int" >        2       56       57       65      142 </v>
   <v type="int" >        2       56       57      133      142 </v>
   <v type="int" >        2       57       66      142      143 </v>
   <v type="int" >        2       57      134      142      143 </v>
   <v type="int" >        2       57      133      134      142 </v>
   <v type="int" >        2       58       66       67      143 </v>
   <v type="int" >        2       57       58       66      143 </v>
   <v type="int" >        2       57       58      134      143 </v>
   <v type="int" >        2       58       67      143      144 </v>
   <v type="int" >        2       58      135      143      144 </v>
   <v type="int" >        2       58      134      135      143 </v>
   <v type="int" >        2       59       67       68      144 </v>
   <v type="int" >        2       58       59       67      144 </v>
   <v type="int" >        2       58       59      135      144 </v>
   <v type="int" >        2       59       68      144      145 </v>
   <v type="int" >        2       59      136      144      145 </v>
   <v type="int" >        2       59      135      136      144 </v>
   <v type="int" >        2       51       60       68      145 </v>
   <v type="int" >        2       51       59       68      145 </v>
   <v type="int" >        2       51       59      136      145 </v>
   <v type="int" >        2       51       60      137      145 </v>
   <v type="int" >        2       51      128      137      145 </v>
   <v type="int" >        2       51      128      136      145 </v>
   <v type="int" >        2       61       69       70      146 </v>
   <v type="int" >        2       60       61       69      146 </v>
   <v type="int" >        2       60       61      137      146 </v>
   <v type="int" >        2       61       70      146      147 </v>
   <v type="int" >        2       61      138      146      147 </v>
   <v type="int" >        2       61      137      138      146 </v>
   <v type="int" >        2       62       70       71      147 </v>
   <v type="int" >        2       61       62       70      147 </v>
   <v type="int" >        2       61       62      138      147 </v>
   <v type="int" >        2       62       71      147      148 </v>
   <v type="int" >        2       62      139      147      148 </v>
   <v type="int" >        2       62      138      139      147 </v>
   <v type="int" >        2       63       71       72      148 </v>
   <v type="int" >        2       62       63       71      148 </v>
   <v type="int" >        2       62       63      139      148 </v>
   <v type="int" >        2       63       72      148      149 </v>
   <v type="int" >        2       63      140      148      149 </v>
   <v type="int" >        2       63      139      140      148 </v>
   <v type="int" >        2       64       72       73      149 </v>
   <v type="int" >        2       63       64       72      149 </v>
   <v type="int" >        2       63       64      140      149 </v>
   <v type="int" >        2       64       73      149      150 </v>
   <v type="int" >        2       64      141      149      150 </v>
   <v type="int" >        2       64      140      141      149 </v>
   <v type="int" >        2       65       73       74      150 </v>
   <v type="int" >        2       64       65       73      150 </v>
   <v type="int" >        2       64       65      141      150 </v>
   <v type="int" >        2       65       74      150      151 </v>
   <v type="int" >        2       65      142      150      151 </v>
   <v type="int" >        2       65      141      142      150 </v>
   <v type="int" >        2       66       74       75      151 </v>
   <v type="int" >        2       65       66       74      151 </v>
   <v type="int" >        2       65       66      142      151 </v>
   <v type="int" >        2       66       75      151      152 </v>
   <v type="int" >        2       66      143      151      152 </v>
   <v type="int" >        2       66      142      143      151 </v>
   <v type="int" >        2       67       75       76      152 </v>
   <v type="int" >        2       66       67       75      152 </v>
   <v type="int" >        2       66       67      143      152 </v>
   <v type="int" >        2       67       76      152      153 </v>
   <v type="int" >        2       67      144      152      153 </v>
   <v type="int" >        2       67      143      144      152 </v>
   <v type="int" >        2       68       76       77      153 </v>
   <v type="int" >        2       67       68       76      153 </v>
   <v type="int" >        2       67       68      144      153 </v>
   <v type="int" >        2       68       77      153      154 </v>
   <v type="int" >        2       68      145      153      154 </v>
   <v type="int" >        2       68      144      145      153 </v>
   <v type="int" >        2       60       69       77      154 </v>
   <v type="int" >        2       60       68       77      154 </v>
   <v type="int" >        2       60       68      145      154 </v>
   <v type="int" >        2       60       69      146      154 </v>
   <v type="int" >        2       60      137      146      154 </v>
   <v type="int" >        2       60      137      145      154 </v>
   <v type="int" >        2       70       78       79      155 </v>
   <v type="int" >        2       69       70       78      155 </v>
   <v type="int" >        2       69       70      146      155 </v>
   <v type="int" >        2       70       79      155      156 </v>
   <v type="int" >        2       70      147      155      156 </v>
   <v type="int" >        2       70      146      147      155 </v>
   <v type="int" >        2       71       79       80      156 </v>
   <v type="int" >        2       70       71       79      156 </v>
   <v type="int" >        2       70       71      147      156 </v>
   <v type="int" >        2       71       80      156      157 </v>
   <v type="int" >        2       71      148      156      157 </v>
   <v type="int" >        2       71      147      148      156 </v>
   <v type="int" >        2       72       80       81      157 </v>
   <v type="int" >        2       71       72       80      157 </v>
   <v type="int" >        2       71       72      148      157 </v>
   <v type="int" >        2       72       81      157      158 </v>
   <v type="int" >        2       72      149      157      158 </v>
   <v type="int" >        2       72      148      149      157 </v>
   <v type="int" >        2       73       81       82      158 </v>
   <v type="int" >        2       72       73       81      158 </v>
   <v type="int" >        2       72       73      149      158 </v>
   <v type="int" >        2       73       82      158      159 </v>
   <v type="int" >        2       73      150      158      159 </v>
   <v type="int" >        2       73      149      150      158 </v>
   <v type="int" >        2       74       82       83      159 </v>
   <v type="int" >        2       73       74       82      159 </v>
   <v type="int" >        2       73       74      150      159 </v>
   <v type="int" >        2       74       83      159      160 </v>
   <v type="int" >        2       74      151      159      160 </v>
   <v type="int" >        2       74      150      151      159 </v>
   <v type="int" >        2       75       83       84      160 </v>
   <v type="int" >        2       74       75       83      160 </v>
   <v type="int" >        2       74       75      151      160 </v>
   <v type="int" >        2       75       84      160      161 </v>
   <v type="int" >        2       75      152      160      161 </v>
   <v type="int" >        2       75      151      152      160 </v>
   <v type="int" >        2       76       84       85      161 </v>
   <v type="int" >        2       75       76       84      161 </v>
   <v type="int" >        2       75       76      152      161 </v>
   <v type="int" >        2       76       85      161      162 </v>
   <v type="int" >        2       76      153      161      162 </v>
   <v type="int" >        2       76      152      153      161 </v>
   <v type="int" >        2       77       85       86      162 </v>
   <v type="int" >        2       76       77       85      162 </v>
   <v type="int" >        2       76       77      153      162 </v>
   <v type="int" >        2       77       86      162      163 </v>
   <v type="int" >        2       77      154      162      163 </v>
   <v type="int" >        2       77      153      154      162 </v>
   <v type="int" >        2       69       78       86      163 </v>
   <v type="int" >        2       69       77       86      163 </v>
   <v type="int" >        2       69       77      154      163 </v>
   <v type="int" >        2       69       78      155      163 </v>
   <v type="int" >        2       69      146      155      163 </v>
   <v type="int" >        2       69      146      154      163 </v>
   <v type="int" >        2       79       87       88      155 </v>
   <v type="int" >        2       78       79       87      155 </v>
   <v type="int" >        2       78       79      155      155 </v>
   <v type="int" >        2       79       88      155      163 </v>
   <v type="int" >        2       79      155      156      163 </v>
   <v type="int" >        2       79      155      155      156 </v>
   <v type="int" >        2       80       88       89      163 </v>
   <v type="int" >        2       79       80       88      163 </v>
   <v type="int" >        2       79       80      156      163 </v>
   <v type="int" >        2       80       89      162      163 </v>
   <v type="int" >        2       80      157      162      163 </v>
   <v type="int" >        2       80      156      157      163 </v>
   <v type="int" >        2       81       89       90      162 </v>
   <v type="int" >        2       80       81       89      162 </v>
   <v type="int" >        2       80       81      157      162 </v>
   <v type="int" >        2       81       90      161      162 </v>
   <v type="int" >        2       81      158      161      162 </v>
   <v type="int" >        2       81      157      158      162 </v>
   <v type="int" >        2       82       90       91      161 </v>
   <v type="int" >        2       81       82       90      161 </v>
   <v type="int" >        2       81       82      158      161 </v>
   <v type="int" >        2       82       91      160      161 </v>
   <v type="int" >        2       82      159      160      161 </v>
   <v type="int" >        2       82      158      159      161 </v>
   <v type="int" >        2       83       91       92      160 </v>
   <v type="int" >        2       82       83       91      160 </v>
   <v type="int" >        2       82       83      159      160 </v>
   <v type="int" >        2       83       92      159      160 </v>
   <v type="int" >        4       83      159      160      160 </v>
   <v type="int" >        2       84       92       93      159 </v>
   <v type="int" >        2       83       84       92      159 </v>
   <v type="int" >        2       83       84      159      160 </v>
   <v type="int" >        2       84       93      158      159 </v>
   <v type="int" >        2       84      158      159      161 </v>
   <v type="int" >        2       84      159      160      161 </v>
   <v type="int" >        2       85       93       94      158 </v>
   <v type="int" >        2       84       85       93      158 </v>
   <v type="int" >        2       84       85      158      161 </v>
   <v type="int" >        2       85       94      157      158 </v>
   <v type="int" >        2       85      157      158      162 </v>
   <v type="int" >        2       85      158      161      162 </v>
   <v type="int" >        2       86       94       95      157 </v>
   <v type="int" >        2       85       86       94      157 </v>
   <v type="int" >        2       85       86      157      162 </v>
   <v type="int" >        2       86       95      156      157 </v>
   <v type="int" >        2       86      156      157      163 </v>
   <v type="int" >        2       86      157      162      163 </v>
   <v type="int" >        2       78       87       95      156 </v>
   <v type="int" >        2       78       86       95      156 </v>
   <v type="int" >        2       78       86      156      163 </v>
   <v type="int" >        2       78       87      155      156 </v>
   <v type="int" >        2       78      155      155      156 </v>
   <v type="int" >        2       78      155      156      163 </v>
   <v type="int" >        2       88       96       97      146 </v>
   <v type="int" >        2       87       88       96      146 </v>
   <v type="int" >        2       87       88      146      155 </v>
   <v type="int" >        2       88       97      146      154 </v>
   <v type="int" >        2       88      146      154      163 </v>
   <v type="int" >        2       88      146      155      163 </v>
   <v type="int" >        2       89       97       98      154 </v>
   <v type="int" >        2       88       89       97      154 </v>
   <v type="int" >        2       88       89      154      163 </v>
   <v type="int" >        2       89       98      153      154 </v>
   <v type="int" >        2       89      153      154      162 </v>
   <v type="int" >        2       89      154      162      163 </v>
   <v type="int" >        2       90       98       99      153 </v>
   <v type="int" >        2       89       90       98      153 </v>
   <v type="int" >        2       89       90      153      162 </v>
   <v type="int" >        2       90       99      152      153 </v>
   <v type="int" >        2       90      152      153      161 </v>
   <v type="int" >        2       90      153      161      162 </v>
   <v type="int" >        2       91       99      100      152 </v>
   <v type="int" >        2       90       91       99      152 </v>
   <v type="int" >        2       90       91      152      161 </v>
   <v type="int" >        2       91      100      151      152 </v>
   <v type="int" >        2       91      151      152      160 </v>
   <v type="int" >        2       91      152      160      161 </v>
   <v type="int" >        2       92      100      101      151 </v>
   <v type="int" >        2       91       92      100      151 </v>
   <v type="int" >        2       91       92      151      160 </v>
   <v type="int" >        2       92      101      150      151 </v>
   <v type="int" >        2       92      150      151      159 </v>
   <v type="int" >        2       92      151      159      160 </v>
   <v type="int" >        2       93      101      102      150 </v>
   <v type="int" >        2       92       93      101      150 </v>
   <v type="int" >        2       92       93      150      159 </v>
   <v type="int" >        2       93      102      149      150 </v>
   <v type="int" >        2       93      149      150      158 </v>
   <v type="int" >        2       93      150      158      159 </v>
   <v type="int" >        2       94      102      103      149 </v>
   <v type="int" >        2       93       94      102      149 </v>
   <v type="int" >        2       93       94      149      158 </v>
   <v type="int" >        2       94      103      148      149 </v>
   <v type="int" >        2       94      148      149      157 </v>
   <v type="int" >        2       94      149      157      158 </v>
   <v type="int" >        2       95      103      104      148 </v>
   <v type="int" >        2       94       95      103      148 </v>
   <v type="int" >        2       94       95      148      157 </v>
   <v type="int" >        2       95      104      147      148 </v>
   <v type="int" >        2       95      147      148      156 </v>
   <v type="int" >        2       95      148      156      157 </v>
   <v type="int" >        2       87       96      104      147 </v>
   <v type="int" >        2       87       95      104      147 </v>
   <v type="int" >        2       87       95      147      156 </v>
   <v type="int" >        2       87       96      146      147 </v>
   <v type="int" >        2       87      146      147      155 </v>
   <v type="int" >        2       87      147      155      156 </v>
   <v type="int" >        2       97      105      106      137 </v>
   <v type="int" >        2       96       97      105      137 </v>
   <v type="int" >        2       96       97      137      146 </v>
   <v type="int" >        2       97      106      137      145 </v>
   <v type="int" >        2       97      137      145      154 </v>
   <v type="int" >        2       97      137      146      154 </v>
   <v type="int" >        2       98      106      107      145 </v>
   <v type="int" >        2       97       98      106      145 </v>
   <v type="int" >        2       97       98      145      154 </v>
   <v type="int" >        2       98      107      144      145 </v>
   <v type="int" >        2       98      144      145      153 </v>
   <v type="int" >        2       98      145      153      154 </v>
   <v type="int" >        2       99      107      108      144 </v>
   <v type="int" >        2       98       99      107      144 </v>
   <v type="int" >        2       98       99      144      153 </v>
   <v type="int" >        2       99      108      143      144 </v>
   <v type="int" >        2       99      143      144      152 </v>
   <v type="int" >        2       99      144      152      153 </v>
   <v type="int" >        2      100      108      109      143 </v>
   <v type="int" >        2       99      100      108      143 </v>
   <v type="int" >        2       99      100      143      152 </v>
   <v type="int" >        2      100      109      142      143 </v>
   <v type="int" >        2      100      142      143      151 </v>
   <v type="int" >        2      100      143      151      152 </v>
   <v type="int" >        2      101      109      110      142 </v>
   <v type="int" >        2      100      101      109      142 </v>
   <v type="int" >        2      100      101      142      151 </v>
   <v type="int" >        2      101      110      141      142 </v>
   <v type="int" >        2      101      141      142      150 </v>
   <v type="int" >        2      101      142      150      151 </v>
   <v type="int" >        2      102      110      111      141 </v>
   <v type="int" >        2      101      102      110      141 </v>
   <v type="int" >        2      101      102      141      150 </v>
   <v type="int" >        2      102      111      140      141 </v>
   <v type="int" >        2      102      140      141      149 </v>
   <v type="int" >        2      102      141      149      150 </v>
   <v type="int" >        2      103      111      112      140 </v>
   <v type="int" >        2      102      103      111      140 </v>
   <v type="int" >        2      102      103      140      149 </v>
   <v type="int" >        2      103      112      139      140 </v>
   <v type="int" >        2      103      139      140      148 </v>
   <v type="int" >        2      103      140      148      149 </v>
   <v type="int" >        2      104      112      113      139 </v>
   <v type="int" >        2      103      104      112      139 </v>
   <v type="int" >        2      103      104      139      148 </v>
   <v type="int" >        2      104      113      138      139 </v>
   <v type="int" >        2      104      138      139      147 </v>
   <v type="int" >        2      104      139      147      148 </v>
   <v type="int" >        2       96      105      113      138 </v>
   <v type="int" >        2       96      104      113      138 </v>
   <v type="int" >        2       96      104      138      147 </v>
   <v type="int" >        2       96      105      137      138 </v>
   <v type="int" >        2       96      137      138      146 </v>
   <v type="int" >        2       96      138      146      147 </v>
   <v type="int" >        2      106      114      115      128 </v>
   <v type="int" >        2      105      106      114      128 </v>
   <v type="int" >        2      105      106      128      137 </v>
   <v type="int" >        2      106      115      128      136 </v>
   <v type="int" >        2      106      128      136      145 </v>
   <v type="int" >        2      106      128      137      145 </v>
   <v type="int" >        2      107      115      116      136 </v>
   <v type="int" >        2      106      107      115      136 </v>
   <v type="int" >        2      106      107      136      145 </v>
   <v type="int" >        2      107      116      135      136 </v>
   <v type="int" >        2      107      135      136      144 </v>
   <v type="int" >        2      107      136      144      145 </v>
   <v type="int" >        2      108      116      117      135 </v>
   <v type="int" >        2      107      108      116      135 </v>
   <v type="int" >        2      107      108      135      144 </v>
   <v type="int" >        2      108      117      134      135 </v>
   <v type="int" >        2      108      134      135      143 </v>
   <v type="int" >        2      108      135      143      144 </v>
   <v type="int" >        2      109      117      118      134 </v>
   <v type="int" >        2      108      109      117      134 </v>
   <v type="int" >        2      108      109      134      143 </v>
   <v type="int" >        2      109      118      133      134 </v>
   <v type="int" >        2      109      133      134      142 </v>
   <v type="int" >        2      109      134      142      143 </v>
   <v type="int" >        2      110      118      119      133 </v>
   <v type="int" >        2      109      110      118      133 </v>
   <v type="int" >        2      109      110      133      142 </v>
   <v type="int" >        2      110      119      132      133 </v>
   <v type="int" >        2      110      132      133      141 </v>
   <v type="int" >        2      110      133      141      142 </v>
   <v type="int" >        2      111      119      120      132 </v>
   <v type="int" >        2      110      111      119      132 </v>
   <v type="int" >        2      110      111      132      141 </v>
   <v type="int" >        2      111      120      131      132 </v>
   <v type="int" >        2      111      131      132      140 </v>
   <v type="int" >        2      111      132      140      141 </v>
   <v type="int" >        2      112      120      121      131 </v>
   <v type="int" >        2      111      112      120      131 </v>
   <v type="int" >        2      111      112      131      140 </v>
   <v type="int" >        2      112      121      130      131 </v>
   <v type="int" >        2      112      130      131      139 </v>
   <v type="int" >        2      112      131      139      140 </v>
   <v type="int" >        2      113      121      122      130 </v>
   <v type="int" >        2      112      113      121      130 </v>
   <v type="int" >        2      112      113      130      139 </v>
   <v type="int" >        2      113      122      129      130 </v>
   <v type="int" >        2      113      129      130      138 </v>
   <v type="int" >        2      113      130      138      139 </v>
   <v type="int" >        2      105      114      122      129 </v>
   <v type="int" >        2      105      113      122      129 </v>
   <v type="int" >        2      105      113      129      138 </v>
   <v type="int" >        2      105      114      128      129 </v>
   <v type="int" >        2      105      128      129      137 </v>
   <v type="int" >        2      105      129      137      138 </v>
   <v type="int" >        2       42       43      115      123 </v>
   <v type="int" >        2       42      114      115      123 </v>
[...]
       <r>   -4.5951    1.0000 </r>
       <r>   -4.5947    1.0000 </r>
       <r>   -4.5391    1.0000 </r>
       <r>   -4.5387    1.0000 </r>
       <r>   -3.4055    1.0000 </r>
       <r>   -3.4038    1.0000 </r>
       <r>   -3.3681    1.0000 </r>
       <r>   -3.3662    1.0000 </r>
       <r>   -2.7062    1.0000 </r>
       <r>   -2.7053    1.0000 </r>
       <r>   -1.7419    1.0000 </r>
       <r>   -1.7403    1.0000 </r>
       <r>   -1.7090    1.0000 </r>
       <r>   -1.7076    1.0000 </r>
       <r>   -1.6704    1.0000 </r>
       <r>   -1.6696    1.0000 </r>
       <r>   -1.4942    1.0000 </r>
       <r>   -1.4940    1.0000 </r>
       <r>   -1.4691    1.0000 </r>
       <r>   -1.4689    1.0000 </r>
       <r>   -1.1840    1.0000 </r>
       <r>   -1.1832    1.0000 </r>
       <r>   -0.3660    1.0000 </r>
       <r>   -0.3644    1.0000 </r>
       <r>   -0.3468    1.0000 </r>
       <r>   -0.3452    1.0000 </r>
       <r>   -0.2295    1.0000 </r>
       <r>   -0.2286    1.0000 </r>
       <r>    0.2601    1.0000 </r>
       <r>    0.2609    1.0000 </r>
       <r>    1.1164    1.0000 </r>
       <r>    1.1174    1.0000 </r>
       <r>    2.1732    1.0000 </r>
       <r>    2.1742    1.0000 </r>
       <r>    2.7956    1.0000 </r>
       <r>    2.7968    1.0000 </r>
       <r>    5.8435    0.0000 </r>
       <r>    5.8458    0.0000 </r>
       <r>    6.1683    0.0000 </r>
       <r>    6.1699    0.0000 </r>
       <r>    7.8647    0.0000 </r>
       <r>    7.8663    0.0000 </r>
       <r>    8.2383    0.0000 </r>
       <r>    8.2396    0.0000 </r>
       <r>    9.7044    0.0000 </r>
       <r>    9.7069    0.0000 </r>
       <r>   10.0176    0.0000 </r>
       <r>   10.0194    0.0000 </r>
       <r>   10.1300    0.0000 </r>
       <r>   10.1321    0.0000 </r>
       <r>   11.5941    0.0000 </r>
       <r>   11.5972    0.0000 </r>
       <r>   12.3509    0.0000 </r>
       <r>   12.3516    0.0000 </r>
       <r>   12.5769    0.0000 </r>
       <r>   12.5789    0.0000 </r>
      </set>
     </set>
    </set>
   </array>
  </eigenvalues>
  <separator name="orbital magnetization" >
   <v name="MAGDIPOLOUT">      0.00000000      0.00000000      0.00000000</v>
  </separator>
  <dos>
   <i name="efermi">      4.27908648 </i>
   <total>
    <array>
     <dimension dim="1">gridpoints</dimension>
     <dimension dim="2">spin</dimension>
     <field>energy</field>
     <field>total</field>
     <field>integrated</field>
     <set>
      <set comment="spin 1">
       <r>   -17.3139     0.0000     0.0000 </r>
       <r>   -17.2058     0.0000     0.0000 </r>
       <r>   -17.0976     0.0000     0.0000 </r>
       <r>   -16.9895     0.0000     0.0000 </r>
       <r>   -16.8814     0.0000     0.0000 </r>
       <r>   -16.7732     0.0000     0.0000 </r>
       <r>   -16.6651     0.0000     0.0000 </r>
       <r>   -16.5570     0.0000     0.0000 </r>
       <r>   -16.4488     0.0000     0.0000 </r>
       <r>   -16.3407     0.0000     0.0000 </r>
       <r>   -16.2326     0.0000     0.0000 </r>
       <r>   -16.1244     0.0000     0.0000 </r>
       <r>   -16.0163     0.0000     0.0000 </r>
       <r>   -15.9082     0.0000     0.0000 </r>
       <r>   -15.8001     0.0000     0.0000 </r>
       <r>   -15.6919     0.0000     0.0000 </r>
       <r>   -15.5838     0.0000     0.0000 </r>
       <r>   -15.4757     0.0000     0.0000 </r>
       <r>   -15.3675     0.0000     0.0000 </r>
       <r>   -15.2594     1.3289     0.0281 </r>
       <r>   -15.1513     3.0531     0.2744 </r>
       <r>   -15.0431     5.1867     0.7414 </r>
       <r>   -14.9350     4.9399     1.2657 </r>
       <r>   -14.8269     4.8982     1.7987 </r>
       <r>   -14.7188     4.9710     2.3341 </r>
       <r>   -14.6106     4.9111     2.8701 </r>
       <r>   -14.5025     4.9127     3.3979 </r>
       <r>   -14.3944     5.0247     3.9362 </r>
       <r>   -14.2862     4.9921     4.4774 </r>
       <r>   -14.1781     4.9609     5.0147 </r>
       <r>   -14.0700     5.7461     5.5927 </r>
       <r>   -13.9618     6.1327     6.2325 </r>
       <r>   -13.8537     6.4811     6.9328 </r>
       <r>   -13.7456     4.8738     7.5206 </r>
       <r>   -13.6375     1.8220     7.7763 </r>
       <r>   -13.5293     4.0523     8.0797 </r>
       <r>   -13.4212     4.5396     8.5672 </r>
       <r>   -13.3131     4.4040     9.0537 </r>
       <r>   -13.2049     6.9131     9.8423 </r>
       <r>   -13.0968     4.2812    10.5689 </r>
       <r>   -12.9887     4.3696    11.0353 </r>
       <r>   -12.8805     4.5072    11.5155 </r>
       <r>   -12.7724     4.6156    12.0087 </r>
       <r>   -12.6643     4.7254    12.5137 </r>
       <r>   -12.5562     5.3796    13.0598 </r>
       <r>   -12.4480     6.0975    13.6792 </r>
       <r>   -12.3399     5.3642    14.2929 </r>
       <r>   -12.2318     5.6316    14.8858 </r>
       <r>   -12.1236     5.1097    15.4620 </r>
       <r>   -12.0155     4.8090    15.9940 </r>
       <r>   -11.9074     4.9096    16.5194 </r>
       <r>   -11.7992     4.9884    17.0550 </r>
       <r>   -11.6911     5.0476    17.5974 </r>
       <r>   -11.5830     5.1935    18.1466 </r>
       <r>   -11.4749     5.5835    18.7297 </r>
       <r>   -11.3667     5.8186    19.3568 </r>
       <r>   -11.2586     5.6943    19.9793 </r>
       <r>   -11.1505     5.6491    20.5914 </r>
       <r>   -11.0423     5.7648    21.2071 </r>
       <r>   -10.9342     5.1064    21.8168 </r>
       <r>   -10.8261     5.0862    22.3374 </r>
       <r>   -10.7179     5.3878    22.9059 </r>
       <r>   -10.6098     5.3693    23.4869 </r>
       <r>   -10.5017     5.4961    24.0731 </r>
       <r>   -10.3936     5.7147    24.6787 </r>
       <r>   -10.2854     5.9497    25.3093 </r>
       <r>   -10.1773     8.0148    26.0413 </r>
       <r>   -10.0692     9.3404    27.0968 </r>
       <r>    -9.9610     6.1180    27.9262 </r>
       <r>    -9.8529     7.5706    28.5437 </r>
       <r>    -9.7448     7.5606    29.3151 </r>
       <r>    -9.6366     3.5285    29.7207 </r>
       <r>    -9.5285     3.1603    30.0823 </r>
       <r>    -9.4204     2.7921    30.4042 </r>
       <r>    -9.3123     2.4238    30.6862 </r>
       <r>    -9.2041     2.4952    30.9372 </r>
       <r>    -9.0960     3.0461    31.2767 </r>
       <r>    -8.9879     1.4114    31.5185 </r>
       <r>    -8.8797     1.7442    31.6751 </r>
       <r>    -8.7716     2.6608    31.9133 </r>
       <r>    -8.6635     7.7108    32.4151 </r>
       <r>    -8.5553     4.2530    33.1266 </r>
       <r>    -8.4472     3.9681    33.5485 </r>
       <r>    -8.3391     4.2966    33.9952 </r>
       <r>    -8.2310     8.5222    34.6959 </r>
       <r>    -8.1228     6.4503    35.4414 </r>
       <r>    -8.0147     7.5524    36.1981 </r>
       <r>    -7.9066     8.6107    37.0720 </r>
       <r>    -7.7984     7.7541    38.0165 </r>
       <r>    -7.6903     6.2480    38.7272 </r>
       <r>    -7.5822     5.9911    39.3889 </r>
       <r>    -7.4740     5.7381    40.0229 </r>
       <r>    -7.3659     5.5101    40.6305 </r>
       <r>    -7.2578     5.3243    41.2161 </r>
       <r>    -7.1497     5.1432    41.7820 </r>
       <r>    -7.0415     4.9464    42.3277 </r>
       <r>    -6.9334     4.8464    42.8552 </r>
       <r>    -6.8253     4.8176    43.3777 </r>
       <r>    -6.7171     4.7860    43.8970 </r>
       <r>    -6.6090     4.6002    44.4083 </r>
       <r>    -6.5009     4.4064    44.8924 </r>
       <r>    -6.3927     4.0467    45.3645 </r>
       <r>    -6.2846     4.0252    45.7762 </r>
       <r>    -6.1765     4.3841    46.2223 </r>
       <r>    -6.0684     5.0104    46.7302 </r>
       <r>    -5.9602     5.9295    47.3196 </r>
       <r>    -5.8521     6.7040    47.9987 </r>
       <r>    -5.7440    10.4258    48.9889 </r>
       <r>    -5.6358     8.1991    49.9958 </r>
       <r>    -5.5277     5.9725    50.7620 </r>
       <r>    -5.4196     3.7457    51.2874 </r>
       <r>    -5.3114     2.7159    51.6084 </r>
       <r>    -5.2033     3.2286    51.9177 </r>
       <r>    -5.0952     4.5084    52.3352 </r>
       <r>    -4.9870     5.8062    52.8928 </r>
       <r>    -4.8789     7.5026    53.6041 </r>
       <r>    -4.7708     7.7997    54.4668 </r>
       <r>    -4.6627     6.6045    55.2456 </r>
       <r>    -4.5545     5.5943    55.8972 </r>
       <r>    -4.4464     7.6729    56.5898 </r>
       <r>    -4.3383     7.1630    57.3919 </r>
       <r>    -4.2301     6.6530    58.1389 </r>
       <r>    -4.1220     6.1431    58.8307 </r>
       <r>    -4.0139     5.6990    59.4680 </r>
       <r>    -3.9057     6.5880    60.1138 </r>
       <r>    -3.7976     9.5994    61.2725 </r>
       <r>    -3.6895     9.6202    62.3618 </r>
       <r>    -3.5814     7.7787    63.2876 </r>
       <r>    -3.4732     6.6080    64.0610 </r>
       <r>    -3.3651     6.8619    64.7693 </r>
       <r>    -3.2570     7.6767    65.5546 </r>
       <r>    -3.1488     8.7739    66.4398 </r>
       <r>    -3.0407    10.7940    67.4807 </r>
       <r>    -2.9326    13.8987    68.8893 </r>
       <r>    -2.8244    12.2658    70.4170 </r>
       <r>    -2.7163    12.6158    71.7527 </r>
       <r>    -2.6082    13.0345    73.2018 </r>
       <r>    -2.5001    16.1424    74.6811 </r>
       <r>    -2.3919    11.6005    76.2003 </r>
       <r>    -2.2838    19.2689    77.7636 </r>
       <r>    -2.1757    12.3020    79.4082 </r>
       <r>    -2.0675    19.7997    80.8312 </r>
       <r>    -1.9594    17.2367    82.9590 </r>
       <r>    -1.8513    17.6519    84.8823 </r>
       <r>    -1.7431    14.3175    86.6914 </r>
       <r>    -1.6350    10.8022    88.0436 </r>
       <r>    -1.5269     8.9515    89.1000 </r>
       <r>    -1.4188    12.4849    90.1510 </r>
       <r>    -1.3106     8.6326    91.1021 </r>
       <r>    -1.2025    11.3078    92.1701 </r>
       <r>    -1.0944    12.7591    93.5388 </r>
       <r>    -0.9862    18.8382    95.0727 </r>
       <r>    -0.8781     9.3536    96.2979 </r>
       <r>    -0.7700    10.6064    97.4000 </r>
       <r>    -0.6618    10.6269    98.5781 </r>
       <r>    -0.5537    10.4322    99.7038 </r>
       <r>    -0.4456    10.4091   100.8814 </r>
       <r>    -0.3375     9.6340   101.9381 </r>
       <r>    -0.2293     9.6383   103.0299 </r>
       <r>    -0.1212     9.4444   104.0608 </r>
       <r>    -0.0131     9.3460   105.0764 </r>
       <r>     0.0951     9.1582   106.0799 </r>
       <r>     0.2032     9.1164   107.0616 </r>
       <r>     0.3113     9.5702   108.0716 </r>
       <r>     0.4195     9.4428   109.0940 </r>
       <r>     0.5276     9.3531   110.1236 </r>
       <r>     0.6357     9.2264   111.1223 </r>
       <r>     0.7438     9.2481   112.1122 </r>
       <r>     0.8520     9.4671   113.1276 </r>
       <r>     0.9601     9.3845   114.1441 </r>
       <r>     1.0682     9.6858   115.2178 </r>
       <r>     1.1764     9.7162   116.2942 </r>
       <r>     1.2845     7.0750   117.1989 </r>
       <r>     1.3926     6.2492   117.9098 </r>
       <r>     1.5008     5.5238   118.5559 </r>
       <r>     1.6089     4.6795   119.1056 </r>
       <r>     1.7170     4.0505   119.5766 </r>
       <r>     1.8251     3.8335   119.9810 </r>
       <r>     1.9333     6.7397   120.5501 </r>
       <r>     2.0414    10.0130   121.4926 </r>
       <r>     2.1495     8.6226   122.3813 </r>
       <r>     2.2577     7.3899   123.4076 </r>
       <r>     2.3658     5.5975   124.0967 </r>
       <r>     2.4739     4.7490   124.6502 </r>
       <r>     2.5821     4.0719   125.1265 </r>
       <r>     2.6902     3.4488   125.5337 </r>
       <r>     2.7983     3.1805   125.8883 </r>
       <r>     2.9064     3.0042   126.2229 </r>
       <r>     3.0146     2.7662   126.5351 </r>
       <r>     3.1227     2.2991   126.8068 </r>
       <r>     3.2308     2.0149   127.0386 </r>
       <r>     3.3390     1.7840   127.2440 </r>
       <r>     3.4471     1.5449   127.4240 </r>
       <r>     3.5552     1.3047   127.5781 </r>
       <r>     3.6634     1.0663   127.7062 </r>
       <r>     3.7715     0.8277   127.8086 </r>
       <r>     3.8796     0.6089   127.8858 </r>
       <r>     3.9877     0.4220   127.9413 </r>
       <r>     4.0959     0.2527   127.9777 </r>
       <r>     4.2040     0.0974   127.9965 </r>
       <r>     4.3121     0.0270   128.0004 </r>
       <r>     4.4203     0.1473   128.0097 </r>
       <r>     4.5284     0.2819   128.0327 </r>
       <r>     4.6365     0.4349   128.0713 </r>
       <r>     4.7447     0.6127   128.1276 </r>
       <r>     4.8528     0.8402   128.2056 </r>
       <r>     4.9609     1.0907   128.3099 </r>
       <r>     5.0690     1.4831   128.4481 </r>
       <r>     5.1772     1.8687   128.6295 </r>
       <r>     5.2853     2.2494   128.8517 </r>
       <r>     5.3934     2.8149   129.1189 </r>
       <r>     5.5016     2.7745   129.4208 </r>
       <r>     5.6097     3.5397   129.7577 </r>
       <r>     5.7178     4.4114   130.1876 </r>
       <r>     5.8260     7.9937   130.8860 </r>
       <r>     5.9341     8.3093   131.9216 </r>
       <r>     6.0422     8.4662   132.8584 </r>
       <r>     6.1503     9.0239   133.7744 </r>
       <r>     6.2585     6.6499   134.5991 </r>
       <r>     6.3666     6.2925   135.2967 </r>
       <r>     6.4747     5.9160   135.9670 </r>
       <r>     6.5829     5.4943   136.5814 </r>
       <r>     6.6910     5.0229   137.1505 </r>
       <r>     6.7991     4.4132   137.6607 </r>
       <r>     6.9073     3.7675   138.0984 </r>
       <r>     7.0154     3.6337   138.4947 </r>
       <r>     7.1235     4.0295   138.9029 </r>
       <r>     7.2317     4.5403   139.3679 </r>
       <r>     7.3398     4.7190   139.8772 </r>
       <r>     7.4479     4.5353   140.3767 </r>
       <r>     7.5560     4.3957   140.8594 </r>
       <r>     7.6642     4.2449   141.3268 </r>
       <r>     7.7723     4.1009   141.7777 </r>
       <r>     7.8804     3.9577   142.2137 </r>
       <r>     7.9886     3.7945   142.6330 </r>
       <r>     8.0967     3.6524   143.0348 </r>
       <r>     8.2048     3.5497   143.4238 </r>
       <r>     8.3130     3.6581   143.8083 </r>
       <r>     8.4211     3.8917   144.2176 </r>
       <r>     8.5292     3.9684   144.6423 </r>
       <r>     8.6373     4.0467   145.0763 </r>
       <r>     8.7455     4.1182   145.5171 </r>
       <r>     8.8536     4.2558   145.9721 </r>
       <r>     8.9617     4.2822   146.4340 </r>
       <r>     9.0699     4.3449   146.9000 </r>
       <r>     9.1780     4.3333   147.3739 </r>
       <r>     9.2861     4.1770   147.8315 </r>
       <r>     9.3943     4.1710   148.2829 </r>
       <r>     9.5024     4.1659   148.7328 </r>
       <r>     9.6105     4.1532   149.1829 </r>
       <r>     9.7186     4.2877   149.6372 </r>
       <r>     9.8268     4.4674   150.1113 </r>
       <r>     9.9349     4.5142   150.5974 </r>
       <r>    10.0430     4.7729   151.0979 </r>
       <r>    10.1512     4.8307   151.6197 </r>
       <r>    10.2593     5.7513   152.1702 </r>
       <r>    10.3674     4.9223   152.7367 </r>
       <r>    10.4756     4.8329   153.2733 </r>
       <r>    10.5837     5.1069   153.8147 </r>
       <r>    10.6918     5.7578   154.4053 </r>
       <r>    10.7999     4.2401   154.8794 </r>
       <r>    10.9081     3.7128   155.3225 </r>
       <r>    11.0162     3.5993   155.7134 </r>
       <r>    11.1243     3.2244   156.0845 </r>
       <r>    11.2325     3.3706   156.4268 </r>
       <r>    11.3406     4.0690   156.8349 </r>
       <r>    11.4487     4.3011   157.2877 </r>
       <r>    11.5569     5.2797   157.7843 </r>
       <r>    11.6650     8.6020   158.5522 </r>
       <r>    11.7731    10.6797   159.6428 </r>
       <r>    11.8812    12.6137   160.8592 </r>
       <r>    11.9894    13.7062   162.3365 </r>
       <r>    12.0975    12.4917   163.7667 </r>
       <r>    12.2056    10.3803   165.0050 </r>
       <r>    12.3138     8.0346   166.0024 </r>
       <r>    12.4219     5.0382   166.6821 </r>
       <r>    12.5300     4.2637   167.1859 </r>
       <r>    12.6382     2.8873   167.5732 </r>
       <r>    12.7463     1.6546   167.8124 </r>
       <r>    12.8544     0.8317   167.9474 </r>
       <r>    12.9625     0.1225   167.9955 </r>
       <r>    13.0707     0.0042   167.9999 </r>
       <r>    13.1788     0.0000   168.0000 </r>
       <r>    13.2869     0.0000   168.0000 </r>
       <r>    13.3951     0.0000   168.0000 </r>
       <r>    13.5032     0.0000   168.0000 </r>
       <r>    13.6113     0.0000   168.0000 </r>
       <r>    13.7195     0.0000   168.0000 </r>
       <r>    13.8276     0.0000   168.0000 </r>
       <r>    13.9357     0.0000   168.0000 </r>
       <r>    14.0438     0.0000   168.0000 </r>
       <r>    14.1520     0.0000   168.0000 </r>
       <r>    14.2601     0.0000   168.0000 </r>
       <r>    14.3682     0.0000   168.0000 </r>
       <r>    14.4764     0.0000   168.0000 </r>
       <r>    14.5845     0.0000   168.0000 </r>
       <r>    14.6926     0.0000   168.0000 </r>
       <r>    14.8008     0.0000   168.0000 </r>
       <r>    14.9089     0.0000   168.0000 </r>
       <r>    15.0170     0.0000   168.0000 </r>
       <r>    15.1251     0.0000   168.0000 </r>
      </set>
     </set>
    </array>
   </total>
  </dos>
 </calculation>
 <structure name="finalpos" >
  <crystal>
   <varray name="basis" >
    <v>       4.93287450      -0.00191929       0.00000000 </v>
    <v>      -2.46809940       4.27103499       0.00000000 </v>
    <v>       0.00000000       0.00000000      14.05931154 </v>
   </varray>
   <i name="volume">    296.14171911 </i>
   <varray name="rec_basis" >
    <v>       0.20276715       0.11717288       0.00000000 </v>
    <v>       0.00009112       0.23418794       0.00000000 </v>
    <v>       0.00000000       0.00000000       0.07112724 </v>
   </varray>
  </crystal>
  <varray name="positions" >
   <v>       0.49967330       0.00032672       0.12500000 </v>
   <v>       0.99967330       0.00032672       0.12500000 </v>
   <v>       0.49967330       0.50032672       0.12500000 </v>
   <v>       0.99967330       0.50032672       0.12500000 </v>
   <v>       0.49967330       0.00032672       0.62500000 </v>
   <v>       0.99967330       0.00032672       0.62500000 </v>
   <v>       0.49967330       0.50032672       0.62500000 </v>
   <v>       0.99967330       0.50032672       0.62500000 </v>
   <v>       0.00032672       0.49967330       0.37500000 </v>
   <v>       0.50032672       0.49967330       0.37500000 </v>
   <v>       0.00032672       0.99967330       0.37500000 </v>
   <v>       0.50032672       0.99967330       0.37500000 </v>
   <v>       0.00032672       0.49967330       0.87500000 </v>
   <v>       0.50032672       0.49967330       0.87500000 </v>
   <v>       0.00032672       0.99967330       0.87500000 </v>
   <v>       0.50032672       0.99967330       0.87500000 </v>
   <v>       0.16562130       0.33370753       0.12432884 </v>
   <v>       0.66629246       0.33370753       0.12500000 </v>
   <v>       0.16629246       0.83370753       0.12500000 </v>
   <v>       0.66629246       0.83370753       0.12500000 </v>
   <v>       0.16629246       0.33370753       0.62500000 </v>
   <v>       0.66629246       0.33370753       0.62500000 </v>
   <v>       0.16629246       0.83370753       0.62500000 </v>
   <v>       0.66629246       0.83370753       0.62500000 </v>
   <v>       0.33370753       0.16629246       0.37500000 </v>
   <v>       0.83370753       0.16629246       0.37500000 </v>
   <v>       0.33370753       0.66629246       0.37500000 </v>
   <v>       0.83370753       0.66629246       0.37500000 </v>
   <v>       0.33370753       0.16629246       0.87500000 </v>
   <v>       0.83370753       0.16629246       0.87500000 </v>
   <v>       0.33370753       0.66629246       0.87500000 </v>
   <v>       0.83370753       0.66629246       0.87500000 </v>
  </varray>
 </structure>
</modeling>
