   32   32    1    1
  0.8951641E+01  0.4934311E-09  0.4934311E-09  0.1358600E-08  0.5000000E-15
  1.000000000000000E-004
  CAR 
 graphite                                
    128    163     84
 
  0.0000000E+00  0.0000000E+00  0.0000000E+00  0.3086420E-02
    1      -15.046447
    2      -14.914471
    3      -14.914105
    4      -14.773646
    5       -9.731901
    6       -9.729733
    7       -9.727888
    8       -9.679182
    9       -9.675391
   10       -9.674967
   11       -9.674560
   12       -9.674548
   13       -9.670734
   14       -9.630537
   15       -9.628365
   16       -9.625641
   17       -8.659090
   18       -8.657318
   19       -8.655751
   20       -8.630076
   21       -8.627898
   22       -8.626800
   23       -8.626397
   24       -8.626350
   25       -8.623584
   26       -8.581678
   27       -8.580517
   28       -8.579178
   29       -3.878488
   30       -3.043948
   31       -3.042377
   32       -2.032033
   33       -1.831860
   34       -1.829433
   35       -1.828398
   36       -1.808296
   37       -1.805993
   38       -1.805984
   39       -1.804608
   40       -1.802839
   41       -1.801981
   42       -1.781887
   43       -1.779434
   44       -1.778275
   45        1.555629
   46        1.560275
   47        1.566679
   48        1.566973
   49        1.571003
   50        1.571472
   51        1.577819
   52        1.582260
   53        1.833856
   54        1.835370
   55        1.836710
   56        2.207437
   57        2.211394
   58        2.211694
   59        2.211778
   60        2.212223
   61        2.216015
   62        2.475898
   63        2.478074
   64        2.480224
   65        6.071144
   66        6.073275
   67        6.075251
   68        6.215774
   69        6.219103
   70        6.220815
   71        6.221283
   72        6.221449
   73        6.225168
   74        6.713535
   75        6.715027
   76        6.716420
   77        8.771380
   78       11.311219
   79       11.314887
   80       11.769806
   81       11.773646
   82       11.776644
   83       11.946291
   84       11.952236
 
  0.1111111E+00 -0.6938894E-17  0.0000000E+00  0.6172840E-02
    1      -14.972956
    2      -14.841468
    3      -14.841102
    4      -14.701326
    5      -10.520959
    6      -10.427295
    7      -10.426989
    8      -10.330008
    9       -9.977860
   10       -9.975489
   11       -9.898301
   12       -9.895924
   13       -9.895186
   14       -9.893593
   15       -9.815711
   16       -9.813099
   17       -8.351579
   18       -8.350106
   19       -8.287458
   20       -8.286947
   21       -8.285869
   22       -8.283949
   23       -8.215628
   24       -8.214114
   25       -7.839843
   26       -7.767382
   27       -7.765478
   28       -7.689485
   29       -3.789302
   30       -2.957001
   31       -2.955433
   32       -2.057752
   33       -2.054926
   34       -2.031415
   35       -2.029687
   36       -2.027367
   37       -2.026605
   38       -2.002227
   39       -1.999533
   40       -1.948400
   41       -1.757261
   42       -1.733825
   43       -1.731333
   44       -1.707755
   45        1.247161
   46        1.258445
   47        1.268338
   48        1.272238
   49        1.282216
   50        1.402758
   51        1.411775
   52        1.415916
   53        1.426950
   54        1.719962
   55        1.721930
   56        1.785558
   57        1.788130
   58        2.155963
   59        2.159938
   60        2.160354
   61        2.161310
   62        2.317635
   63        2.522151
   64        2.524775
   65        6.152911
   66        6.154984
   67        6.349543
   68        6.350801
   69        6.351968
   70        6.355630
   71        6.450546
   72        6.757138
   73        6.761146
   74        6.848349
   75        6.850089
   76        7.309018
   77        8.860523
   78       11.389525
   79       11.393136
   80       11.812948
   81       11.986172
   82       11.987185
   83       12.106871
   84       12.114128
 
  0.2222222E+00  0.0000000E+00  0.0000000E+00  0.6172840E-02
    1      -14.752649
    2      -14.622880
    3      -14.622516
    4      -14.484681
    5      -11.529950
    6      -11.425372
    7      -11.425058
    8      -11.315777
    9      -10.324140
   10      -10.322162
   11      -10.233171
   12      -10.231345
   13      -10.230786
   14      -10.229243
   15      -10.136763
   16      -10.134676
   17       -7.670773
   18       -7.669153
   19       -7.600314
   20       -7.599870
   21       -7.598584
   22       -7.596873
   23       -7.525299
   24       -7.523519
   25       -6.516602
   26       -6.448960
   27       -6.447145
   28       -6.377006
   29       -3.522443
   30       -2.697156
   31       -2.695602
   32       -2.663806
   33       -2.661238
   34       -2.631000
   35       -2.629291
   36       -2.627276
   37       -2.626405
   38       -2.594853
   39       -2.592354
   40       -1.698470
   41       -1.542659
   42       -1.519709
   43       -1.517136
   44       -1.493992
   45        0.235303
   46        0.431714
   47        0.449526
   48        0.453809
   49        0.471469
   50        0.897457
   51        0.899425
   52        0.983875
   53        0.996826
   54        1.001001
   55        1.014793
   56        1.502733
   57        1.504745
   58        1.647437
   59        2.034784
   60        2.038649
   61        2.039009
   62        2.040095
   63        2.567428
   64        2.569934
   65        6.405921
   66        6.408013
   67        6.682735
   68        6.683791
   69        6.684983
   70        6.688779
   71        7.154778
   72        7.156990
   73        7.586418
   74        7.978233
   75        7.981525
   76        8.520120
   77        9.128628
   78       11.623386
   79       11.626806
   80       11.928106
   81       12.095231
   82       12.096500
   83       12.245873
   84       12.939810
 
  0.3333333E+00 -0.5551115E-16  0.0000000E+00  0.6172840E-02
    1      -14.386769
    2      -14.259833
    3      -14.259472
    4      -14.124835
    5      -12.441342
    6      -12.329493
    7      -12.329153
    8      -12.211425
    9      -10.580617
   10      -10.578832
   11      -10.485289
   12      -10.483613
   13      -10.483270
   14      -10.481676
   15      -10.384267
   16      -10.382407
   17       -6.864018
   18       -6.862182
   19       -6.799257
   20       -6.798738
   21       -6.797459
   22       -6.795427
   23       -6.731231
   24       -6.729250
   25       -5.085186
   26       -5.026795
   27       -5.024743
   28       -4.964666
   29       -3.478591
   30       -3.476301
   31       -3.439718
   32       -3.437781
   33       -3.436415
   34       -3.435263
   35       -3.397047
   36       -3.394832
   37       -3.080625
   38       -2.267640
   39       -2.266101
   40       -1.286375
   41       -1.193995
   42       -1.172225
   43       -1.169486
   44       -1.147116
   45       -0.783263
   46       -0.751582
   47       -0.724366
   48       -0.720992
   49       -0.693664
   50       -0.054820
   51       -0.053132
   52        0.422060
   53        0.438360
   54        0.442210
   55        0.459065
   56        0.800014
   57        1.313719
   58        1.315706
   59        1.910674
   60        1.914438
   61        1.914759
   62        1.915937
   63        2.564195
   64        2.566634
   65        6.767418
   66        6.769640
   67        7.072404
   68        7.073342
   69        7.074335
   70        7.078450
   71        7.463256
   72        7.465792
   73        9.091188
   74        9.453816
   75        9.457150
   76        9.576125
   77        9.929379
   78       11.877381
   79       11.995751
   80       11.998642
   81       12.175401
   82       12.261345
   83       12.262965
   84       12.535972
 
  0.4444444E+00  0.0000000E+00  0.0000000E+00  0.6172840E-02
    1      -13.877143
    2      -13.754166
    3      -13.753804
    4      -13.623632
    5      -13.226965
    6      -13.108929
    7      -13.108586
    8      -12.984055
    9      -10.712943
   10      -10.711240
   11      -10.616147
   12      -10.614457
   13      -10.614338
   14      -10.612653
   15      -10.513085
   16      -10.511316
   17       -6.117634
   18       -6.115771
   19       -6.071114
   20       -6.070370
   21       -6.069916
   22       -6.066537
   23       -6.023816
   24       -6.021536
   25       -4.228174
   26       -4.226369
   27       -4.196578
   28       -4.193809
   29       -4.193548
   30       -4.192111
   31       -4.157916
   32       -4.156355
   33       -3.606630
   34       -3.558571
   35       -3.556144
   36       -3.506895
   37       -2.468881
   38       -2.136547
   39       -2.099283
   40       -2.096277
   41       -2.057749
   42       -1.696951
   43       -1.674004
   44       -1.672331
   45       -0.929239
   46       -0.927646
   47       -0.728559
   48       -0.719839
   49       -0.707798
   50       -0.704826
   51       -0.683779
   52       -0.174058
   53       -0.155230
   54       -0.151737
   55       -0.132233
   56       -0.014172
   57        1.208862
   58        1.210826
   59        1.835968
   60        1.839672
   61        1.839978
   62        1.841203
   63        2.547000
   64        2.549417
   65        7.053348
   66        7.055684
   67        7.338096
   68        7.339124
   69        7.339624
   70        7.344159
   71        7.636351
   72        7.639087
   73       10.199335
   74       10.710567
   75       10.983010
   76       10.993048
   77       10.999874
   78       11.387667
   79       12.269381
   80       12.278650
   81       12.300603
   82       12.381499
   83       12.447149
   84       12.449664
 
  0.1694066E-20  0.1111111E+00  0.0000000E+00  0.6172840E-02
    1      -14.972954
    2      -14.841466
    3      -14.841101
    4      -14.701324
    5      -10.521065
    6      -10.427413
    7      -10.427120
    8      -10.330155
    9       -9.977849
   10       -9.975173
   11       -9.898057
   12       -9.895929
   13       -9.895189
   14       -9.893070
   15       -9.815521
   16       -9.812867
   17       -8.352735
   18       -8.350330
   19       -8.289546
   20       -8.287431
   21       -8.285872
   22       -8.283818
   23       -8.216727
   24       -8.214100
   25       -7.838827
   26       -7.765573
   27       -7.765351
   28       -7.688555
   29       -3.789306
   30       -2.957006
   31       -2.955438
   32       -2.056267
   33       -2.055156
   34       -2.029694
   35       -2.029433
   36       -2.026980
   37       -2.026602
   38       -2.000814
   39       -1.999719
   40       -1.948407
   41       -1.758325
   42       -1.733847
   43       -1.733741
   44       -1.709179
   45        1.247712
   46        1.261162
   47        1.272237
   48        1.272494
   49        1.283762
   50        1.401406
   51        1.411769
   52        1.411994
   53        1.422353
   54        1.720271
   55        1.722640
   56        1.785102
   57        1.786655
   58        2.156984
   59        2.159912
   60        2.160113
   61        2.163060
   62        2.316393
   63        2.522743
   64        2.525632
   65        6.151687
   66        6.154017
   67        6.347277
   68        6.349944
   69        6.352054
   70        6.354493
   71        6.452599
   72        6.760014
   73        6.761740
   74        6.846970
   75        6.849485
   76        7.310646
   77        8.860518
   78       11.389500
   79       11.393112
   80       11.812311
   81       11.985690
   82       11.986321
   83       12.109430
   84       12.114291
 
  0.1111111E+00  0.1111111E+00  0.0000000E+00  0.6172840E-02
    1      -14.826032
    2      -14.695675
    3      -14.695312
    4      -14.556820
    5      -10.984509
    6      -10.981544
    7      -10.886368
    8      -10.883381
    9      -10.883352
   10      -10.880387
   11      -10.780825
   12      -10.777784
   13       -9.542369
   14       -9.489140
   15       -9.487641
   16       -9.442718
   17       -8.473421
   18       -8.445672
   19       -8.442515
   20       -8.399780
   21       -7.158951
   22       -7.155664
   23       -7.089494
   24       -7.085445
   25       -7.085419
   26       -7.083079
   27       -7.012925
   28       -7.009746
   29       -3.611225
   30       -2.783585
   31       -2.782023
   32       -2.736992
   33       -2.703691
   34       -2.701372
   35       -2.667457
   36       -1.912436
   37       -1.910069
   38       -1.886114
   39       -1.884634
   40       -1.884625
   41       -1.880892
   42       -1.858001
   43       -1.854990
   44       -1.781584
   45        0.725579
   46        0.737300
   47        0.741874
   48        0.751397
   49        0.818196
   50        0.819799
   51        1.090609
   52        1.097984
   53        1.102032
   54        1.112545
   55        1.426285
   56        1.428220
   57        1.428299
   58        1.431703
   59        2.087131
   60        2.089688
   61        2.100951
   62        2.474584
   63        2.477618
   64        2.737520
   65        6.053208
   66        6.144875
   67        6.149286
   68        6.545649
   69        6.936317
   70        6.939151
   71        7.297690
   72        7.302111
   73        7.302303
   74        7.303720
   75        7.835640
   76        7.838195
   77        9.039322
   78       11.546712
   79       11.550211
   80       12.183409
   81       12.187335
   82       12.355774
   83       12.358918
   84       12.361217
 
  0.2222222E+00  0.1111111E+00  0.0000000E+00  0.6172840E-02
    1      -14.532947
    2      -14.404857
    3      -14.404496
    4      -14.268570
    5      -11.948217
    6      -11.840263
    7      -11.839933
    8      -11.726749
    9      -11.323788
   10      -11.221115
   11      -11.220818
   12      -11.113231
   13       -9.592247
   14       -9.514966
   15       -9.514120
   16       -9.436398
   17       -8.005417
   18       -7.946527
   19       -7.943954
   20       -7.879202
   21       -6.375164
   22       -6.309794
   23       -6.309484
   24       -6.242079
   25       -5.778169
   26       -5.715759
   27       -5.713944
   28       -5.649559
   29       -3.642681
   30       -3.601902
   31       -3.599641
   32       -3.557752
   33       -3.256821
   34       -2.438926
   35       -2.438320
   36       -2.437174
   37       -2.405645
   38       -2.405237
   39       -2.372003
   40       -1.624550
   41       -1.599504
   42       -1.596996
   43       -1.571524
   44       -1.450460
   45       -0.227762
   46       -0.218606
   47       -0.206193
   48       -0.202506
   49       -0.184855
   50        0.478079
   51        0.479615
   52        0.485574
   53        0.546093
   54        0.558065
   55        0.562844
   56        0.576844
   57        1.140841
   58        1.142372
   59        1.286552
   60        1.883102
   61        2.239218
   62        2.676368
   63        2.679295
   64        3.040622
   65        6.032629
   66        6.151954
   67        6.156112
   68        6.489649
   69        7.513085
   70        7.870376
   71        7.872097
   72        8.291144
   73        8.328234
   74        8.667997
   75        8.670852
   76        9.157481
   77        9.397912
   78       11.858898
   79       11.862108
   80       12.296298
   81       12.496883
   82       12.498079
   83       12.506254
   84       12.864495
 
  0.3333333E+00  0.1111111E+00  0.0000000E+00  0.6172840E-02
    1      -14.095202
    2      -13.970466
    3      -13.970105
    4      -13.838050
    5      -12.797282
    6      -12.682635
    7      -12.682296
    8      -12.561540
    9      -11.531548
   10      -11.427006
   11      -11.426703
   12      -11.317079
   13       -9.736282
   14       -9.649695
   15       -9.649278
   16       -9.559548
   17       -7.241133
   18       -7.182259
   19       -7.179856
   20       -7.118729
   21       -5.577538
   22       -5.523833
   23       -5.522856
   24       -5.468135
   25       -4.577398
   26       -4.535034
   27       -4.532590
   28       -4.487958
   29       -4.330700
   30       -4.278371
   31       -4.276326
   32       -4.222650
   33       -3.137149
   34       -3.102361
   35       -3.101152
   36       -3.064698
   37       -2.729772
   38       -1.927389
   39       -1.925905
   40       -1.469481
   41       -1.439288
   42       -1.435298
   43       -1.406009
   44       -1.208681
   45       -1.191780
   46       -1.185050
   47       -1.182424
   48       -1.158394
   49       -0.960704
   50       -0.444209
   51       -0.442609
   52       -0.078268
   53       -0.060845
   54       -0.056651
   55       -0.038417
   56        0.277374
   57        0.441449
   58        0.957753
   59        0.959327
   60        1.744031
   61        2.240673
   62        2.766013
   63        2.768524
   64        3.298470
   65        6.035230
   66        6.269543
   67        6.273006
   68        6.586410
   69        8.020399
   70        8.324928
   71        8.326857
   72        8.661847
   73        9.853338
   74        9.934988
   75       10.172589
   76       10.175208
   77       10.581078
   78       11.519856
   79       12.286593
   80       12.289769
   81       12.580870
   82       12.668676
   83       12.670351
   84       12.904457
 
  0.4444444E+00  0.1111111E+00  0.0000000E+00  0.6172840E-02
    1      -13.516739
    2      -13.513953
    3      -13.397723
    4      -13.394883
    5      -13.394758
    6      -13.392107
    7      -13.269063
    8      -13.266217
    9      -11.601259
   10      -11.496181
   11      -11.495874
   12      -11.385606
   13       -9.791996
   14       -9.703601
   15       -9.703304
   16       -9.611401
   17       -6.737806
   18       -6.700414
   19       -6.698205
   20       -6.662830
   21       -5.101977
   22       -5.093960
   23       -5.072311
   24       -5.071365
   25       -5.069650
   26       -5.068290
   27       -5.041755
   28       -5.039036
   29       -3.557856
   30       -3.537926
   31       -3.534879
   32       -3.510673
   33       -2.872973
   34       -2.869515
   35       -2.832828
   36       -2.827268
   37       -2.827210
   38       -2.826939
   39       -2.786285
   40       -2.783691
   41       -2.038315
   42       -2.036072
   43       -1.258684
   44       -1.256326
   45       -1.256196
   46       -1.253075
   47       -0.684311
   48       -0.680844
   49       -0.662413
   50       -0.660912
   51       -0.660845
   52       -0.653758
   53       -0.638691
   54       -0.631716
   55       -0.324380
   56       -0.321768
   57        0.206667
   58        0.894895
   59        0.896547
   60        1.694988
   61        2.229950
   62        2.788311
   63        2.790355
   64        3.391684
   65        6.049414
   66        6.335890
   67        6.338502
   68        6.640663
   69        8.240360
   70        8.503244
   71        8.505572
   72        8.767563
   73       10.645985
   74       10.646937
   75       11.441222
   76       11.444707
   77       11.659135
   78       11.664455
   79       11.665503
   80       11.668584
   81       11.998502
   82       12.001728
   83       12.740993
   84       12.747888
 
 -0.4444444E+00  0.1111111E+00  0.0000000E+00  0.6172840E-02
    1      -14.095303
    2      -13.970549
    3      -13.970193
    4      -13.838141
    5      -12.797144
    6      -12.682501
    7      -12.682154
    8      -12.561402
    9      -11.531757
   10      -11.427215
   11      -11.426911
   12      -11.317288
   13       -9.735924
   14       -9.649246
   15       -9.648982
   16       -9.559158
   17       -7.240408
   18       -7.180725
   19       -7.180043
   20       -7.118115
   21       -5.578654
   22       -5.525621
   23       -5.523143
   24       -5.469081
   25       -4.578469
   26       -4.535358
   27       -4.534587
   28       -4.489190
   29       -4.331028
   30       -4.278859
   31       -4.276462
   32       -4.222948
   33       -3.135897
   34       -3.101847
   35       -3.098850
   36       -3.063181
   37       -2.729871
   38       -1.927483
   39       -1.926005
   40       -1.469080
   41       -1.438426
   42       -1.435784
   43       -1.406054
   44       -1.208413
   45       -1.191631
   46       -1.184956
   47       -1.181892
   48       -1.158002
   49       -0.960801
   50       -0.444086
   51       -0.442446
   52       -0.078243
   53       -0.060345
   54       -0.057556
   55       -0.039140
   56        0.277142
   57        0.441580
   58        0.957397
   59        0.959157
   60        1.743725
   61        2.241015
   62        2.766881
   63        2.768594
   64        3.299198
   65        6.035097
   66        6.270341
   67        6.272276
   68        6.586400
   69        8.019955
   70        8.324146
   71        8.326916
   72        8.661693
   73        9.853231
   74        9.934858
   75       10.172276
   76       10.175253
   77       10.580937
   78       11.520054
   79       12.286496
   80       12.289670
   81       12.580575
   82       12.668107
   83       12.670486
   84       12.906098
 
 -0.3333333E+00  0.1111111E+00  0.0000000E+00  0.6172840E-02
    1      -14.533008
    2      -14.404917
    3      -14.404558
    4      -14.268631
    5      -11.948050
    6      -11.840095
    7      -11.839763
    8      -11.726577
    9      -11.324217
   10      -11.221543
   11      -11.221247
   12      -11.113660
   13       -9.591432
   14       -9.513800
   15       -9.513569
   16       -9.435487
   17       -8.004969
   18       -7.944924
   19       -7.944705
   20       -7.878803
   21       -6.376245
   22       -6.311673
   23       -6.309674
   24       -6.243062
   25       -5.778485
   26       -5.716166
   27       -5.714155
   28       -5.649861
   29       -3.644111
   30       -3.602380
   31       -3.602167
   32       -3.559313
   33       -3.256892
   34       -2.438944
   35       -2.437500
   36       -2.436480
   37       -2.405001
   38       -2.402351
   39       -2.370139
   40       -1.624343
   41       -1.599379
   42       -1.596669
   43       -1.571270
   44       -1.450530
   45       -0.226762
   46       -0.218857
   47       -0.205043
   48       -0.203953
   49       -0.185362
   50        0.478272
   51        0.480038
   52        0.484786
   53        0.546873
   54        0.559550
   55        0.561966
   56        0.575501
   57        1.140144
   58        1.142048
   59        1.286669
   60        1.882487
   61        2.239851
   62        2.677907
   63        2.679497
   64        3.041880
   65        6.032442
   66        6.153195
   67        6.154908
   68        6.489667
   69        7.512534
   70        7.869135
   71        7.872263
   72        8.291033
   73        8.327860
   74        8.667633
   75        8.670881
   76        9.157306
   77        9.397817
   78       11.858792
   79       11.861997
   80       12.296192
   81       12.496471
   82       12.498052
   83       12.506356
   84       12.864385
 
 -0.2222222E+00  0.1111111E+00  0.0000000E+00  0.6172840E-02
    1      -14.826068
    2      -14.695711
    3      -14.695349
    4      -14.556856
    5      -10.983614
    6      -10.982790
    7      -10.884183
    8      -10.883891
    9      -10.883319
   10      -10.883029
   11      -10.780019
   12      -10.779172
   13       -9.540936
   14       -9.487038
   15       -9.486879
   16       -9.441229
   17       -8.473332
   18       -8.444271
   19       -8.444167
   20       -8.399989
   21       -7.157960
   22       -7.157636
   23       -7.087529
   24       -7.087162
   25       -7.085677
   26       -7.085311
   27       -7.012124
   28       -7.011785
   29       -3.611268
   30       -2.783629
   31       -2.782066
   32       -2.738593
   33       -2.704305
   34       -2.704190
   35       -2.669224
   36       -1.910440
   37       -1.909978
   38       -1.884538
   39       -1.884084
   40       -1.882019
   41       -1.881517
   42       -1.855760
   43       -1.855356
   44       -1.781627
   45        0.726859
   46        0.738231
   47        0.738736
   48        0.749669
   49        0.817942
   50        0.819580
   51        1.092472
   52        1.101165
   53        1.101228
   54        1.110824
   55        1.426128
   56        1.428254
   57        1.428339
   58        1.430546
   59        2.086924
   60        2.088963
   61        2.101894
   62        2.476406
   63        2.478002
   64        2.738999
   65        6.053085
   66        6.146235
   67        6.148007
   68        6.545742
   69        6.936722
   70        6.938209
   71        7.298309
   72        7.300342
   73        7.301999
   74        7.303805
   75        7.835984
   76        7.837249
   77        9.039263
   78       11.546640
   79       11.550137
   80       12.185653
   81       12.188828
   82       12.358713
   83       12.359873
   84       12.362600
 
 -0.1111111E+00  0.1111111E+00  0.0000000E+00  0.6172840E-02
    1      -14.972967
    2      -14.841478
    3      -14.841113
    4      -14.701336
    5      -10.521945
    6      -10.428356
    7      -10.427958
    8      -10.331058
    9       -9.976882
   10       -9.974775
   11       -9.896987
   12       -9.895046
   13       -9.895006
   14       -9.892436
   15       -9.814703
   16       -9.812260
   17       -8.352480
   18       -8.350467
   19       -8.289074
   20       -8.286037
   21       -8.286001
   22       -8.285349
   23       -8.216321
   24       -8.214584
   25       -7.839443
   26       -7.767026
   27       -7.765073
   28       -7.689113
   29       -3.789320
   30       -2.957021
   31       -2.955452
   32       -2.057658
   33       -2.055526
   34       -2.030844
   35       -2.029656
   36       -2.029646
   37       -2.026100
   38       -2.002467
   39       -1.999734
   40       -1.948421
   41       -1.756614
   42       -1.733168
   43       -1.730675
   44       -1.707189
   45        1.247291
   46        1.258989
   47        1.268757
   48        1.273307
   49        1.285110
   50        1.400118
   51        1.410978
   52        1.415289
   53        1.424185
   54        1.721086
   55        1.722851
   56        1.783714
   57        1.786104
   58        2.158718
   59        2.159715
   60        2.160024
   61        2.163994
   62        2.315199
   63        2.523602
   64        2.526194
   65        6.151241
   66        6.154414
   67        6.346752
   68        6.351901
   69        6.352149
   70        6.353263
   71        6.452359
   72        6.758597
   73        6.762407
   74        6.847007
   75        6.849529
   76        7.310290
   77        8.860498
   78       11.389474
   79       11.393086
   80       11.816190
   81       11.989180
   82       11.990652
   83       12.104640
   84       12.108819
 
  0.1694066E-20  0.2222222E+00  0.0000000E+00  0.6172840E-02
    1      -14.752642
    2      -14.622871
    3      -14.622510
    4      -14.484674
    5      -11.529933
    6      -11.425354
    7      -11.425047
    8      -11.315766
    9      -10.324518
   10      -10.321733
   11      -10.233816
   12      -10.231350
   13      -10.230789
   14      -10.228354
   15      -10.137033
   16      -10.134224
   17       -7.672049
   18       -7.669112
   19       -7.602632
   20       -7.600286
   21       -7.598584
   22       -7.596302
   23       -7.526408
   24       -7.523355
   25       -6.515670
   26       -6.447250
   27       -6.447043
   28       -6.376122
   29       -3.522461
   30       -2.697178
   31       -2.695620
   32       -2.662717
   33       -2.661084
   34       -2.629609
   35       -2.629281
   36       -2.626423
   37       -2.626152
   38       -2.593766
   39       -2.592109
   40       -1.698498
   41       -1.543779
   42       -1.519747
   43       -1.519662
   44       -1.495502
   45        0.234858
   46        0.434643
   47        0.453699
   48        0.453827
   49        0.473166
   50        0.897113
   51        0.898635
   52        0.982296
   53        0.996781
   54        0.996848
   55        1.011270
   56        1.502846
   57        1.505575
   58        1.646683
   59        2.035497
   60        2.038636
   61        2.038780
   62        2.041930
   63        2.567930
   64        2.570830
   65        6.404528
   66        6.407272
   67        6.680074
   68        6.683181
   69        6.685009
   70        6.687883
   71        7.153109
   72        7.156541
   73        7.587966
   74        7.980340
   75        7.982047
   76        8.521363
   77        9.128613
   78       11.623296
   79       11.626716
   80       11.927437
   81       12.094888
   82       12.095473
   83       12.245183
   84       12.936013
 
  0.1111111E+00  0.2222222E+00  0.0000000E+00  0.6172840E-02
    1      -14.532941
    2      -14.404851
    3      -14.404491
    4      -14.268564
    5      -11.948179
    6      -11.840216
    7      -11.839905
    8      -11.726712
    9      -11.323815
   10      -11.221139
   11      -11.220844
   12      -11.113253
   13       -9.592235
   14       -9.514943
   15       -9.514119
   16       -9.436386
   17       -8.005483
   18       -7.946527
   19       -7.944121
   20       -7.879305
   21       -6.376183
   22       -6.311523
   23       -6.309753
   24       -6.243063
   25       -5.777152
   26       -5.713990
   27       -5.713724
   28       -5.648582
   29       -3.642586
   30       -3.601744
   31       -3.599641
   32       -3.557685
   33       -3.256836
   34       -2.438884
   35       -2.437492
   36       -2.436859
   37       -2.405245
   38       -2.403031
   39       -2.370587
   40       -1.625772
   41       -1.599731
   42       -1.599495
   43       -1.573080
   44       -1.450482
   45       -0.226168
   46       -0.218799
   47       -0.204337
   48       -0.202504
   49       -0.184197