    4    4  200    1
  0.8508491E+01  0.2467155E-09  0.2467155E-09  0.6456713E-09  0.5000000E-15
  1.000000000000000E-004
  CAR 
 graphite                                
     16    455     12
 
  0.0000000E+00  0.0000000E+00  0.0000000E+00  0.3858025E-03
    1      -14.652246
    2      -14.250549
    3       -3.651395
    4       -1.271246
    5        2.015825
    6        2.020494
    7        2.043409
    8        2.048058
    9        9.675619
   10       13.332113
   11       13.341155
   12       13.406506
 
  0.5555556E-01  0.0000000E+00  0.0000000E+00  0.1543210E-02
    1      -14.578451
    2      -14.178445
    3       -3.561807
    4       -1.188479
    5        1.715761
    6        1.753970
    7        1.857033
    8        1.892090
    9        9.762471
   10       13.362428
   11       13.452315
   12       13.651207
 
  0.1111111E+00  0.0000000E+00  0.0000000E+00  0.1543210E-02
    1      -14.357375
    2      -13.962445
    3       -3.293667
    4       -0.941389
    5        0.885159
    6        0.947274
    7        1.435460
    8        1.483631
    9       10.023869
   10       13.373199
   11       13.520587
   12       14.563944
 
  0.1666667E+00 -0.2775558E-16  0.0000000E+00  0.1543210E-02
    1      -13.990287
    2      -13.603728
    3       -2.849812
    4       -0.534268
    5       -0.304956
    6       -0.213327
    7        0.871507
    8        0.930394
    9       10.460034
   10       13.261950
   11       13.501989
   12       14.111890
 
  0.2222222E+00 -0.1387779E-16  0.0000000E+00  0.1543210E-02
    1      -13.478917
    2      -13.104058
    3       -2.235134
    4       -1.695512
    5       -1.572547
    6        0.024407
    7        0.273910
    8        0.340882
    9       11.067363
   10       12.661100
   11       13.042579
   12       13.375932
 
  0.2777778E+00  0.0000000E+00  0.0000000E+00  0.1543210E-02
    1      -12.826502
    2      -12.466560
    3       -3.171850
    4       -3.017285
    5       -1.458575
    6       -0.281479
    7       -0.209283
    8        0.718444
    9       11.053348
   10       11.830006
   11       11.963013
   12       12.787325
 
  0.3333333E+00 -0.2775558E-16  0.0000000E+00  0.1543210E-02
    1      -12.038198
    2      -11.696271
    3       -4.656020
    4       -4.470823
    5       -0.747641
    6       -0.671836
    7       -0.537021
    8        1.513324
    9        9.422683
   10       10.529760
   11       12.459167
   12       12.728819
 
  0.3888889E+00  0.0000000E+00  0.0000000E+00  0.1543210E-02
    1      -11.123430
    2      -10.803730
    3       -6.092108
    4       -5.879324
    5       -1.096547
    6       -1.018207
    7        0.493084
    8        2.323982
    9        7.926891
   10        9.139381
   11       12.312093
   12       12.782738
 
  0.4444444E+00 -0.2775558E-16  0.0000000E+00  0.1543210E-02
    1      -10.109622
    2       -9.823324
    3       -7.417242
    4       -7.189644
    5       -1.311397
    6       -1.231641
    7        1.531142
    8        2.909694
    9        6.852632
   10        7.930323
   11       12.191633
   12       12.701568
 
  0.5000000E+00 -0.5551115E-16  0.0000000E+00  0.7716049E-03
    1       -9.302450
    2       -9.150657
    3       -8.207996
    4       -8.094957
    5       -1.384050
    6       -1.303523
    7        2.144643
    8        2.978852
    9        6.557842
   10        7.317214
   11       12.149768
   12       12.670427
 
  0.5555556E-01  0.5555556E-01  0.0000000E+00  0.7716049E-03
    1      -14.431008
    2      -14.034382
    3       -3.382892
    4       -1.023520
    5        1.184712
    6        1.222059
    7        1.546435
    8        1.576940
    9        9.936830
   10       13.463827
   11       13.574335
   12       14.169611
 
  0.1111111E+00  0.5555556E-01  0.0000000E+00  0.1543210E-02
    1      -14.136909
    2      -13.747033
    3       -3.026909
    4       -0.696261
    5        0.227403
    6        0.290414
    7        0.998317
    8        1.044281
    9       10.286775
   10       13.545426
   11       13.721676
   12       14.588498
 
  0.1666667E+00  0.5555556E-01  0.0000000E+00  0.1543210E-02
    1      -13.697648
    2      -13.317804
    3       -2.497356
    4       -1.023513
    5       -0.924661
    6       -0.212821
    7        0.370481
    8        0.433426
    9       10.811136
   10       13.303305
   11       13.443959
   12       13.724115
 
  0.2222222E+00  0.5555556E-01  0.0000000E+00  0.1543210E-02
    1      -13.115735
    2      -12.749190
    3       -2.432563
    4       -2.298538
    5       -1.801038
    6       -0.235323
    7       -0.161508
    8        0.415277
    9       11.503830
   10       11.797368
   11       12.554898
   12       13.224485
 
  0.2777778E+00  0.5555556E-01  0.0000000E+00  0.1543210E-02
    1      -12.395167
    2      -12.045147
    3       -3.898463
    4       -3.731668
    5       -0.949978
    6       -0.762905
    7       -0.682296
    8        1.165018
    9       10.191918
   10       11.161379
   11       12.337792
   12       12.987009
 
  0.3333333E+00  0.5555556E-01  0.0000000E+00  0.1543210E-02
    1      -11.542937
    2      -11.213051
    3       -5.351362
    4       -5.154015
    5       -1.179556
    6       -1.094567
    7        0.031772
    8        1.984530
    9        8.625112
   10        9.761271
   11       12.712641
   12       13.107506
 
  0.3888889E+00  0.5555556E-01  0.0000000E+00  0.1543210E-02
    1      -10.573974
    2      -10.269398
    3       -6.734724
    4       -6.513198
    5       -1.466013
    6       -1.378434
    7        1.086756
    8        2.731937
    9        7.299406
   10        8.452877
   11       12.566651
   12       13.067972
 
  0.4444444E+00  0.5555556E-01  0.0000000E+00  0.1543210E-02
    1       -9.559040
    2       -9.315483
    3       -7.923166
    4       -7.718860
    5       -1.611824
    6       -1.522909
    7        2.020468
    8        3.056442
    9        6.609774
   10        7.452151
   11       12.484122
   12       13.010248
 
  0.5000000E+00  0.5555556E-01  0.0000000E+00  0.1543210E-02
    1       -9.559219
    2       -9.315637
    3       -7.922997
    4       -7.718665
    5       -1.611859
    6       -1.522945
    7        2.020407
    8        3.056459
    9        6.609771
   10        7.452146
   11       12.484204
   12       13.010339
 
 -0.4444444E+00  0.5555556E-01  0.0000000E+00  0.1543210E-02
    1      -10.574169
    2      -10.269591
    3       -6.734488
    4       -6.512962
    5       -1.466111
    6       -1.378534
    7        1.086660
    8        2.731918
    9        7.299401
   10        8.452832
   11       12.566903
   12       13.068251
 
 -0.3888889E+00  0.5555556E-01  0.0000000E+00  0.1543210E-02
    1      -11.543112
    2      -11.213225
    3       -5.351136
    4       -5.153798
    5       -1.179688
    6       -1.094706
    7        0.031672
    8        1.984486
    9        8.625067
   10        9.761164
   11       12.713072
   12       13.107773
 
 -0.3333333E+00  0.5555556E-01  0.0000000E+00  0.1543210E-02
    1      -12.395317
    2      -12.045297
    3       -3.898300
    4       -3.731524
    5       -0.950071
    6       -0.763008
    7       -0.682418
    8        1.164966
    9       10.191795
   10       11.161195
   11       12.337735
   12       12.987596
 
 -0.2777778E+00  0.5555556E-01  0.0000000E+00  0.1543210E-02
    1      -13.115858
    2      -12.749313
    3       -2.432565
    4       -2.298586
    5       -1.801119
    6       -0.235263
    7       -0.161492
    8        0.415226
    9       11.503722
   10       11.797139
   11       12.554640
   12       13.225389
 
 -0.2222222E+00  0.5555556E-01  0.0000000E+00  0.1543210E-02
    1      -13.697744
    2      -13.317900
    3       -2.497422
    4       -1.023906
    5       -0.925159
    6       -0.212865
    7        0.370992
    8        0.433829
    9       10.811042
   10       13.302969
   11       13.445442
   12       13.725668
 
 -0.1666667E+00  0.5555556E-01  0.0000000E+00  0.1543210E-02
    1      -14.136978
    2      -13.747101
    3       -3.026958
    4       -0.696295
    5        0.226121
    6        0.288934
    7        0.999840
    8        1.045594
    9       10.286705
   10       13.547530
   11       13.723965
   12       14.583542
 
 -0.1111111E+00  0.5555556E-01  0.0000000E+00  0.1543210E-02
    1      -14.431050
    2      -14.034423
    3       -3.382921
    4       -1.023542
    5        1.181689
    6        1.219050
    7        1.549517
    8        1.580010
    9        9.936786
   10       13.466941
   11       13.577500
   12       14.171052
 
 -0.5555556E-01  0.5555556E-01  0.0000000E+00  0.7716049E-03
    1      -14.578465
    2      -14.178459
    3       -3.561817
    4       -1.188486
    5        1.712364
    6        1.750596
    7        1.860454
    8        1.895507
    9        9.762456
   10       13.365134
   11       13.454641
   12       13.673656
 
  0.1111111E+00  0.1111111E+00  0.0000000E+00  0.7716049E-03
    1      -13.770672
    2      -13.389212
    3       -2.585131
    4       -0.670627
    5       -0.613705
    6       -0.292337
    7        0.297211
    8        0.337873
    9       10.726750
   10       13.556157
   11       13.958180
   12       14.143832
 
  0.1666667E+00  0.1111111E+00  0.0000000E+00  0.1543210E-02
    1      -13.260865
    2      -12.891026
    3       -1.973293
    4       -1.823978
    5       -1.734118
    6       -0.453994
    7       -0.392167
    8        0.262172
    9       11.340610
   10       12.271239
   11       12.853735
   12       14.107128
 
  0.2222222E+00  0.1111111E+00  0.0000000E+00  0.1543210E-02
    1      -12.610740
    2      -12.255795
    3       -3.158542
    4       -3.024298
    5       -1.200237
    6       -1.106329
    7       -1.021542
    8        0.951592
    9       10.811666
   10       11.561504
   11       12.120919
   12       13.960184
 
  0.2777778E+00  0.1111111E+00  0.0000000E+00  0.1543210E-02
    1      -11.825829
    2      -11.489143
    3       -4.561836
    4       -4.389457
    5       -1.622417
    6       -1.524385
    7       -0.282477
    8        1.743809
    9        9.288907
   10       10.228078
   11       13.044880
   12       13.752440
 
  0.3333333E+00  0.1111111E+00  0.0000000E+00  0.1543210E-02
    1      -10.916172
    2      -10.601600
    3       -5.950603
    4       -5.747040
    5       -1.995510
    6       -1.890321
    7        0.745141
    8        2.559289
    9        7.856986
   10        8.919384
   11       13.517664
   12       13.955999
 
  0.3888889E+00  0.1111111E+00  0.0000000E+00  0.1543210E-02
    1       -9.910211
    2       -9.629030
    3       -7.247105
    4       -7.026716
    5       -2.221409
    6       -2.112563
    7        1.786421
    8        3.163336
    9        6.809506
   10        7.750760
   11       13.405437
   12       13.956822
 
  0.4444444E+00  0.1111111E+00  0.0000000E+00  0.1543210E-02
    1       -9.113258
    2       -8.963850
    3       -8.023793
    4       -7.915637
    5       -2.297268
    6       -2.187219
    7        2.410763
    8        3.237262
    9        6.550471
   10        7.115754
   11       13.363301
   12       13.929514
 
  0.5000000E+00  0.1111111E+00  0.0000000E+00  0.1543210E-02
    1       -9.910606
    2       -9.629412
    3       -7.246670
    4       -7.026273
    5       -2.221510
    6       -2.112669
    7        1.786255
    8        3.163344
    9        6.809478
   10        7.750707
   11       13.405743
   12       13.957180
 
 -0.4444444E+00  0.1111111E+00  0.0000000E+00  0.1543210E-02
    1      -10.916543
    2      -10.601968
    3       -5.950159
    4       -5.746609
    5       -1.995670
    6       -1.890495
    7        0.744949
    8        2.559228
    9        7.856897
   10        8.919220
   11       13.518318
   12       13.956727
 
 -0.3888889E+00  0.1111111E+00  0.0000000E+00  0.1543210E-02
    1      -11.826154
    2      -11.489467
    3       -4.561501
    4       -4.389158
    5       -1.622521
    6       -1.524527
    7       -0.282666
    8        1.743717
    9        9.288676
   10       10.227777
   11       13.044658
   12       13.753398
 
 -0.3333333E+00  0.1111111E+00  0.0000000E+00  0.1543210E-02
    1      -12.611014
    2      -12.256068
    3       -3.158525
    4       -3.024367
    5       -1.200408
    6       -1.106123
    7       -1.021425
    8        0.951492
    9       10.811223
   10       11.561072
   11       12.120648
   12       13.961812
 
 -0.2777778E+00  0.1111111E+00  0.0000000E+00  0.1543210E-02
    1      -13.261085
    2      -12.891245
    3       -1.973438
    4       -1.824729
    5       -1.735016
    6       -0.452978
    7       -0.391305
    8        0.262080
    9       11.340383
   10       12.270553
   11       12.853215
   12       14.108682
 
 -0.2222222E+00  0.1111111E+00  0.0000000E+00  0.1543210E-02
    1      -13.770837
    2      -13.389376
    3       -2.585244
    4       -0.672775
    5       -0.615835
    6       -0.292413
    7        0.299486
    8        0.340148
    9       10.726576
   10       13.554653
   11       13.962622
   12       14.046936
 
 -0.1666667E+00  0.1111111E+00  0.0000000E+00  0.1543210E-02
    1      -14.137019
    2      -13.747142
    3       -3.026987
    4       -0.696315
    5        0.224193
    6        0.287245
    7        1.001665
    8        1.047651
    9       10.286656
   10       13.549666
   11       13.725889
   12       14.582603
 
 -0.1111111E+00  0.1111111E+00  0.0000000E+00  0.7716049E-03
    1      -14.357429
    2      -13.962494
    3       -3.293705
    4       -0.941416
    5        0.882003
    6        0.944087
    7        1.438812
    8        1.487002
    9       10.023807
   10       13.376302
   11       13.523624
   12       14.533572
 
  0.1666667E+00  0.1666667E+00  0.0000000E+00  0.7716049E-03
    1      -12.682835
    2      -12.326254
    3       -2.738426
    4       -2.661395
    5       -1.370062
    6       -1.313901
    7       -1.284078
    8        0.879751
    9       11.071595
   10       11.683452
   11       12.041863
   12       14.902297
 
  0.2222222E+00  0.1666667E+00  0.0000000E+00  0.1543210E-02
    1      -11.968096
    2      -11.628017
    3       -3.869760
    4       -3.751787
    5       -2.147814
    6       -2.062856
    7       -0.441488
    8        1.619521
    9        9.741119
   10       10.451256
   11       12.904698
   12       15.067729
 
  0.2777778E+00  0.1666667E+00  0.0000000E+00  0.1543210E-02
    1      -11.124646
    2      -10.804555
    3       -5.147447
    4       -4.979611
    5       -2.695347
    6       -2.581759
    7        0.532294
    8        2.437250
    9        8.365107
   10        9.217691
   11       13.910471
   12       14.908052
 
  0.3333333E+00  0.1666667E+00  0.0000000E+00  0.1543210E-02
    1      -10.168651
    2       -9.874377
    3       -6.438085
    4       -6.235688
    5       -3.039263
    6       -2.911906
    7        1.585538
    8        3.209683
    9        7.132147
   10        8.035841
   11       14.702650
   12       15.055137
 
  0.3888889E+00  0.1666667E+00  0.0000000E+00  0.1543210E-02
    1       -9.172513
    2       -8.937898
    3       -7.575892
    4       -7.385534
    5       -3.206554
    6       -3.073866
    7        2.538489
    8        3.572162
    9        6.498366
   10        7.045443
   11       14.635359
   12       15.299661
 
  0.4444444E+00  0.1666667E+00  0.0000000E+00  0.1543210E-02
    1       -9.173035
    2       -8.938348
    3       -7.575418
    4       -7.384987
    5       -3.206594
    6       -3.073913
    7        2.538322
    8        3.572227
    9        6.498285
   10        7.045415
   11       14.635561
   12       15.299942
 
  0.5000000E+00  0.1666667E+00  0.0000000E+00  0.1543210E-02
    1      -10.169230
    2       -9.874947
    3       -6.437469
    4       -6.235089
    5       -3.039337
    6       -2.912007
    7        1.585280
    8        3.209657
    9        7.131969
   10        8.035661
   11       14.703321
   12       15.054931
 
 -0.4444444E+00  0.1666667E+00  0.0000000E+00  0.1543210E-02
    1      -11.125168
    2      -10.805074
    3       -5.147010
    4       -4.979236
    5       -2.695271
    6       -2.581755
    7        0.532022
    8        2.437149
    9        8.364720
   10        9.217338
   11       13.909932
   12       14.909165
 
 -0.3888889E+00  0.1666667E+00  0.0000000E+00  0.1543210E-02
    1      -11.968544
    2      -11.628464
    3       -3.869900
    4       -3.752047
    5       -2.147173
    6       -2.062350
    7       -0.441746
    8        1.619389
    9        9.740411
   10       10.450749
   11       12.904199
   12       15.070145
 
 -0.3333333E+00  0.1666667E+00  0.0000000E+00  0.1543210E-02
    1      -12.683204
    2      -12.326622
    3       -2.739749
    4       -2.662688
    5       -1.368425
    6       -1.312254
    7       -1.284306
    8        0.879616
    9       11.070532
   10       11.682827
   11       12.041455
   12       14.907678
 
 -0.2777778E+00  0.1666667E+00  0.0000000E+00  0.1543210E-02
    1      -13.261153
    2      -12.891313
    3       -1.973481
    4       -1.826301
    5       -1.736368
    6       -0.451399
    7       -0.389516
    8        0.262053
    9       11.340298
   10       12.269938
   11       12.853017
   12       14.111250
 
 -0.2222222E+00  0.1666667E+00  0.0000000E+00  0.1543210E-02
    1      -13.697854
    2      -13.318009
    3       -2.497495
    4       -1.026318
    5       -0.927458
    6       -0.212913
    7        0.373645
    8        0.436579
    9       10.810911
   10       13.302082
   11       13.448485
   12       13.728359
 
 -0.1666667E+00  0.1666667E+00  0.0000000E+00  0.7716049E-03
    1      -13.990410
    2      -13.603851
    3       -2.849897
    4       -0.534326
    5       -0.307883
    6       -0.216236
    7        0.874742
    8        0.933630
    9       10.459893
   10       13.265514
   11       13.505454
   12       14.111083
 
  0.2222222E+00  0.2222222E+00  0.0000000E+00  0.7716049E-03
    1      -11.194442
    2      -10.872759
    3       -4.660855
    4       -4.564150
    5       -3.107216
    6       -3.035160
    7        0.460099
    8        2.393596
    9        8.589642
   10        9.303999
   11       13.837562
   12       16.178736
 
  0.2777778E+00  0.2222222E+00  0.0000000E+00  0.1543210E-02
    1      -10.301760
    2      -10.002503
    3       -5.683167
    4       -5.539124
    5       -3.784008
    6       -3.676149
    7        1.474955
    8        3.216988
    9        7.402473
   10        8.184960
   11       14.892882
   12       16.215410
 
  0.3333333E+00  0.2222222E+00  0.0000000E+00  0.1543210E-02
    1       -9.320636
    2       -9.054526
    3       -6.813401
    4       -6.627225
    5       -4.141076
    6       -4.003237
    7        2.524909
    8        3.896639
    9        6.421369
   10        7.143779
   11       15.948060
   12       16.144059
 
  0.3888889E+00  0.2222222E+00  0.0000000E+00  0.1543210E-02
    1       -8.546822
    2       -8.404862
    3       -7.532328
    4       -7.453113
    5       -4.250209
    6       -4.103928
    7        3.196781
    8        3.994561
    9        6.318870
   10        6.376460
   11       15.999325
   12       16.895730
 
  0.4444444E+00  0.2222222E+00  0.0000000E+00  0.1543210E-02
    1       -9.321404
    2       -9.055274
    3       -6.812733
    4       -6.626596
    5       -4.141073
    6       -4.003186
    7        2.524642
    8        3.896724
    9        6.421032
   10        7.143637
   11       15.948053
   12       16.143248
 
  0.5000000E+00  0.2222222E+00  0.0000000E+00  0.1543210E-02
    1      -10.302491
    2      -10.003227
    3       -5.682816
    4       -5.538863
    5       -3.783519
    6       -3.675779
    7        1.474638
    8        3.216942
    9        7.401855
   10        8.184617
   11       14.891965
   12       16.216423
 
 -0.4444444E+00  0.2222222E+00  0.0000000E+00  0.1543210E-02
    1      -11.195087
    2      -10.873401
    3       -4.661484
    4       -4.564736
    5       -3.105938
    6       -3.033869
    7        0.459774
    8        2.393475
    9        8.588626
   10        9.303485
   11       13.836781
   12       16.189194
 
 -0.3888889E+00  0.2222222E+00  0.0000000E+00  0.1543210E-02
    1      -11.968639
    2      -11.628559
    3       -3.871301
    4       -3.753238
    5       -2.145721
    6       -2.060693
    7       -0.441791
    8        1.619369
    9        9.739729
   10       10.450553
   11       12.904074
   12       15.073758
 
 -0.3333333E+00  0.2222222E+00  0.0000000E+00  0.1543210E-02
    1      -12.611178
    2      -12.256231
    3       -3.160584
    4       -3.026313
    5       -1.200499
    6       -1.103689
    7       -1.018891
    8        0.951441
    9       10.810041
   10       11.560615
   11       12.120447
   12       13.965490
 
 -0.2777778E+00  0.2222222E+00  0.0000000E+00  0.1543210E-02
    1      -13.116063
    2      -12.749518
    3       -2.434956
    4       -2.300924
    5       -1.801246
    6       -0.232313
    7       -0.158506
    8        0.415149
    9       11.503488
   10       11.795686
   11       12.553943
   12       13.229056
 
 -0.2222222E+00  0.2222222E+00  0.0000000E+00  0.7716049E-03
    1      -13.479137
    2      -13.104277
    3       -2.235278
    4       -1.698128
    5       -1.575146
    6        0.024315
    7        0.277073
    8        0.344045
    9       11.067122
   10       12.659596
   11       13.046460
   12       13.383066
 
  0.2777778E+00  0.2777778E+00  0.0000000E+00  0.7716049E-03
    1       -9.377335
    2       -9.105541
    3       -6.300524
    4       -6.185723
    5       -4.644341
    6       -4.564873
    7        2.508394
    8        4.023295
    9        6.396386
   10        7.197242
   11       15.939673
   12       16.993611
 
  0.3333333E+00  0.2777778E+00  0.0000000E+00  0.1543210E-02
    1       -8.420874
    2       -8.202501
    3       -7.119879
    4       -6.983786
    5       -5.090265
    6       -4.981468
    7        3.510037
    8        4.558140
    9        5.647428
   10        6.341889
   11       16.524787
   12       16.588163
 
  0.3888889E+00  0.2777778E+00  0.0000000E+00  0.1543210E-02
    1       -8.421656
    2       -8.203208
    3       -7.119378
    4       -6.983224
    5       -5.089969
    6       -4.981114
    7        3.509887
    8        4.558399
    9        5.646974
   10        6.341770
   11       16.533359
   12       16.671263
 
  0.4444444E+00  0.2777778E+00  0.0000000E+00  0.1543210E-02
    1       -9.378260
    2       -9.106450
    3       -6.300595
    4       -6.185740
    5       -4.643313
    6       -4.563822
    7        2.508126
    8        4.023424
    9        6.395507
   10        7.196887
   11       15.938334
   12       16.965407
 
  0.5000000E+00  0.2777778E+00  0.0000000E+00  0.1543210E-02
    1      -10.302611
    2      -10.003348
    3       -5.684052
    4       -5.539907
    5       -3.782223
    6       -3.674285
    7        1.474627
    8        3.216958
    9        7.401188
   10        8.184396
   11       14.891790
   12       16.220932
 
 -0.4444444E+00  0.2777778E+00  0.0000000E+00  0.1543210E-02
    1      -11.125384
    2      -10.805291
    3       -5.148799
    4       -4.980924
    5       -2.693063
    6       -2.579455
    7        0.531953
    8        2.437136
    9        8.363492
   10        9.216862
   11       13.909653
   12       14.913487
 
 -0.3888889E+00  0.2777778E+00  0.0000000E+00  0.1543210E-02
    1      -11.826440
    2      -11.489752
    3       -4.563546
    4       -4.391151
    5       -1.619776
    6       -1.521743
    7       -0.282796
    8        1.743662
    9        9.287083
   10       10.227005
   11       13.044392
   12       13.757457
 
 -0.3333333E+00  0.2777778E+00  0.0000000E+00  0.1543210E-02
    1      -12.395645
    2      -12.045624
    3       -3.900493
    4       -3.733688
    5       -0.950248
    6       -0.759961
    7       -0.679357
    8        1.164873
    9       10.190009
   10       11.160196
   11       12.337525
   12       12.991511
 
 -0.2777778E+00  0.2777778E+00  0.0000000E+00  0.7716049E-03
    1      -12.826844
    2      -12.466901
    3       -3.174149
    4       -3.019568
    5       -1.458778
    6       -0.278356
    7       -0.206161
    8        0.718325
    9       11.051526
   10       11.829717
   11       11.961941
   12       12.791387
 
  0.3333333E+00  0.3333333E+00  0.0000000E+00  0.7716049E-03
    1       -7.666700
    2       -7.533562
    3       -7.533380
    4       -7.404544
    5       -5.475114
    6       -5.474974
    7        4.226206
    8        4.977281
    9        4.978034
   10        5.910260
   11       16.329129
   12       16.329929
 
  0.3888889E+00  0.3333333E+00  0.0000000E+00  0.1543210E-02
    1       -8.421815
    2       -8.203410
    3       -7.120283
    4       -6.984040
    5       -5.088945
    6       -4.979893
    7        3.510101
    8        4.558308
    9        5.646570
   10        6.341330
   11       16.522205
   12       16.656254
 
  0.4444444E+00  0.3333333E+00  0.0000000E+00  0.1543210E-02
    1       -9.321668
    2       -9.055547
    3       -6.814229
    4       -6.628013
    5       -4.139172
    6       -4.001202
    7        2.524747
    8        3.896759
    9        6.419882
   10        7.143060
   11       15.949051
   12       16.146624
 
  0.5000000E+00  0.3333333E+00  0.0000000E+00  0.1543210E-02
    1      -10.169590
    2       -9.875310
    3       -6.439201
    4       -6.236776
    5       -3.036892
    6       -2.909527
    7        1.585263
    8        3.209686
    9        7.130352
   10        8.034831
   11       14.707146
   12       15.055559
 
 -0.4444444E+00  0.3333333E+00  0.0000000E+00  0.1543210E-02
    1      -10.916974
    2      -10.602400
    3       -5.952018
    4       -5.748439
    5       -1.992838
    6       -1.887649
    7        0.744829
    8        2.559209
    9        7.855018
   10        8.918115
   11       13.522275
   12       13.959483
 
 -0.3888889E+00  0.3333333E+00  0.0000000E+00  0.1543210E-02
    1      -11.543586
    2      -11.213699
    3       -5.353074
    4       -5.155715
    5       -1.176621
    6       -1.091635
    7        0.031474
    8        1.984412
    9        8.623060
   10        9.759878
   11       12.716871
   12       13.110801
 
 -0.3333333E+00  0.3333333E+00  0.0000000E+00  0.7716049E-03
    1      -12.038688
    2      -11.696760
    3       -4.658011
    4       -4.472799
    5       -0.744538
    6       -0.668734
    7       -0.537270
    8        1.513205
    9        9.420664
   10       10.528438
   11       12.462284
   12       12.731050
 
  0.3888889E+00  0.3888889E+00  0.0000000E+00  0.7716049E-03
    1       -8.547489
    2       -8.405599
    3       -7.533459
    4       -7.454209
    5       -4.248166
    6       -4.101849
    7        3.197172
    8        3.994271
    9        6.317949
   10        6.375236
   11       16.003920
   12       16.899557
 
  0.4444444E+00  0.3888889E+00  0.0000000E+00  0.1543210E-02
    1       -9.173563
    2       -8.938920
    3       -7.576927
    4       -7.386497
    5       -3.204115
    6       -3.071419
    7        2.538577
    8        3.572068
    9        6.496606
   10        7.044140
   11       14.640183
   12       15.304562
 
  0.5000000E+00  0.3888889E+00  0.0000000E+00  0.1543210E-02
    1       -9.911200
    2       -9.630014
    3       -7.248295
    4       -7.027879
    5       -2.218684
    6       -2.109837
    7        1.786285
    8        3.163318
    9        6.807459
   10        7.749224
   11       13.410136
   12       13.961551
 
 -0.4444444E+00  0.3888889E+00  0.0000000E+00  0.1543210E-02
    1      -10.574811
    2      -10.270234
    3       -6.736163
    4       -6.514620
    5       -1.463056
    6       -1.375479
    7        1.086528
    8        2.731896
    9        7.297244
   10        8.451248
   11       12.571103
   12       13.072417
 
 -0.3888889E+00  0.3888889E+00  0.0000000E+00  0.7716049E-03
    1      -11.124091
    2      -10.804389
    3       -6.093810
    4       -5.881011
    5       -1.093450
    6       -1.015113
    7        0.492847
    8        2.323913
    9        7.924734
   10        9.137820
   11       12.316278
   12       12.786858
 
  0.4444444E+00  0.4444444E+00  0.0000000E+00  0.7716049E-03
    1       -9.114047
    2       -8.964747
    3       -8.025064
    4       -7.916908
    5       -2.294413
    6       -2.184417
    7        2.411101
    8        3.236951
    9        6.548695
   10        7.113865
   11       13.367883
   12       13.934117
 
  0.5000000E+00  0.4444444E+00  0.0000000E+00  0.1543210E-02
    1       -9.560024
    2       -9.316467
    3       -7.924433
    4       -7.720090
    5       -1.608832
    6       -1.519919
    7        2.020574
    8        3.056253
    9        6.607734
   10        7.450148
   11       12.488542
   12       13.014679
 
 -0.4444444E+00  0.4444444E+00  0.0000000E+00  0.7716049E-03
    1      -10.110461
    2       -9.824165
    3       -7.418692
    4       -7.191075
    5       -1.308302
    6       -1.228549
    7        1.531072
    8        2.909637
    9        6.850434
   10        7.928451
   11       12.195915
   12       12.705848
 
  0.5000000E+00  0.5000000E+00  0.0000000E+00  0.3858025E-03
    1       -9.303356
    2       -9.151639
    3       -8.209309
    4       -8.096267
    5       -1.380955
    6       -1.300431
    7        2.144944
    8        2.978483
    9        6.555890
   10        7.314983
   11       12.154075
   12       12.674736
 