# Thermal properties / unit cell (natom)

unit:
  temperature:   K
  free_energy:   kJ/mol
  entropy:       J/K/mol
  heat_capacity: J/K/mol

natom:     4
num_modes: 3888
num_integrated_modes: 3856

zero_point_energy:      66.6643361
high_T_entropy:        225.1900965

thermal_properties:
- temperature:         0.0000000
  free_energy:        66.6643361
  entropy:             0.0000000
  heat_capacity:       0.0000000
  energy:             66.6643361

- temperature:        10.0000000
  free_energy:        66.6643358
  entropy:             0.0003143
  heat_capacity:       0.0025175
  energy:             66.6643390

- temperature:        20.0000000
  free_energy:        66.6642803
  entropy:             0.0154498
  heat_capacity:       0.0582720
  energy:             66.6645893

- temperature:        30.0000000
  free_energy:        66.6639436
  entropy:             0.0551157
  heat_capacity:       0.1463157
  energy:             66.6655971

- temperature:        40.0000000
  free_energy:        66.6631199
  entropy:             0.1126335
  heat_capacity:       0.2676805
  energy:             66.6676252

- temperature:        50.0000000
  free_energy:        66.6616217
  entropy:             0.1910286
  heat_capacity:       0.4556666
  energy:             66.6711732

- temperature:        60.0000000
  free_energy:        66.6592054
  entropy:             0.2976221
  heat_capacity:       0.7407349
  energy:             66.6770628

- temperature:        70.0000000
  free_energy:        66.6555476
  entropy:             0.4406973
  heat_capacity:       1.1481218
  energy:             66.6863965

- temperature:        80.0000000
  free_energy:        66.6502435
  entropy:             0.6281218
  heat_capacity:       1.6956604
  energy:             66.7004933

- temperature:        90.0000000
  free_energy:        66.6428148
  entropy:             0.8666185
  heat_capacity:       2.3931754
  energy:             66.7208105

- temperature:       100.0000000
  free_energy:        66.6327233
  entropy:             1.1614079
  heat_capacity:       3.2426491
  energy:             66.7488641

- temperature:       110.0000000
  free_energy:        66.6193869
  entropy:             1.5160559
  heat_capacity:       4.2388068
  energy:             66.7861531

- temperature:       120.0000000
  free_energy:        66.6021962
  entropy:             1.9324639
  heat_capacity:       5.3702932
  energy:             66.8340918

- temperature:       130.0000000
  free_energy:        66.5805305
  entropy:             2.4109798
  heat_capacity:       6.6213698
  energy:             66.8939578

- temperature:       140.0000000
  free_energy:        66.5537728
  entropy:             2.9506031
  heat_capacity:       7.9738106
  energy:             66.9668572

- temperature:       150.0000000
  free_energy:        66.5213216
  entropy:             3.5492472
  heat_capacity:       9.4086550
  energy:             67.0537087

- temperature:       160.0000000
  free_energy:        66.4826007
  entropy:             4.2040194
  heat_capacity:      10.9075964
  energy:             67.1552438

- temperature:       170.0000000
  free_energy:        66.4370655
  entropy:             4.9114870
  heat_capacity:      12.4539242
  energy:             67.2720183

- temperature:       180.0000000
  free_energy:        66.3842077
  entropy:             5.6679088
  heat_capacity:      14.0330472
  energy:             67.4044313

- temperature:       190.0000000
  free_energy:        66.3235570
  entropy:             6.4694227
  heat_capacity:      15.6326761
  energy:             67.5527473

- temperature:       200.0000000
  free_energy:        66.2546818
  entropy:             7.3121885
  heat_capacity:      17.2427659
  energy:             67.7171195

- temperature:       210.0000000
  free_energy:        66.1771882
  entropy:             8.1924880
  heat_capacity:      18.8553073
  energy:             67.8976106

- temperature:       220.0000000
  free_energy:        66.0907187
  entropy:             9.1067912
  heat_capacity:      20.4640437
  energy:             68.0942128

- temperature:       230.0000000
  free_energy:        65.9949500
  entropy:            10.0517941
  heat_capacity:      22.0641652
  energy:             68.3068627

- temperature:       240.0000000
  free_energy:        65.8895907
  entropy:            11.0244348
  heat_capacity:      23.6520145
  energy:             68.5354551

- temperature:       250.0000000
  free_energy:        65.7743786
  entropy:            12.0218965
  heat_capacity:      25.2248263
  energy:             68.7798528

- temperature:       260.0000000
  free_energy:        65.6490787
  entropy:            13.0415991
  heat_capacity:      26.7805060
  energy:             69.0398944

- temperature:       270.0000000
  free_energy:        65.5134804
  entropy:            14.0811852
  heat_capacity:      28.3174521
  energy:             69.3154004

- temperature:       280.0000000
  free_energy:        65.3673959
  entropy:            15.1385034
  heat_capacity:      29.8344178
  energy:             69.6061768

- temperature:       290.0000000
  free_energy:        65.2106578
  entropy:            16.2115898
  heat_capacity:      31.3304079
  energy:             69.9120188

- temperature:       300.0000000
  free_energy:        65.0431175
  entropy:            17.2986494
  heat_capacity:      32.8046035
  energy:             70.2327123

- temperature:       310.0000000
  free_energy:        64.8646437
  entropy:            18.3980394
  heat_capacity:      34.2563105
  energy:             70.5680359

- temperature:       320.0000000
  free_energy:        64.6751207
  entropy:            19.5082528
  heat_capacity:      35.6849256
  energy:             70.9177616

- temperature:       330.0000000
  free_energy:        64.4744472
  entropy:            20.6279044
  heat_capacity:      37.0899146
  energy:             71.2816557

- temperature:       340.0000000
  free_energy:        64.2625354
  entropy:            21.7557180
  heat_capacity:      38.4708003
  energy:             71.6594795

- temperature:       350.0000000
  free_energy:        64.0393096
  entropy:            22.8905152
  heat_capacity:      39.8271571
  energy:             72.0509899

- temperature:       360.0000000
  free_energy:        63.8047055
  entropy:            24.0312061
  heat_capacity:      41.1586085
  energy:             72.4559396

- temperature:       370.0000000
  free_energy:        63.5586692
  entropy:            25.1767805
  heat_capacity:      42.4648276
  energy:             72.8740780

- temperature:       380.0000000
  free_energy:        63.3011567
  entropy:            26.3263012
  heat_capacity:      43.7455385
  energy:             73.3051512

- temperature:       390.0000000
  free_energy:        63.0321329
  entropy:            27.4788975
  heat_capacity:      45.0005180
  energy:             73.7489030

- temperature:       400.0000000
  free_energy:        62.7515712
  entropy:            28.6337599
  heat_capacity:      46.2295969
  energy:             74.2050752

- temperature:       410.0000000
  free_energy:        62.4594527
  entropy:            29.7901353
  heat_capacity:      47.4326606
  energy:             74.6734082

- temperature:       420.0000000
  free_energy:        62.1557658
  entropy:            30.9473230
  heat_capacity:      48.6096496
  energy:             75.1536415

- temperature:       430.0000000
  free_energy:        61.8405057
  entropy:            32.1046710
  heat_capacity:      49.7605589
  energy:             75.6455142

- temperature:       440.0000000
  free_energy:        61.5136739
  entropy:            33.2615727
  heat_capacity:      50.8854362
  energy:             76.1487659

- temperature:       450.0000000
  free_energy:        61.1752776
  entropy:            34.4174642
  heat_capacity:      51.9843805
  energy:             76.6631365

- temperature:       460.0000000
  free_energy:        60.8253297
  entropy:            35.5718213
  heat_capacity:      53.0575396
  energy:             77.1883675

- temperature:       470.0000000
  free_energy:        60.4638479
  entropy:            36.7241576
  heat_capacity:      54.1051067
  energy:             77.7242020

- temperature:       480.0000000
  free_energy:        60.0908548
  entropy:            37.8740215
  heat_capacity:      55.1273178
  energy:             78.2703851

- temperature:       490.0000000
  free_energy:        59.7063771
  entropy:            39.0209951
  heat_capacity:      56.1244481
  energy:             78.8266647

- temperature:       500.0000000
  free_energy:        59.3104458
  entropy:            40.1646914
  heat_capacity:      57.0968082
  energy:             79.3927915

- temperature:       510.0000000
  free_energy:        58.9030954
  entropy:            41.3047530
  heat_capacity:      58.0447408
  energy:             79.9685195

- temperature:       520.0000000
  free_energy:        58.4843640
  entropy:            42.4408503
  heat_capacity:      58.9686170
  energy:             80.5536061

- temperature:       530.0000000
  free_energy:        58.0542926
  entropy:            43.5726798
  heat_capacity:      59.8688331
  energy:             81.1478129

- temperature:       540.0000000
  free_energy:        57.6129255
  entropy:            44.6999626
  heat_capacity:      60.7458066
  energy:             81.7509053

- temperature:       550.0000000
  free_energy:        57.1603094
  entropy:            45.8224430
  heat_capacity:      61.5999736
  energy:             82.3626530

- temperature:       560.0000000
  free_energy:        56.6964935
  entropy:            46.9398872
  heat_capacity:      62.4317854
  energy:             82.9828303

- temperature:       570.0000000
  free_energy:        56.2215292
  entropy:            48.0520818
  heat_capacity:      63.2417058
  energy:             83.6112158

- temperature:       580.0000000
  free_energy:        55.7354700
  entropy:            49.1588328
  heat_capacity:      64.0302082
  energy:             84.2475930

- temperature:       590.0000000
  free_energy:        55.2383712
  entropy:            50.2599643
  heat_capacity:      64.7977733
  energy:             84.8917502

- temperature:       600.0000000
  free_energy:        54.7302900
  entropy:            51.3553172
  heat_capacity:      65.5448872
  energy:             85.5434803

- temperature:       610.0000000
  free_energy:        54.2112846
  entropy:            52.4447487
  heat_capacity:      66.2720385
  energy:             86.2025814

- temperature:       620.0000000
  free_energy:        53.6814151
  entropy:            53.5281307
  heat_capacity:      66.9797172
  energy:             86.8688562

- temperature:       630.0000000
  free_energy:        53.1407426
  entropy:            54.6053490
  heat_capacity:      67.6684128
  energy:             87.5421124

- temperature:       640.0000000
  free_energy:        52.5893291
  entropy:            55.6763027
  heat_capacity:      68.3386125
  energy:             88.2221628

- temperature:       650.0000000
  free_energy:        52.0272377
  entropy:            56.7409030
  heat_capacity:      68.9908004
  energy:             88.9088246

- temperature:       660.0000000
  free_energy:        51.4545324
  entropy:            57.7990726
  heat_capacity:      69.6254559
  energy:             89.6019203

- temperature:       670.0000000
  free_energy:        50.8712779
  entropy:            58.8507448
  heat_capacity:      70.2430530
  energy:             90.3012769

- temperature:       680.0000000
  free_energy:        50.2775394
  entropy:            59.8958628
  heat_capacity:      70.8440592
  energy:             91.0067261

- temperature:       690.0000000
  free_energy:        49.6733827
  entropy:            60.9343792
  heat_capacity:      71.4289348
  energy:             91.7181043

- temperature:       700.0000000
  free_energy:        49.0588739
  entropy:            61.9662551
  heat_capacity:      71.9981322
  energy:             92.4352525

- temperature:       710.0000000
  free_energy:        48.4340798
  entropy:            62.9914597
  heat_capacity:      72.5520956
  energy:             93.1580162

- temperature:       720.0000000
  free_energy:        47.7990671
  entropy:            64.0099695
  heat_capacity:      73.0912602
  energy:             93.8862451

- temperature:       730.0000000
  free_energy:        47.1539028
  entropy:            65.0217681
  heat_capacity:      73.6160521
  energy:             94.6197935

- temperature:       740.0000000
  free_energy:        46.4986541
  entropy:            66.0268453
  heat_capacity:      74.1268879
  energy:             95.3585196

- temperature:       750.0000000
  free_energy:        45.8333883
  entropy:            67.0251970
  heat_capacity:      74.6241746
  energy:             96.1022861

- temperature:       760.0000000
  free_energy:        45.1581726
  entropy:            68.0168246
  heat_capacity:      75.1083093
  energy:             96.8509593

- temperature:       770.0000000
  free_energy:        44.4730742
  entropy:            69.0017344
  heat_capacity:      75.5796791
  energy:             97.6044097

- temperature:       780.0000000
  free_energy:        43.7781602
  entropy:            69.9799376
  heat_capacity:      76.0386614
  energy:             98.3625116

- temperature:       790.0000000
  free_energy:        43.0734977
  entropy:            70.9514495
  heat_capacity:      76.4856232
  energy:             99.1251429

- temperature:       800.0000000
  free_energy:        42.3591535
  entropy:            71.9162896
  heat_capacity:      76.9209218
  energy:             99.8921852

- temperature:       810.0000000
  free_energy:        41.6351941
  entropy:            72.8744808
  heat_capacity:      77.3449046
  energy:            100.6635236

- temperature:       820.0000000
  free_energy:        40.9016859
  entropy:            73.8260496
  heat_capacity:      77.7579091
  energy:            101.4390467

- temperature:       830.0000000
  free_energy:        40.1586951
  entropy:            74.7710255
  heat_capacity:      78.1602631
  energy:            102.2186463

- temperature:       840.0000000
  free_energy:        39.4062873
  entropy:            75.7094407
  heat_capacity:      78.5522849
  energy:            103.0022175

- temperature:       850.0000000
  free_energy:        38.6445280
  entropy:            76.6413300
  heat_capacity:      78.9342835
  energy:            103.7896585

- temperature:       860.0000000
  free_energy:        37.8734823
  entropy:            77.5667307
  heat_capacity:      79.3065583
  energy:            104.5808707

- temperature:       870.0000000
  free_energy:        37.0932149
  entropy:            78.4856820
  heat_capacity:      79.6694001
  energy:            105.3757583

- temperature:       880.0000000
  free_energy:        36.3037901
  entropy:            79.3982252
  heat_capacity:      80.0230905
  energy:            106.1742282

- temperature:       890.0000000
  free_energy:        35.5052716
  entropy:            80.3044032
  heat_capacity:      80.3679026
  energy:            106.9761905

- temperature:       900.0000000
  free_energy:        34.6977231
  entropy:            81.2042606
  heat_capacity:      80.7041008
  energy:            107.7815576

- temperature:       910.0000000
  free_energy:        33.8812073
  entropy:            82.0978432
  heat_capacity:      81.0319416
  energy:            108.5902446

- temperature:       920.0000000
  free_energy:        33.0557870
  entropy:            82.9851983
  heat_capacity:      81.3516731
  energy:            109.4021694

- temperature:       930.0000000
  free_energy:        32.2215240
  entropy:            83.8663741
  heat_capacity:      81.6635358
  energy:            110.2172519

- temperature:       940.0000000
  free_energy:        31.3784799
  entropy:            84.7414199
  heat_capacity:      81.9677625
  energy:            111.0354146

- temperature:       950.0000000
  free_energy:        30.5267158
  entropy:            85.6103859
  heat_capacity:      82.2645785
  energy:            111.8565824

- temperature:       960.0000000
  free_energy:        29.6662923
  entropy:            86.4733229
  heat_capacity:      82.5542020
  energy:            112.6806822

- temperature:       970.0000000
  free_energy:        28.7972693
  entropy:            87.3302824
  heat_capacity:      82.8368442
  energy:            113.5076432

- temperature:       980.0000000
  free_energy:        27.9197064
  entropy:            88.1813165
  heat_capacity:      83.1127095
  energy:            114.3373965

- temperature:       990.0000000
  free_energy:        27.0336625
  entropy:            89.0264777
  heat_capacity:      83.3819958
  energy:            115.1698755

- temperature:      1000.0000000
  free_energy:        26.1391962
  entropy:            89.8658189
  heat_capacity:      83.6448945
  energy:            116.0050152
