# Thermal properties / unit cell (natom)

unit:
  temperature:   K
  free_energy:   kJ/mol
  entropy:       J/K/mol
  heat_capacity: J/K/mol

natom:     4
num_modes: 3888
num_integrated_modes: 2248

zero_point_energy:      18.9760785
high_T_entropy:        170.8391117

thermal_properties:
- temperature:         0.0000000
  free_energy:        18.9760785
  entropy:             0.0000000
  heat_capacity:       0.0000000
  energy:             18.9760785

- temperature:        10.0000000
  free_energy:        18.9760034
  entropy:             0.0385320
  heat_capacity:       0.1365209
  energy:             18.9763887

- temperature:        20.0000000
  free_energy:        18.9745953
  entropy:             0.2709549
  heat_capacity:       0.6103335
  energy:             18.9800144

- temperature:        30.0000000
  free_energy:        18.9702114
  entropy:             0.6183003
  heat_capacity:       1.1434390
  energy:             18.9887604

- temperature:        40.0000000
  free_energy:        18.9620353
  entropy:             1.0252711
  heat_capacity:       1.7264326
  energy:             19.0030461

- temperature:        50.0000000
  free_energy:        18.9495433
  entropy:             1.4813212
  heat_capacity:       2.4042990
  energy:             19.0236094

- temperature:        60.0000000
  free_energy:        18.9322405
  entropy:             1.9879000
  heat_capacity:       3.1968078
  energy:             19.0515145

- temperature:        70.0000000
  free_energy:        18.9096067
  entropy:             2.5480997
  heat_capacity:       4.1180657
  energy:             19.0879737

- temperature:        80.0000000
  free_energy:        18.8810860
  entropy:             3.1660925
  heat_capacity:       5.1885157
  energy:             19.1343734

- temperature:        90.0000000
  free_energy:        18.8460752
  entropy:             3.8469796
  heat_capacity:       6.4263011
  energy:             19.1923033

- temperature:       100.0000000
  free_energy:        18.8039205
  entropy:             4.5955585
  heat_capacity:       7.8366097
  energy:             19.2634764

- temperature:       110.0000000
  free_energy:        18.7539276
  entropy:             5.4149699
  heat_capacity:       9.4080805
  energy:             19.3495743

- temperature:       120.0000000
  free_energy:        18.6953824
  entropy:             6.3059158
  heat_capacity:      11.1155681
  energy:             19.4520923

- temperature:       130.0000000
  free_energy:        18.6275768
  entropy:             7.2665484
  heat_capacity:      12.9256877
  energy:             19.5722280

- temperature:       140.0000000
  free_energy:        18.5498324
  entropy:             8.2928227
  heat_capacity:      14.8023334
  energy:             19.7108276

- temperature:       150.0000000
  free_energy:        18.4615203
  entropy:             9.3790679
  heat_capacity:      16.7108463
  energy:             19.8683805

- temperature:       160.0000000
  free_energy:        18.3620734
  entropy:            10.5185909
  heat_capacity:      18.6205698
  energy:             20.0450480

- temperature:       170.0000000
  free_energy:        18.2509948
  entropy:            11.7042095
  heat_capacity:      20.5060453
  energy:             20.2407104

- temperature:       180.0000000
  free_energy:        18.1278598
  entropy:            12.9286721
  heat_capacity:      22.3472532
  energy:             20.4550208

- temperature:       190.0000000
  free_energy:        17.9923153
  entropy:            14.1849598
  heat_capacity:      24.1292732
  energy:             20.6874577

- temperature:       200.0000000
  free_energy:        17.8440765
  entropy:            15.4664857
  heat_capacity:      25.8416501
  energy:             20.9373737

- temperature:       210.0000000
  free_energy:        17.6829217
  entropy:            16.7672100
  heat_capacity:      27.4776528
  energy:             21.2040358

- temperature:       220.0000000
  free_energy:        17.5086865
  entropy:            18.0816950
  heat_capacity:      29.0335422
  energy:             21.4866594

- temperature:       230.0000000
  free_energy:        17.3212581
  entropy:            19.4051158
  heat_capacity:      30.5079070
  energy:             21.7844347

- temperature:       240.0000000
  free_energy:        17.1205686
  entropy:            20.7332427
  heat_capacity:      31.9010936
  energy:             22.0965468

- temperature:       250.0000000
  free_energy:        16.9065898
  entropy:            22.0624060
  heat_capacity:      33.2147337
  energy:             22.4221913

- temperature:       260.0000000
  free_energy:        16.6793276
  entropy:            23.3894506
  heat_capacity:      34.4513656
  energy:             22.7605847

- temperature:       270.0000000
  free_energy:        16.4388169
  entropy:            24.7116870
  heat_capacity:      35.6141355
  energy:             23.1109724

- temperature:       280.0000000
  free_energy:        16.1851175
  entropy:            26.0268410
  heat_capacity:      36.7065682
  energy:             23.4726330

- temperature:       290.0000000
  free_energy:        15.9183101
  entropy:            27.3330057
  heat_capacity:      37.7323929
  energy:             23.8448817

- temperature:       300.0000000
  free_energy:        15.6384927
  entropy:            28.6285961
  heat_capacity:      38.6954146
  energy:             24.2270715

- temperature:       310.0000000
  free_energy:        15.3457778
  entropy:            29.9123081
  heat_capacity:      39.5994203
  energy:             24.6185933

- temperature:       320.0000000
  free_energy:        15.0402897
  entropy:            31.1830809
  heat_capacity:      40.4481129
  energy:             25.0188755

- temperature:       330.0000000
  free_energy:        14.7221621
  entropy:            32.4400635
  heat_capacity:      41.2450656
  energy:             25.4273831

- temperature:       340.0000000
  free_energy:        14.3915366
  entropy:            33.6825858
  heat_capacity:      41.9936929
  energy:             25.8436158

- temperature:       350.0000000
  free_energy:        14.0485604
  entropy:            34.9101324
  heat_capacity:      42.6972323
  energy:             26.2671067

- temperature:       360.0000000
  free_energy:        13.6933852
  entropy:            36.1223199
  heat_capacity:      43.3587364
  energy:             26.6974203

- temperature:       370.0000000
  free_energy:        13.3261661
  entropy:            37.3188778
  heat_capacity:      43.9810696
  energy:             27.1341509

- temperature:       380.0000000
  free_energy:        12.9470603
  entropy:            38.4996311
  heat_capacity:      44.5669105
  energy:             27.5769201

- temperature:       390.0000000
  free_energy:        12.5562264
  entropy:            39.6644855
  heat_capacity:      45.1187571
  energy:             28.0253758

- temperature:       400.0000000
  free_energy:        12.1538237
  entropy:            40.8134151
  heat_capacity:      45.6389336
  energy:             28.4791897

- temperature:       410.0000000
  free_energy:        11.7400111
  entropy:            41.9464511
  heat_capacity:      46.1295995
  energy:             28.9380561

- temperature:       420.0000000
  free_energy:        11.3149474
  entropy:            43.0636730
  heat_capacity:      46.5927585
  energy:             29.4016900

- temperature:       430.0000000
  free_energy:        10.8787900
  entropy:            44.1651995
  heat_capacity:      47.0302682
  energy:             29.8698258

- temperature:       440.0000000
  free_energy:        10.4316952
  entropy:            45.2511828
  heat_capacity:      47.4438495
  energy:             30.3422156

- temperature:       450.0000000
  free_energy:         9.9738176
  entropy:            46.3218018
  heat_capacity:      47.8350965
  energy:             30.8186283

- temperature:       460.0000000
  free_energy:         9.5053097
  entropy:            47.3772573
  heat_capacity:      48.2054852
  energy:             31.2988480

- temperature:       470.0000000
  free_energy:         9.0263222
  entropy:            48.4177678
  heat_capacity:      48.5563822
  energy:             31.7826731

- temperature:       480.0000000
  free_energy:         8.5370034
  entropy:            49.4435657
  heat_capacity:      48.8890533
  energy:             32.2699149

- temperature:       490.0000000
  free_energy:         8.0374991
  entropy:            50.4548942
  heat_capacity:      49.2046705
  energy:             32.7603973

- temperature:       500.0000000
  free_energy:         7.5279529
  entropy:            51.4520045
  heat_capacity:      49.5043202
  energy:             33.2539551

- temperature:       510.0000000
  free_energy:         7.0085056
  entropy:            52.4351535
  heat_capacity:      49.7890089
  energy:             33.7504339

- temperature:       520.0000000
  free_energy:         6.4792955
  entropy:            53.4046021
  heat_capacity:      50.0596701
  energy:             34.2496886

- temperature:       530.0000000
  free_energy:         5.9404583
  entropy:            54.3606133
  heat_capacity:      50.3171698
  energy:             34.7515834

- temperature:       540.0000000
  free_energy:         5.3921271
  entropy:            55.3034512
  heat_capacity:      50.5623118
  energy:             35.2559908

- temperature:       550.0000000
  free_energy:         4.8344323
  entropy:            56.2333792
  heat_capacity:      50.7958425
  energy:             35.7627909

- temperature:       560.0000000
  free_energy:         4.2675017
  entropy:            57.1506599
  heat_capacity:      51.0184557
  energy:             36.2718712

- temperature:       570.0000000
  free_energy:         3.6914604
  entropy:            58.0555533
  heat_capacity:      51.2307964
  energy:             36.7831258

- temperature:       580.0000000
  free_energy:         3.1064311
  entropy:            58.9483170
  heat_capacity:      51.4334648
  energy:             37.2964549

- temperature:       590.0000000
  free_energy:         2.5125337
  entropy:            59.8292052
  heat_capacity:      51.6270198
  energy:             37.8117647

- temperature:       600.0000000
  free_energy:         1.9098857
  entropy:            60.6984683
  heat_capacity:      51.8119820
  energy:             38.3289667

- temperature:       610.0000000
  free_energy:         1.2986023
  entropy:            61.5563526
  heat_capacity:      51.9888366
  energy:             38.8479773

- temperature:       620.0000000
  free_energy:         0.6787958
  entropy:            62.4031002
  heat_capacity:      52.1580366
  energy:             39.3687179

- temperature:       630.0000000
  free_energy:         0.0505766
  entropy:            63.2389483
  heat_capacity:      52.3200046
  energy:             39.8911140

- temperature:       640.0000000
  free_energy:        -0.5859476
  entropy:            64.0641294
  heat_capacity:      52.4751356
  energy:             40.4150952

- temperature:       650.0000000
  free_energy:        -1.2306712
  entropy:            64.8788713
  heat_capacity:      52.6237987
  energy:             40.9405951

- temperature:       660.0000000
  free_energy:        -1.8834910
  entropy:            65.6833966
  heat_capacity:      52.7663392
  energy:             41.4675508

- temperature:       670.0000000
  free_energy:        -2.5443058
  entropy:            66.4779230
  heat_capacity:      52.9030805
  energy:             41.9959026

- temperature:       680.0000000
  free_energy:        -3.2130168
  entropy:            67.2626631
  heat_capacity:      53.0343252
  energy:             42.5255941

- temperature:       690.0000000
  free_energy:        -3.8895271
  entropy:            68.0378244
  heat_capacity:      53.1603572
  energy:             43.0565717

- temperature:       700.0000000
  free_energy:        -4.5737421
  entropy:            68.8036097
  heat_capacity:      53.2814428
  energy:             43.5887847

- temperature:       710.0000000
  free_energy:        -5.2655687
  entropy:            69.5602164
  heat_capacity:      53.3978318
  energy:             44.1221849

- temperature:       720.0000000
  free_energy:        -5.9649164
  entropy:            70.3078374
  heat_capacity:      53.5097588
  energy:             44.6567265

- temperature:       730.0000000
  free_energy:        -6.6716962
  entropy:            71.0466605
  heat_capacity:      53.6174444
  energy:             45.1923660

- temperature:       740.0000000
  free_energy:        -7.3858209
  entropy:            71.7768687
  heat_capacity:      53.7210959
  energy:             45.7290619

- temperature:       750.0000000
  free_energy:        -8.1072054
  entropy:            72.4986407
  heat_capacity:      53.8209085
  energy:             46.2667751

- temperature:       760.0000000
  free_energy:        -8.8357662
  entropy:            73.2121502
  heat_capacity:      53.9170659
  energy:             46.8054679

- temperature:       770.0000000
  free_energy:        -9.5714215
  entropy:            73.9175666
  heat_capacity:      54.0097411
  energy:             47.3451048

- temperature:       780.0000000
  free_energy:       -10.3140911
  entropy:            74.6150549
  heat_capacity:      54.0990973
  energy:             47.8856517

- temperature:       790.0000000
  free_energy:       -11.0636967
  entropy:            75.3047758
  heat_capacity:      54.1852885
  energy:             48.4270762

- temperature:       800.0000000
  free_energy:       -11.8201612
  entropy:            75.9868858
  heat_capacity:      54.2684598
  energy:             48.9693474

- temperature:       810.0000000
  free_energy:       -12.5834095
  entropy:            76.6615374
  heat_capacity:      54.3487484
  energy:             49.5124358

- temperature:       820.0000000
  free_energy:       -13.3533676
  entropy:            77.3288790
  heat_capacity:      54.4262839
  energy:             50.0563132

- temperature:       830.0000000
  free_energy:       -14.1299632
  entropy:            77.9890553
  heat_capacity:      54.5011889
  energy:             50.6009527

- temperature:       840.0000000
  free_energy:       -14.9131253
  entropy:            78.6422070
  heat_capacity:      54.5735791
  energy:             51.1463286

- temperature:       850.0000000
  free_energy:       -15.7027844
  entropy:            79.2884714
  heat_capacity:      54.6435643
  energy:             51.6924163

- temperature:       860.0000000
  free_energy:       -16.4988722
  entropy:            79.9279819
  heat_capacity:      54.7112483
  energy:             52.2391922

- temperature:       870.0000000
  free_energy:       -17.3013220
  entropy:            80.5608688
  heat_capacity:      54.7767295
  energy:             52.7866339

- temperature:       880.0000000
  free_energy:       -18.1100680
  entropy:            81.1872588
  heat_capacity:      54.8401012
  energy:             53.3347198

- temperature:       890.0000000
  free_energy:       -18.9250459
  entropy:            81.8072753
  heat_capacity:      54.9014519
  energy:             53.8834292

- temperature:       900.0000000
  free_energy:       -19.7461926
  entropy:            82.4210388
  heat_capacity:      54.9608654
  energy:             54.4327423

- temperature:       910.0000000
  free_energy:       -20.5734462
  entropy:            83.0286665
  heat_capacity:      55.0184215
  energy:             54.9826403

- temperature:       920.0000000
  free_energy:       -21.4067459
  entropy:            83.6302725
  heat_capacity:      55.0741958
  energy:             55.5331048

- temperature:       930.0000000
  free_energy:       -22.2460320
  entropy:            84.2259682
  heat_capacity:      55.1282602
  energy:             56.0841185

- temperature:       940.0000000
  free_energy:       -23.0912459
  entropy:            84.8158622
  heat_capacity:      55.1806831
  energy:             56.6356646

- temperature:       950.0000000
  free_energy:       -23.9423302
  entropy:            85.4000601
  heat_capacity:      55.2315295
  energy:             57.1877269

- temperature:       960.0000000
  free_energy:       -24.7992285
  entropy:            85.9786652
  heat_capacity:      55.2808614
  energy:             57.7402901

- temperature:       970.0000000
  free_energy:       -25.6618852
  entropy:            86.5517778
  heat_capacity:      55.3287375
  energy:             58.2933393

- temperature:       980.0000000
  free_energy:       -26.5302460
  entropy:            87.1194961
  heat_capacity:      55.3752140
  energy:             58.8468602

- temperature:       990.0000000
  free_energy:       -27.4042575
  entropy:            87.6819157
  heat_capacity:      55.4203444
  energy:             59.4008391

- temperature:      1000.0000000
  free_energy:       -28.2838670
  entropy:            88.2391298
  heat_capacity:      55.4641796
  energy:             59.9552628
