   4   4   0   0
  0.9079817E+01  0.2466437E-09  0.2466437E-09  0.6897021E-09  0.5000000E-15
  1.000000000000000E-004
  CAR 
 graphite                                
     18.21540940    -17.16721639  301      4.43934944      1.00000000
    -17.167  0.0000E+00  0.0000E+00
    -17.049  0.0000E+00  0.0000E+00
    -16.931  0.0000E+00  0.0000E+00
    -16.813  0.0000E+00  0.0000E+00
    -16.695  0.0000E+00  0.0000E+00
    -16.578  0.0000E+00  0.0000E+00
    -16.460  0.0000E+00  0.0000E+00
    -16.342  0.0000E+00  0.0000E+00
    -16.224  0.0000E+00  0.0000E+00
    -16.106  0.0000E+00  0.0000E+00
    -15.988  0.0000E+00  0.0000E+00
    -15.870  0.0000E+00  0.0000E+00
    -15.752  0.0000E+00  0.0000E+00
    -15.634  0.0000E+00  0.0000E+00
    -15.516  0.0000E+00  0.0000E+00
    -15.398  0.0000E+00  0.0000E+00
    -15.280  0.0000E+00  0.0000E+00
    -15.162  0.1226E-04  0.2049E-07
    -15.044  0.1377E-02  0.9520E-04
    -14.926  0.2624E-02  0.3225E-03
    -14.808  0.3014E-02  0.6775E-03
    -14.690  0.3098E-02  0.1042E-02
    -14.572  0.3087E-02  0.1405E-02
    -14.455  0.3091E-02  0.1770E-02
    -14.337  0.3078E-02  0.2131E-02
    -14.219  0.3121E-02  0.2498E-02
    -14.101  0.3112E-02  0.2866E-02
    -13.983  0.3064E-02  0.3229E-02
    -13.865  0.3109E-02  0.3593E-02
    -13.747  0.3147E-02  0.3963E-02
    -13.629  0.3134E-02  0.4334E-02
    -13.511  0.3097E-02  0.4701E-02
    -13.393  0.3111E-02  0.5067E-02
    -13.275  0.3147E-02  0.5435E-02
    -13.157  0.3176E-02  0.5809E-02
    -13.039  0.3164E-02  0.6183E-02
    -12.921  0.3133E-02  0.6554E-02
    -12.803  0.3141E-02  0.6924E-02
    -12.685  0.3164E-02  0.7296E-02
    -12.567  0.3195E-02  0.7671E-02
    -12.450  0.3212E-02  0.8049E-02
    -12.332  0.3202E-02  0.8427E-02
    -12.214  0.3187E-02  0.8804E-02
    -12.096  0.3196E-02  0.9180E-02
    -11.978  0.3214E-02  0.9558E-02
    -11.860  0.3238E-02  0.9938E-02
    -11.742  0.3267E-02  0.1032E-01
    -11.624  0.3275E-02  0.1071E-01
    -11.506  0.3269E-02  0.1109E-01
    -11.388  0.3275E-02  0.1148E-01
    -11.270  0.3294E-02  0.1187E-01
    -11.152  0.3320E-02  0.1226E-01
    -11.034  0.3349E-02  0.1265E-01
    -10.916  0.3387E-02  0.1305E-01
    -10.798  0.3426E-02  0.1345E-01
    -10.680  0.3455E-02  0.1386E-01
    -10.562  0.3502E-02  0.1427E-01
    -10.445  0.3593E-02  0.1468E-01
    -10.327  0.3741E-02  0.1511E-01
    -10.209  0.3953E-02  0.1557E-01
    -10.091  0.4438E-02  0.1605E-01
     -9.973  0.5448E-02  0.1665E-01
     -9.855  0.4245E-02  0.1725E-01
     -9.737  0.3225E-02  0.1768E-01
     -9.619  0.3730E-02  0.1815E-01
     -9.501  0.2268E-02  0.1851E-01
     -9.383  0.2017E-02  0.1876E-01
     -9.265  0.1765E-02  0.1899E-01
     -9.147  0.1513E-02  0.1918E-01
     -9.029  0.1673E-02  0.1936E-01
     -8.911  0.1681E-02  0.1958E-01
     -8.793  0.8469E-03  0.1973E-01
     -8.675  0.1180E-02  0.1984E-01
     -8.557  0.2316E-02  0.2002E-01
     -8.440  0.3856E-02  0.2045E-01
     -8.322  0.2713E-02  0.2084E-01
     -8.204  0.2842E-02  0.2116E-01
     -8.086  0.4694E-02  0.2160E-01
     -7.968  0.4017E-02  0.2213E-01
     -7.850  0.4695E-02  0.2265E-01
     -7.732  0.5415E-02  0.2324E-01
     -7.614  0.4448E-02  0.2386E-01
     -7.496  0.3823E-02  0.2433E-01
     -7.378  0.3669E-02  0.2477E-01
     -7.260  0.3521E-02  0.2519E-01
     -7.142  0.3378E-02  0.2560E-01
     -7.024  0.3239E-02  0.2599E-01
     -6.906  0.3098E-02  0.2636E-01
     -6.788  0.2990E-02  0.2672E-01
     -6.670  0.2954E-02  0.2707E-01
     -6.552  0.2918E-02  0.2742E-01
     -6.434  0.2882E-02  0.2776E-01
     -6.317  0.2845E-02  0.2810E-01
     -6.199  0.2695E-02  0.2843E-01
     -6.081  0.2570E-02  0.2873E-01
     -5.963  0.2982E-02  0.2906E-01
     -5.845  0.3411E-02  0.2944E-01
     -5.727  0.3839E-02  0.2986E-01
     -5.609  0.3820E-02  0.3033E-01
     -5.491  0.3709E-02  0.3077E-01
     -5.373  0.3652E-02  0.3120E-01
     -5.255  0.3595E-02  0.3163E-01
     -5.137  0.3626E-02  0.3205E-01
     -5.019  0.3727E-02  0.3249E-01
     -4.901  0.3820E-02  0.3293E-01
     -4.783  0.3909E-02  0.3339E-01
     -4.665  0.3946E-02  0.3385E-01
     -4.547  0.3955E-02  0.3432E-01
     -4.429  0.3947E-02  0.3479E-01
     -4.312  0.3938E-02  0.3524E-01
     -4.194  0.4030E-02  0.3572E-01
     -4.076  0.4070E-02  0.3619E-01
     -3.958  0.4110E-02  0.3668E-01
     -3.840  0.4567E-02  0.3718E-01
     -3.722  0.4840E-02  0.3774E-01
     -3.604  0.5142E-02  0.3833E-01
     -3.486  0.5368E-02  0.3895E-01
     -3.368  0.5584E-02  0.3959E-01
     -3.250  0.5787E-02  0.4026E-01
     -3.132  0.5969E-02  0.4096E-01
     -3.014  0.6150E-02  0.4167E-01
     -2.896  0.6583E-02  0.4242E-01
     -2.778  0.7371E-02  0.4323E-01
     -2.660  0.7831E-02  0.4413E-01
     -2.542  0.7883E-02  0.4506E-01
     -2.424  0.7901E-02  0.4599E-01
     -2.307  0.7331E-02  0.4690E-01
     -2.189  0.7833E-02  0.4779E-01
     -2.071  0.1103E-01  0.4891E-01
     -1.953  0.1256E-01  0.5033E-01
     -1.835  0.1027E-01  0.5168E-01
     -1.717  0.9430E-02  0.5285E-01
     -1.599  0.8697E-02  0.5390E-01
     -1.481  0.7417E-02  0.5482E-01
     -1.363  0.7305E-02  0.5569E-01
     -1.245  0.5853E-02  0.5647E-01
     -1.127  0.6679E-02  0.5722E-01
     -1.009  0.6979E-02  0.5804E-01
     -0.891  0.7476E-02  0.5889E-01
     -0.773  0.6457E-02  0.5976E-01
     -0.655  0.6563E-02  0.6053E-01
     -0.537  0.6665E-02  0.6131E-01
     -0.419  0.6787E-02  0.6210E-01
     -0.301  0.6761E-02  0.6290E-01
     -0.184  0.6257E-02  0.6366E-01
     -0.066  0.6102E-02  0.6439E-01
      0.052  0.5976E-02  0.6510E-01
      0.170  0.5860E-02  0.6580E-01
      0.288  0.5745E-02  0.6649E-01
      0.406  0.5758E-02  0.6716E-01
      0.524  0.5854E-02  0.6785E-01
      0.642  0.5748E-02  0.6854E-01
      0.760  0.5607E-02  0.6921E-01
      0.878  0.5510E-02  0.6986E-01
      0.996  0.5753E-02  0.7053E-01
      1.114  0.5558E-02  0.7120E-01
      1.232  0.5612E-02  0.7188E-01
      1.350  0.5337E-02  0.7254E-01
      1.468  0.3705E-02  0.7306E-01
      1.586  0.3944E-02  0.7351E-01
      1.704  0.4643E-02  0.7402E-01
      1.821  0.4451E-02  0.7455E-01
      1.939  0.4419E-02  0.7508E-01
      2.057  0.4446E-02  0.7560E-01
      2.175  0.4655E-02  0.7614E-01
      2.293  0.4711E-02  0.7668E-01
      2.411  0.3844E-02  0.7720E-01
      2.529  0.3100E-02  0.7761E-01
      2.647  0.2676E-02  0.7795E-01
      2.765  0.2392E-02  0.7824E-01
      2.883  0.2089E-02  0.7851E-01
      3.001  0.1970E-02  0.7875E-01
      3.119  0.1863E-02  0.7897E-01
      3.237  0.1562E-02  0.7918E-01
      3.355  0.1313E-02  0.7934E-01
      3.473  0.1153E-02  0.7949E-01
      3.591  0.9902E-03  0.7962E-01
      3.709  0.8264E-03  0.7972E-01
      3.826  0.6678E-03  0.7981E-01
      3.944  0.5170E-03  0.7988E-01
      4.062  0.3742E-03  0.7993E-01
      4.180  0.2455E-03  0.7997E-01
      4.298  0.1270E-03  0.7999E-01
      4.416  0.1639E-04  0.8000E-01
      4.534  0.6225E-04  0.8000E-01
      4.652  0.1502E-03  0.8002E-01
      4.770  0.2491E-03  0.8004E-01
      4.888  0.3614E-03  0.8007E-01
      5.006  0.4956E-03  0.8012E-01
      5.124  0.6701E-03  0.8019E-01
      5.242  0.9243E-03  0.8029E-01
      5.360  0.1198E-02  0.8041E-01
      5.478  0.1462E-02  0.8057E-01
      5.596  0.1856E-02  0.8076E-01
      5.714  0.1895E-02  0.8097E-01
      5.831  0.2623E-02  0.8124E-01
      5.949  0.3929E-02  0.8165E-01
      6.067  0.5000E-02  0.8224E-01
      6.185  0.4761E-02  0.8281E-01
      6.303  0.4613E-02  0.8336E-01
      6.421  0.4290E-02  0.8390E-01
      6.539  0.4335E-02  0.8441E-01
      6.657  0.4210E-02  0.8492E-01
      6.775  0.3594E-02  0.8537E-01
      6.893  0.3331E-02  0.8578E-01
      7.011  0.3120E-02  0.8616E-01
      7.129  0.2967E-02  0.8651E-01
      7.247  0.2847E-02  0.8686E-01
      7.365  0.2739E-02  0.8719E-01
      7.483  0.2641E-02  0.8750E-01
      7.601  0.2572E-02  0.8781E-01
      7.719  0.2513E-02  0.8811E-01
      7.837  0.2457E-02  0.8840E-01
      7.954  0.2400E-02  0.8869E-01
      8.072  0.2338E-02  0.8897E-01
      8.190  0.2272E-02  0.8924E-01
      8.308  0.2216E-02  0.8951E-01
      8.426  0.2166E-02  0.8976E-01
      8.544  0.2122E-02  0.9002E-01
      8.662  0.2281E-02  0.9028E-01
      8.780  0.2395E-02  0.9055E-01
      8.898  0.2447E-02  0.9084E-01
      9.016  0.2475E-02  0.9113E-01
      9.134  0.2529E-02  0.9142E-01
      9.252  0.2566E-02  0.9173E-01
      9.370  0.2561E-02  0.9203E-01
      9.488  0.2574E-02  0.9233E-01
      9.606  0.2598E-02  0.9264E-01
      9.724  0.2616E-02  0.9294E-01
      9.842  0.2654E-02  0.9325E-01
      9.959  0.2731E-02  0.9357E-01
     10.077  0.2809E-02  0.9390E-01
     10.195  0.2894E-02  0.9423E-01
     10.313  0.3145E-02  0.9458E-01
     10.431  0.3669E-02  0.9500E-01
     10.549  0.3117E-02  0.9540E-01
     10.667  0.2655E-02  0.9574E-01
     10.785  0.2413E-02  0.9604E-01
     10.903  0.2185E-02  0.9630E-01
     11.021  0.2101E-02  0.9656E-01
     11.139  0.2189E-02  0.9681E-01
     11.257  0.2376E-02  0.9707E-01
     11.375  0.2765E-02  0.9738E-01
     11.493  0.2950E-02  0.9772E-01
     11.611  0.3069E-02  0.9807E-01
     11.729  0.3682E-02  0.9845E-01
     11.847  0.5382E-02  0.9899E-01
     11.964  0.7144E-02  0.9973E-01
     12.082  0.8677E-02  0.1006E+00
     12.200  0.9164E-02  0.1017E+00
     12.318  0.8836E-02  0.1028E+00
     12.436  0.7950E-02  0.1038E+00
     12.554  0.7704E-02  0.1047E+00
     12.672  0.7868E-02  0.1056E+00
     12.790  0.1051E-01  0.1066E+00
     12.908  0.1586E-01  0.1082E+00
     13.026  0.1162E-01  0.1098E+00
     13.144  0.7238E-02  0.1109E+00
     13.262  0.5505E-02  0.1117E+00
     13.380  0.4845E-02  0.1123E+00
     13.498  0.4632E-02  0.1128E+00
     13.616  0.4025E-02  0.1134E+00
     13.734  0.3873E-02  0.1138E+00
     13.852  0.3744E-02  0.1143E+00
     13.969  0.3557E-02  0.1147E+00
     14.087  0.3008E-02  0.1151E+00
     14.205  0.2679E-02  0.1154E+00
     14.323  0.2713E-02  0.1157E+00
     14.441  0.3050E-02  0.1161E+00
     14.559  0.3196E-02  0.1164E+00
     14.677  0.2806E-02  0.1168E+00
     14.795  0.3690E-02  0.1172E+00
     14.913  0.4618E-02  0.1177E+00
     15.031  0.4503E-02  0.1182E+00
     15.149  0.3194E-02  0.1187E+00
     15.267  0.2588E-02  0.1190E+00
     15.385  0.2222E-02  0.1193E+00
     15.503  0.2046E-02  0.1195E+00
     15.621  0.1680E-02  0.1197E+00
     15.739  0.1096E-02  0.1199E+00
     15.857  0.1240E-03  0.1200E+00
     15.975  0.5191E-04  0.1200E+00
     16.092  0.1156E-04  0.1200E+00
     16.210  0.8384E-08  0.1200E+00
     16.328  0.0000E+00  0.1200E+00
     16.446  0.0000E+00  0.1200E+00
     16.564  0.0000E+00  0.1200E+00
     16.682  0.0000E+00  0.1200E+00
     16.800  0.0000E+00  0.1200E+00
     16.918  0.0000E+00  0.1200E+00
     17.036  0.0000E+00  0.1200E+00
     17.154  0.0000E+00  0.1200E+00
     17.272  0.0000E+00  0.1200E+00
     17.390  0.0000E+00  0.1200E+00
     17.508  0.0000E+00  0.1200E+00
     17.626  0.0000E+00  0.1200E+00
     17.744  0.0000E+00  0.1200E+00
     17.862  0.0000E+00  0.1200E+00
     17.980  0.0000E+00  0.1200E+00
     18.097  0.0000E+00  0.1200E+00
     18.215  0.0000E+00  0.1200E+00
