    4    4  200    1
  0.9079817E+01  0.2466437E-09  0.2466437E-09  0.6897021E-09  0.5000000E-15
  1.000000000000000E-004
  CAR 
 graphite                                
     16    455     12
 
  0.0000000E+00  0.0000000E+00  0.0000000E+00  0.3858025E-03
    1      -15.167216
    2      -14.925431
    3       -3.950123
    4       -2.245103
    5        1.429190
    6        1.443221
    7        1.445599
    8        1.459176
    9        8.527173
   10       12.770899
   11       12.778502
   12       12.813253
 
  0.5555556E-01  0.0000000E+00  0.0000000E+00  0.1543210E-02
    1      -15.093621
    2      -14.852953
    3       -3.860875
    4       -2.160945
    5        1.140170
    6        1.159660
    7        1.275051
    8        1.292813
    9        8.617021
   10       12.805299
   11       12.860029
   12       13.093192
 
  0.1111111E+00  0.0000000E+00  0.0000000E+00  0.1543210E-02
    1      -14.873251
    2      -14.635845
    3       -3.593942
    4       -1.909946
    5        0.315276
    6        0.348296
    7        0.855433
    8        0.880199
    9        8.887167
   10       12.822507
   11       12.914081
   12       13.976321
 
  0.1666667E+00  0.1387779E-16  0.0000000E+00  0.1543210E-02
    1      -14.507219
    2      -14.275238
    3       -3.152054
    4       -1.495917
    5       -0.868536
    6       -0.818682
    7        0.292899
    8        0.323502
    9        9.337799
   10       12.725192
   11       12.875896
   12       13.641564
 
  0.2222222E+00  0.0000000E+00  0.0000000E+00  0.1543210E-02
    1      -13.997338
    2      -13.772953
    3       -2.540426
    4       -2.253232
    5       -2.185079
    6       -0.926486
    7       -0.303986
    8       -0.268949
    9        9.966719
   10       12.213513
   11       12.520759
   12       12.729825
 
  0.2777778E+00  0.2775558E-16  0.0000000E+00  0.1543210E-02
    1      -13.346754
    2      -13.132128
    3       -3.723664
    4       -3.636995
    5       -1.768602
    6       -0.859162
    7       -0.821246
    8       -0.216473
    9       10.628202
   10       10.766377
   11       11.243495
   12       12.274052
 
  0.3333333E+00  0.2775558E-16  0.0000000E+00  0.1543210E-02
    1      -12.560735
    2      -12.357661
    3       -5.202873
    4       -5.097598
    5       -1.325218
    6       -1.285429
    7       -0.854976
    8        0.603789
    9        9.009975
   10        9.776817
   11       11.682614
   12       12.058270
 
  0.3888889E+00  0.2775558E-16  0.0000000E+00  0.1543210E-02
    1      -11.648816
    2      -11.459931
    3       -6.634982
    4       -6.512781
    5       -1.674363
    6       -1.632914
    7        0.160611
    8        1.461866
    9        7.501366
   10        8.361043
   11       11.825444
   12       12.105470
 
  0.4444444E+00  0.0000000E+00  0.0000000E+00  0.1543210E-02
    1      -10.639240
    2      -10.471055
    3       -7.959913
    4       -7.827911
    5       -1.889256
    6       -1.847053
    7        1.169358
    8        2.154496
    9        6.349114
   10        7.148505
   11       11.711893
   12       12.025925
 
  0.5000000E+00  0.0000000E+00  0.0000000E+00  0.7716049E-03
    1       -9.848575
    2       -9.758729
    3       -8.787466
    4       -8.719459
    5       -1.961695
    6       -1.919421
    7        1.746637
    8        2.341722
    9        5.948132
   10        6.558390
   11       11.671698
   12       11.993517
 
  0.5555556E-01  0.5555556E-01  0.0000000E+00  0.7716049E-03
    1      -14.946546
    2      -14.708036
    3       -3.682663
    4       -1.993303
    5        0.611415
    6        0.630600
    7        0.960597
    8        0.976333
    9        8.797334
   10       12.908375
   11       12.978026
   12       13.614816
 
  0.1111111E+00  0.5555556E-01  0.0000000E+00  0.1543210E-02
    1      -14.653221
    2      -14.419079
    3       -3.328063
    4       -1.660493
    5       -0.341944
    6       -0.308268
    7        0.416900
    8        0.440832
    9        9.158613
   10       12.997074
   11       13.110308
   12       14.124641
 
  0.1666667E+00  0.5555556E-01  0.0000000E+00  0.1543210E-02
    1      -14.215116
    2      -13.987541
    3       -2.800962
    4       -1.586747
    5       -1.532382
    6       -1.168164
    7       -0.207021
    8       -0.173968
    9        9.700054
   10       12.842836
   11       12.912048
   12       13.089569
 
  0.2222222E+00  0.5555556E-01  0.0000000E+00  0.1543210E-02
    1      -13.634827
    2      -13.415884
    3       -2.989332
    4       -2.914703
    5       -2.108340
    6       -0.811149
    7       -0.772014
    8       -0.526974
    9       10.417904
   10       11.358514
   11       11.861547
   12       12.706919
 
  0.2777778E+00  0.5555556E-01  0.0000000E+00  0.1543210E-02
    1      -12.916268
    2      -12.708007
    3       -4.449552
    4       -4.355381
    5       -1.338054
    6       -1.295278
    7       -1.263336
    8        0.242628
    9        9.771349
   10       10.433748
   11       11.300716
   12       12.472426
 
  0.3333333E+00  0.5555556E-01  0.0000000E+00  0.1543210E-02
    1      -12.066461
    2      -11.871153
    3       -5.897583
    4       -5.785286
    5       -1.754704
    6       -1.709393
    7       -0.292048
    8        1.095585
    9        8.208017
   10        9.002205
   11       12.166283
   12       12.349827
 
  0.3888889E+00  0.5555556E-01  0.0000000E+00  0.1543210E-02
    1      -11.100723
    2      -10.921210
    3       -7.277951
    4       -7.150145
    5       -2.041426
    6       -1.994707
    7        0.742704
    8        1.913025
    9        6.845278
   10        7.675983
   11       12.083416
   12       12.392124
 
  0.4444444E+00  0.5555556E-01  0.0000000E+00  0.1543210E-02
    1      -10.093378
    2       -9.950342
    3       -8.475639
    4       -8.355879
    5       -2.187595
    6       -2.140047
    7        1.636673
    8        2.378910
    9        6.035667
   10        6.690720
   11       12.005124
   12       12.333491
 
  0.5000000E+00  0.5555556E-01  0.0000000E+00  0.1543210E-02
    1      -10.094834
    2       -9.951680
    3       -8.474099
    4       -8.354189
    5       -2.187996
    6       -2.140442
    7        1.635898
    8        2.378760
    9        6.035683
   10        6.691616
   11       12.005591
   12       12.333964
 
 -0.4444444E+00  0.5555556E-01  0.0000000E+00  0.1543210E-02
    1      -11.102304
    2      -10.922781
    3       -7.275754
    4       -7.147912
    5       -2.042606
    6       -1.995859
    7        0.741469
    8        1.912185
    9        6.845753
   10        7.677472
   11       12.084809
   12       12.393446
 
 -0.3888889E+00  0.5555556E-01  0.0000000E+00  0.1543210E-02
    1      -12.067996
    2      -11.872549
    3       -5.895219
    4       -5.782909
    5       -1.756560
    6       -1.711211
    7       -0.293296
    8        1.094515
    9        8.208452
   10        9.003689
   11       12.167267
   12       12.350257
 
 -0.3333333E+00  0.5555556E-01  0.0000000E+00  0.1543210E-02
    1      -12.917456
    2      -12.709128
    3       -4.447189
    4       -4.352983
    5       -1.340346
    6       -1.297526
    7       -1.264449
    8        0.241584
    9        9.771285
   10       10.435016
   11       11.299155
   12       12.475404
 
 -0.2777778E+00  0.5555556E-01  0.0000000E+00  0.1543210E-02
    1      -13.635795
    2      -13.416842
    3       -2.987248
    4       -2.912720
    5       -2.109297
    6       -0.813347
    7       -0.774181
    8       -0.527889
    9       10.416581
   10       11.357613
   11       11.862507
   12       12.710557
 
 -0.2222222E+00  0.5555556E-01  0.0000000E+00  0.1543210E-02
    1      -14.215884
    2      -13.988296
    3       -2.801737
    4       -1.586128
    5       -1.531866
    6       -1.168908
    7       -0.207948
    8       -0.174992
    9        9.699004
   10       12.840764
   11       12.915429
   12       13.094127
 
 -0.1666667E+00  0.5555556E-01  0.0000000E+00  0.1543210E-02
    1      -14.653755
    2      -14.419623
    3       -3.328626
    4       -1.661037
    5       -0.344872
    6       -0.311306
    7        0.419717
    8        0.443437
    9        9.157846
   10       13.000261
   11       13.114381
   12       14.117035
 
 -0.1111111E+00  0.5555556E-01  0.0000000E+00  0.1543210E-02
    1      -14.946872
    2      -14.708365
    3       -3.683004
    4       -1.993635
    5        0.601196
    6        0.620895
    7        0.970529
    8        0.986113
    9        8.796859
   10       12.910197
   11       12.980889
   12       13.606240
 
 -0.5555556E-01  0.5555556E-01  0.0000000E+00  0.7716049E-03
    1      -15.093728
    2      -14.853059
    3       -3.860989
    4       -2.161056
    5        1.127868
    6        1.147667
    7        1.287332
    8        1.304890
    9        8.616860
   10       12.805376
   11       12.858788
   12       13.123090
 
  0.1111111E+00  0.1111111E+00  0.0000000E+00  0.7716049E-03
    1      -14.287875
    2      -14.059230
    3       -2.888116
    4       -1.249173
    5       -1.242271
    6       -1.211848
    7       -0.285736
    8       -0.264211
    9        9.611875
   10       13.089472
   11       13.405776
   12       13.524375
 
  0.1666667E+00  0.1111111E+00  0.0000000E+00  0.1543210E-02
    1      -13.779346
    2      -13.558296
    3       -2.390117
    4       -2.340786
    5       -2.279291
    6       -1.032044
    7       -0.998807
    8       -0.683594
    9       10.244593
   10       11.816446
   11       12.192605
   12       13.573422
 
  0.2222222E+00  0.1111111E+00  0.0000000E+00  0.1543210E-02
    1      -13.130937
    2      -12.919501
    3       -3.716807
    4       -3.641750
    5       -1.679732
    6       -1.633854
    7       -1.511021
    8        0.022027
    9       10.373949
   10       10.874248
   11       11.051664
   12       13.447169
 
  0.2777778E+00  0.1111111E+00  0.0000000E+00  0.1543210E-02
    1      -12.348125
    2      -12.148423
    3       -5.113421
    4       -5.015954
    5       -2.193623
    6       -2.140460
    7       -0.601079
    8        0.839206
    9        8.864190
   10        9.508522
   11       12.021649
   12       13.245427
 
  0.3333333E+00  0.1111111E+00  0.0000000E+00  0.1543210E-02
    1      -11.441189
    2      -11.255480
    3       -6.497414
    4       -6.380917
    5       -2.566163
    6       -2.508927
    7        0.412482
    8        1.700108
    9        7.424130
   10        8.171811
   11       12.983968
   12       13.168236
 
  0.3888889E+00  0.1111111E+00  0.0000000E+00  0.1543210E-02
    1      -10.439372
    2      -10.274295
    3       -7.793032
    4       -7.665366
    5       -2.792204
    6       -2.732879
    7        1.425482
    8        2.407934
    9        6.302455
   10        6.997646
   11       12.924749
   12       13.278558
 
  0.4444444E+00  0.1111111E+00  0.0000000E+00  0.1543210E-02
    1       -9.660108
    2       -9.571903
    3       -8.603997
    4       -8.538888
    5       -2.868410
    6       -2.808390
    7        2.013433
    8        2.603437
    9        5.923607
   10        6.395675
   11       12.885323
   12       13.251367
 
  0.5000000E+00  0.1111111E+00  0.0000000E+00  0.1543210E-02
    1      -10.442610
    2      -10.277477
    3       -7.789031
    4       -7.661248
    5       -2.793597
    6       -2.734235
    7        1.423257
    8        2.406833
    9        6.302671
   10        7.000474
   11       12.926370
   12       13.280108
 
 -0.4444444E+00  0.1111111E+00  0.0000000E+00  0.1543210E-02
    1      -11.444184
    2      -11.258465
    3       -6.492869
    4       -6.376289
    5       -2.568806
    6       -2.511498
    7        0.409964
    8        1.698075
    9        7.424705
   10        8.174944
   11       12.985101
   12       13.166624
 
 -0.3888889E+00  0.1111111E+00  0.0000000E+00  0.1543210E-02
    1      -12.350714
    2      -12.151004
    3       -5.108849
    4       -5.011288
    5       -2.197106
    6       -2.143860
    7       -0.603467
    8        0.837040
    9        8.863954
   10        9.511395
   11       12.018188
   12       13.250040
 
 -0.3333333E+00  0.1111111E+00  0.0000000E+00  0.1543210E-02
    1      -13.133096
    2      -12.921648
    3       -3.713068
    4       -3.637914
    5       -1.683022
    6       -1.637109
    7       -1.513125
    8        0.020040
    9       10.372089
   10       10.876631
   11       11.048747
   12       13.453460
 
 -0.2777778E+00  0.1111111E+00  0.0000000E+00  0.1543210E-02
    1      -13.781071
    2      -13.560010
    3       -2.389329
    4       -2.339864
    5       -2.281034
    6       -1.032757
    7       -0.999576
    8       -0.685270
    9       10.242247
   10       11.812616
   11       12.194316
   12       13.581801
 
 -0.2222222E+00  0.1111111E+00  0.0000000E+00  0.1543210E-02
    1      -14.289166
    2      -14.060510
    3       -2.889451
    4       -1.250471
    5       -1.247962
    6       -1.216814
    7       -0.280447
    8       -0.258723
    9        9.610092
   10       13.081944
   11       13.419303
   12       13.447352
 
 -0.1666667E+00  0.1111111E+00  0.0000000E+00  0.1543210E-02
    1      -14.654077
    2      -14.419941
    3       -3.328966
    4       -1.661374
    5       -0.353802
    6       -0.319570
    7        0.428652
    8        0.452782
    9        9.157403
   10       13.010361
   11       13.123851
   12       14.105563
 
 -0.1111111E+00  0.1111111E+00  0.0000000E+00  0.7716049E-03
    1      -14.873679
    2      -14.636271
    3       -3.594398
    4       -1.910390
    5        0.302130
    6        0.335407
    7        0.868872
    8        0.893487
    9        8.886551
   10       12.831708
   11       12.923199
   12       14.001017
 
  0.1666667E+00  0.1666667E+00  0.0000000E+00  0.7716049E-03
    1      -13.202705
    2      -12.990216
    3       -3.308059
    4       -3.266102
    5       -1.950319
    6       -1.919690
    7       -1.593961
    8       -0.052161
    9       10.622597
   10       10.966599
   11       11.019812
   12       14.366609
 
  0.2222222E+00  0.1666667E+00  0.0000000E+00  0.1543210E-02
    1      -12.489810
    2      -12.287900
    3       -4.432245
    4       -4.366567
    5       -2.722128
    6       -2.675155
    7       -0.757653
    8        0.707586
    9        9.301628
   10        9.772333
   11       11.858531
   12       14.560341
 
  0.2777778E+00  0.1666667E+00  0.0000000E+00  0.1543210E-02
    1      -11.648653
    2      -11.459472
    3       -5.701464
    4       -5.606173
    5       -3.263824
    6       -3.201007
    7        0.205864
    8        1.556906
    9        7.931818
   10        8.513344
   11       12.907694
   12       14.413786
 
  0.3333333E+00  0.1666667E+00  0.0000000E+00  0.1543210E-02
    1      -10.695709
    2      -10.522713
    3       -6.986804
    4       -6.870521
    5       -3.605606
    6       -3.534976
    7        1.240431
    8        2.392398
    9        6.673698
   10        7.310498
   11       14.054143
   12       14.290994
 
  0.3888889E+00  0.1666667E+00  0.0000000E+00  0.1543210E-02
    1       -9.707345
    2       -9.570030
    3       -8.131803
    4       -8.020908
    5       -3.772661
    6       -3.698971
    7        2.156944
    8        2.897553
    9        5.911691
   10        6.339938
   11       14.159330
   12       14.614843
 
  0.4444444E+00  0.1666667E+00  0.0000000E+00  0.1543210E-02
    1       -9.711693
    2       -9.574053
    3       -8.127249
    4       -8.015848
    5       -3.773534
    6       -3.699811
    7        2.154544
    8        2.897073
    9        5.910259
   10        6.343832
   11       14.160293
   12       14.615623
 
  0.5000000E+00  0.1666667E+00  0.0000000E+00  0.1543210E-02
    1      -10.700452
    2      -10.527435
    3       -6.980430
    4       -6.863966
    5       -3.608069
    6       -3.537347
    7        1.236767
    8        2.389725
    9        6.673485
   10        7.315564
   11       14.049293
   12       14.291484
 
 -0.4444444E+00  0.1666667E+00  0.0000000E+00  0.1543210E-02
    1      -11.652851
    2      -11.463660
    3       -5.695116
    4       -5.599619
    5       -3.267197
    6       -3.204268
    7        0.202188
    8        1.553609
    9        7.930732
   10        8.518243
   11       12.901953
   12       14.418659
 
 -0.3888889E+00  0.1666667E+00  0.0000000E+00  0.1543210E-02
    1      -12.493371
    2      -12.291448
    3       -4.427869
    4       -4.361875
    5       -2.724430
    6       -2.677347
    7       -0.761002
    8        0.704414
    9        9.298274
   10        9.776632
   11       11.853740
   12       14.568754
 
 -0.3333333E+00  0.1666667E+00  0.0000000E+00  0.1543210E-02
    1      -13.205601
    2      -12.993110
    3       -3.309442
    4       -3.266482
    5       -1.948059
    6       -1.916797
    7       -1.596831
    8       -0.054944
    9       10.616820
   10       10.962708
   11       11.022750
   12       14.386396
 
 -0.2777778E+00  0.1666667E+00  0.0000000E+00  0.1543210E-02
    1      -13.781604
    2      -13.560543
    3       -2.397876
    4       -2.347685
    5       -2.281590
    6       -1.023588
    7       -0.989924
    8       -0.685846
    9       10.241565
   10       11.809377
   11       12.193183
   12       13.599729
 
 -0.2222222E+00  0.1666667E+00  0.0000000E+00  0.1543210E-02
    1      -14.216740
    2      -13.989146
    3       -2.802636
    4       -1.598535
    5       -1.543850
    6       -1.169811
    7       -0.194100
    8       -0.161035
    9        9.697875
   10       12.835713
   11       12.934987
   12       13.112644
 
 -0.1666667E+00  0.1666667E+00  0.0000000E+00  0.7716049E-03
    1      -14.508182
    2      -14.276197
    3       -3.153069
    4       -1.496919
    5       -0.881987
    6       -0.831875
    7        0.307515
    8        0.338013
    9        9.336480
   10       12.743559
   11       12.893811
   12       13.635862
 
  0.2222222E+00  0.2222222E+00  0.0000000E+00  0.7716049E-03
    1      -11.718079
    2      -11.528009
    3       -5.228017
    4       -5.174591
    5       -3.686293
    6       -3.646004
    7        0.135659
    8        1.506721
    9        8.151541
   10        8.623110
   11       12.825463
   12       15.674719
 
  0.2777778E+00  0.2222222E+00  0.0000000E+00  0.1543210E-02
    1      -10.827996
    2      -10.651890
    3       -6.242535
    4       -6.161115
    5       -4.355578
    6       -4.294954
    7        1.137389
    8        2.369277
    9        6.963864
   10        7.488237
   11       13.931530
   12       15.731983
 
  0.3333333E+00  0.2222222E+00  0.0000000E+00  0.1543210E-02
    1       -9.851008
    2       -9.695542
    3       -7.366823
    4       -7.259782
    5       -4.706590
    6       -4.628962
    7        2.164061
    8        3.138481
    9        5.934054
   10        6.433317
   11       15.122401
   12       15.605107
 
  0.3888889E+00  0.2222222E+00  0.0000000E+00  0.1543210E-02
    1       -9.095537
    2       -9.012169
    3       -8.116799
    4       -8.068663
    5       -4.814583
    6       -4.732376
    7        2.805167
    8        3.377134
    9        5.680124
   10        5.707836
   11       15.524389
   12       16.187939
 
  0.4444444E+00  0.2222222E+00  0.0000000E+00  0.1543210E-02
    1       -9.857510
    2       -9.701976
    3       -7.359277
    4       -7.251787
    5       -4.708189
    6       -4.630447
    7        2.159628
    8        3.135836
    9        5.931599
   10        6.440812
   11       15.112643
   12       15.605771
 
  0.5000000E+00  0.2222222E+00  0.0000000E+00  0.1543210E-02
    1      -10.834004
    2      -10.657895
    3       -6.235481
    4       -6.153550
    5       -4.357424
    6       -4.296580
    7        1.132524
    8        2.364882
    9        6.961323
   10        7.495459
   11       13.923110
   12       15.735523
 
 -0.4444444E+00  0.2222222E+00  0.0000000E+00  0.1543210E-02
    1      -11.723389
    2      -11.533155
    3       -5.225673
    4       -5.171001
    5       -3.684822
    6       -3.643871
    7        0.131039
    8        1.502217
    9        8.146833
   10        8.629109
   11       12.818484
   12       15.695568
 
 -0.3888889E+00  0.2222222E+00  0.0000000E+00  0.1543210E-02
    1      -12.494127
    2      -12.292205
    3       -4.436031
    4       -4.369295
    5       -2.715291
    6       -2.667666
    7       -0.761746
    8        0.703520
    9        9.295063
   10        9.775591
   11       11.852840
   12       14.595335
 
 -0.3333333E+00  0.2222222E+00  0.0000000E+00  0.1543210E-02
    1      -13.134382
    2      -12.922932
    3       -3.724912
    4       -3.649323
    5       -1.668619
    6       -1.622538
    7       -1.514431
    8        0.018610
    9       10.366281
   10       10.874063
   11       11.047182
   12       13.480336
 
 -0.2777778E+00  0.2222222E+00  0.0000000E+00  0.1543210E-02
    1      -13.637401
    2      -13.418440
    3       -3.000485
    4       -2.925564
    5       -2.110960
    6       -0.797023
    7       -0.757887
    8       -0.529609
    9       10.414576
   10       11.350372
   11       11.858720
   12       12.736275
 
 -0.2222222E+00  0.2222222E+00  0.0000000E+00  0.7716049E-03
    1      -13.999013
    2      -13.774656
    3       -2.542204
    4       -2.266344
    5       -2.197961
    6       -0.928195
    7       -0.288204
    8       -0.253181
    9        9.964490
   10       12.205927
   11       12.545718
   12       12.748549
 
  0.2777778E+00  0.2777778E+00  0.0000000E+00  0.7716049E-03
    1       -9.906805
    2       -9.747896
    3       -6.865766
    4       -6.801502
    5       -5.224817
    6       -5.179856
    7        2.155280
    8        3.223605
    9        5.957315
   10        6.486754
   11       15.048492
   12       15.851126
 
  0.3333333E+00  0.2777778E+00  0.0000000E+00  0.1543210E-02
    1       -8.957755
    2       -8.830630
    3       -7.684622
    4       -7.606786
    5       -5.664781
    6       -5.602834
    7        3.137195
    8        3.890440
    9        5.141429
   10        5.594689
   11       15.642438
   12       15.770126
 
  0.3888889E+00  0.2777778E+00  0.0000000E+00  0.1543210E-02
    1       -8.965420
    2       -8.837946
    3       -7.677782
    4       -7.598406
    5       -5.664942
    6       -5.602831
    7        3.132914
    8        3.889192
    9        5.136649
   10        5.603184
   11       15.656908
   12       15.755455
 
  0.4444444E+00  0.2777778E+00  0.0000000E+00  0.1543210E-02
    1       -9.914835
    2       -9.755969
    3       -6.860402
    4       -6.794622
    5       -5.223229
    6       -5.177309
    7        2.149625
    8        3.217937
    9        5.954200
   10        6.495546
   11       15.036836
   12       15.865107
 
  0.5000000E+00  0.2777778E+00  0.0000000E+00  0.1543210E-02
    1      -10.835056
    2      -10.658978
    3       -6.242556
    4       -6.159987
    5       -4.349160
    6       -4.287745
    7        1.131692
    8        2.363174
    9        6.959323
   10        7.494719
   11       13.922035
   12       15.770055
 
 -0.4444444E+00  0.2777778E+00  0.0000000E+00  0.1543210E-02
    1      -11.654621
    2      -11.465447
    3       -5.705691
    4       -5.609825
    5       -3.253499
    6       -3.190386
    7        0.200581
    8        1.551262
    9        7.925977
   10        8.515980
   11       12.900032
   12       14.451733
 
 -0.3888889E+00  0.2777778E+00  0.0000000E+00  0.1543210E-02
    1      -12.352987
    2      -12.153283
    3       -5.120868
    4       -5.023070
    5       -2.180529
    6       -2.127281
    7       -0.605667
    8        0.834354
    9        8.857114
   10        9.507311
   11       12.015768
   12       13.281168
 
 -0.3333333E+00  0.2777778E+00  0.0000000E+00  0.1543210E-02
    1      -12.920033
    2      -12.711767
    3       -4.459667
    4       -4.365257
    5       -1.322728
    6       -1.279974
    7       -1.267047
    8        0.238738
    9        9.763237
   10       10.429754
   11       11.296405
   12       12.504985
 
 -0.2777778E+00  0.2777778E+00  0.0000000E+00  0.7716049E-03
    1      -13.349435
    2      -13.134802
    3       -3.735899
    4       -3.649017
    5       -1.771322
    6       -0.842353
    7       -0.804514
    8       -0.219304
    9       10.619770
   10       10.763204
   11       11.238489
   12       12.303231
 
  0.3333333E+00  0.3333333E+00  0.0000000E+00  0.7716049E-03
    1       -8.198273
    2       -8.122048
    3       -8.120188
    4       -8.047170
    5       -6.074939
    6       -6.074120
    7        3.902379
    8        4.424681
    9        4.432250
   10        5.046236
   11       15.476236
   12       15.498191
 
  0.3888889E+00  0.3333333E+00  0.0000000E+00  0.1543210E-02
    1       -8.968143
    2       -8.841493
    3       -7.680093
    4       -7.601191
    5       -5.659206
    6       -5.596379
    7        3.132771
    8        3.881070
    9        5.140451
   10        5.603857
   11       15.658448
   12       15.756207
 
  0.4444444E+00  0.3333333E+00  0.0000000E+00  0.1543210E-02
    1       -9.860314
    2       -9.705079
    3       -7.366747
    4       -7.259225
    5       -4.696731
    6       -4.618615
    7        2.158291
    8        3.129636
    9        5.931326
   10        6.439578
   11       15.111190
   12       15.641875
 
  0.5000000E+00  0.3333333E+00  0.0000000E+00  0.1543210E-02
    1      -10.703652
    2      -10.530759
    3       -6.990139
    4       -6.873580
    5       -3.593044
    6       -3.522296
    7        1.234418
    8        2.384481
    9        6.669874
   10        7.312201
   11       14.050894
   12       14.323335
 
 -0.4444444E+00  0.3333333E+00  0.0000000E+00  0.1543210E-02
    1      -11.447751
    2      -11.262085
    3       -6.503599
    4       -6.386901
    5       -2.551509
    6       -2.494255
    7        0.406876
    8        1.693308
    9        7.418757
   10        8.169632
   11       13.003281
   12       13.186472
 
 -0.3888889E+00  0.3333333E+00  0.0000000E+00  0.1543210E-02
    1      -12.071806
    2      -11.876379
    3       -5.906295
    4       -5.793846
    5       -1.738288
    6       -1.693014
    7       -0.296852
    8        1.090028
    9        8.201056
   10        8.997308
   11       12.183929
   12       12.372296
 
 -0.3333333E+00  0.3333333E+00  0.0000000E+00  0.7716049E-03
    1      -12.564616
    2      -12.361548
    3       -5.213767
    4       -5.108325
    5       -1.307571
    6       -1.267860
    7       -0.858738
    8        0.599560
    9        9.001906
   10        9.770744
   11       11.682623
   12       12.088713
 
  0.3888889E+00  0.3888889E+00  0.0000000E+00  0.7716049E-03
    1       -9.104878
    2       -9.023422
    3       -8.116277
    4       -8.069304
    5       -4.803087
    6       -4.720705
    7        2.804217
    8        3.363092
    9        5.685452
   10        5.706555
   11       15.560262
   12       16.215409
 
  0.4444444E+00  0.3888889E+00  0.0000000E+00  0.1543210E-02
    1       -9.717887
    2       -9.581258
    3       -8.132845
    4       -8.022180
    5       -3.758612
    6       -3.684894
    7        2.152804
    8        2.885143
    9        5.912182
   10        6.339073
   11       14.196668
   12       14.652399
 
  0.5000000E+00  0.3888889E+00  0.0000000E+00  0.1543210E-02
    1      -10.448141
    2      -10.283334
    3       -7.797211
    4       -7.669567
    5       -2.776333
    6       -2.717029
    7        1.419941
    8        2.397758
    9        6.300632
   10        6.993899
   11       12.961024
   12       13.314789
 
 -0.4444444E+00  0.3888889E+00  0.0000000E+00  0.1543210E-02
    1      -11.107747
    2      -10.928488
    3       -7.284839
    4       -7.156943
    5       -2.024109
    6       -1.977441
    7        0.737217
    8        1.904838
    9        6.841020
   10        7.670109
   11       12.117904
   12       12.426304
 
 -0.3888889E+00  0.3888889E+00  0.0000000E+00  0.7716049E-03
    1      -11.654240
    2      -11.465377
    3       -6.644149
    4       -6.521842
    5       -1.656105
    6       -1.614748
    7        0.155900
    8        1.455554
    9        7.495082
   10        8.354136
   11       11.857769
   12       12.136803
 
  0.4444444E+00  0.4444444E+00  0.0000000E+00  0.7716049E-03
    1       -9.670455
    2       -9.584263
    3       -8.605450
    4       -8.541764
    5       -2.851652
    6       -2.791685
    7        2.011730
    8        2.588167
    9        5.927159
   10        6.387426
   11       12.921248
   12       13.287576
 
  0.5000000E+00  0.4444444E+00  0.0000000E+00  0.1543210E-02
    1      -10.103160
    2       -9.960933
    3       -8.479252
    4       -8.359997
    5       -2.169611
    6       -2.122127
    7        1.632847
    8        2.365619
    9        6.036798
   10        6.682103
   11       12.040006
   12       12.368441
 
 -0.4444444E+00  0.4444444E+00  0.0000000E+00  0.7716049E-03
    1      -10.646719
    2      -10.478829
    3       -7.966610
    4       -7.834719
    5       -1.870629
    6       -1.828496
    7        1.164623
    8        2.144319
    9        6.347000
   10        7.140224
   11       11.745792
   12       12.059797
 
  0.5000000E+00  0.5000000E+00  0.0000000E+00  0.3858025E-03
    1       -9.859248
    2       -9.771465
    3       -8.789339
    4       -8.722830
    5       -1.942942
    6       -1.900741
    7        1.744652
    8        2.326052
    9        5.951174
   10        6.547341
   11       11.705956
   12       12.027813
 