# Thermal properties / unit cell (natom)

unit:
  temperature:   K
  free_energy:   kJ/mol
  entropy:       J/K/mol
  heat_capacity: J/K/mol

natom:     4
num_modes: 3888
num_integrated_modes: 3872

zero_point_energy:      65.9768675
high_T_entropy:        229.3515476

thermal_properties:
- temperature:         0.0000000
  free_energy:        65.9768675
  entropy:             0.0000000
  heat_capacity:       0.0000000
  energy:             65.9768675

- temperature:        10.0000000
  free_energy:        65.9768522
  entropy:             0.0070651
  heat_capacity:       0.0207278
  energy:             65.9769229

- temperature:        20.0000000
  free_energy:        65.9766511
  entropy:             0.0357139
  heat_capacity:       0.0735715
  energy:             65.9773654

- temperature:        30.0000000
  free_energy:        65.9760705
  entropy:             0.0850977
  heat_capacity:       0.1948609
  energy:             65.9786234

- temperature:        40.0000000
  free_energy:        65.9748266
  entropy:             0.1710592
  heat_capacity:       0.4364316
  energy:             65.9816690

- temperature:        50.0000000
  free_energy:        65.9724842
  entropy:             0.3063147
  heat_capacity:       0.8119527
  energy:             65.9878000

- temperature:        60.0000000
  free_energy:        65.9685145
  entropy:             0.4972234
  heat_capacity:       1.3196058
  energy:             65.9983479

- temperature:        70.0000000
  free_energy:        65.9623434
  entropy:             0.7470212
  heat_capacity:       1.9601199
  energy:             66.0146348

- temperature:        80.0000000
  free_energy:        65.9533705
  entropy:             1.0578559
  heat_capacity:       2.7351121
  energy:             66.0379990

- temperature:        90.0000000
  free_energy:        65.9409780
  entropy:             1.4311261
  heat_capacity:       3.6426187
  energy:             66.0697794

- temperature:       100.0000000
  free_energy:        65.9245381
  entropy:             1.8673264
  heat_capacity:       4.6758023
  energy:             66.1112708

- temperature:       110.0000000
  free_energy:        65.9034233
  entropy:             2.3659526
  heat_capacity:       5.8236932
  energy:             66.1636781

- temperature:       120.0000000
  free_energy:        65.8770158
  entropy:             2.9255452
  heat_capacity:       7.0725030
  energy:             66.2280812

- temperature:       130.0000000
  free_energy:        65.8447167
  entropy:             3.5438220
  heat_capacity:       8.4069287
  energy:             66.3054136

- temperature:       140.0000000
  free_energy:        65.8059534
  entropy:             4.2178530
  heat_capacity:       9.8112965
  energy:             66.3964529

- temperature:       150.0000000
  free_energy:        65.7601851
  entropy:             4.9442469
  heat_capacity:      11.2704907
  energy:             66.5018221

- temperature:       160.0000000
  free_energy:        65.7069062
  entropy:             5.7193299
  heat_capacity:      12.7706340
  energy:             66.6219990

- temperature:       170.0000000
  free_energy:        65.6456488
  entropy:             6.5393031
  heat_capacity:      14.2995115
  energy:             66.7573304

- temperature:       180.0000000
  free_energy:        65.5759832
  entropy:             7.4003726
  heat_capacity:      15.8467571
  energy:             66.9080502

- temperature:       190.0000000
  free_energy:        65.4975167
  entropy:             8.2988496
  heat_capacity:      17.4038508
  energy:             67.0742981

- temperature:       200.0000000
  free_energy:        65.4098932
  entropy:             9.2312200
  heat_capacity:      18.9639806
  energy:             67.2561372

- temperature:       210.0000000
  free_energy:        65.3127904
  entropy:            10.1941888
  heat_capacity:      20.5218240
  energy:             67.4535700

- temperature:       220.0000000
  free_energy:        65.2059176
  entropy:            11.1847031
  heat_capacity:      22.0732964
  energy:             67.6665523

- temperature:       230.0000000
  free_energy:        65.0890138
  entropy:            12.1999584
  heat_capacity:      23.6152976
  energy:             67.8950043

- temperature:       240.0000000
  free_energy:        64.9618446
  entropy:            13.2373928
  heat_capacity:      25.1454807
  energy:             68.1388188

- temperature:       250.0000000
  free_energy:        64.8241999
  entropy:            14.2946745
  heat_capacity:      26.6620529
  energy:             68.3978685

- temperature:       260.0000000
  free_energy:        64.6758920
  entropy:            15.3696839
  heat_capacity:      28.1636145
  energy:             68.6720098

- temperature:       270.0000000
  free_energy:        64.5167535
  entropy:            16.4604941
  heat_capacity:      29.6490337
  energy:             68.9610869

- temperature:       280.0000000
  free_energy:        64.3466353
  entropy:            17.5653506
  heat_capacity:      31.1173552
  energy:             69.2649335

- temperature:       290.0000000
  free_energy:        64.1654051
  entropy:            18.6826523
  heat_capacity:      32.5677356
  energy:             69.5833742

- temperature:       300.0000000
  free_energy:        63.9729457
  entropy:            19.8109338
  heat_capacity:      33.9994019
  energy:             69.9162258

- temperature:       310.0000000
  free_energy:        63.7691543
  entropy:            20.9488490
  heat_capacity:      35.4116267
  energy:             70.2632975

- temperature:       320.0000000
  free_energy:        63.5539407
  entropy:            22.0951578
  heat_capacity:      36.8037158
  energy:             70.6243912

- temperature:       330.0000000
  free_energy:        63.3272270
  entropy:            23.2487135
  heat_capacity:      38.1750045
  energy:             70.9993024

- temperature:       340.0000000
  free_energy:        63.0889459
  entropy:            24.4084530
  heat_capacity:      39.5248592
  energy:             71.3878199

- temperature:       350.0000000
  free_energy:        62.8390406
  entropy:            25.5733874
  heat_capacity:      40.8526821
  energy:             71.7897262

- temperature:       360.0000000
  free_energy:        62.5774639
  entropy:            26.7425954
  heat_capacity:      42.1579175
  energy:             72.2047982

- temperature:       370.0000000
  free_energy:        62.3041773
  entropy:            27.9152168
  heat_capacity:      43.4400583
  energy:             72.6328075

- temperature:       380.0000000
  free_energy:        62.0191509
  entropy:            29.0904474
  heat_capacity:      44.6986516
  energy:             73.0735209

- temperature:       390.0000000
  free_energy:        61.7223622
  entropy:            30.2675348
  heat_capacity:      45.9333035
  energy:             73.5267008

- temperature:       400.0000000
  free_energy:        61.4137963
  entropy:            31.4457743
  heat_capacity:      47.1436830
  energy:             73.9921060

- temperature:       410.0000000
  free_energy:        61.0934451
  entropy:            32.6245062
  heat_capacity:      48.3295237
  energy:             74.4694926

- temperature:       420.0000000
  free_energy:        60.7613066
  entropy:            33.8031129
  heat_capacity:      49.4906246
  energy:             74.9586140

- temperature:       430.0000000
  free_energy:        60.4173852
  entropy:            34.9810163
  heat_capacity:      50.6268503
  energy:             75.4592222

- temperature:       440.0000000
  free_energy:        60.0616904
  entropy:            36.1576760
  heat_capacity:      51.7381291
  energy:             75.9710679

- temperature:       450.0000000
  free_energy:        59.6942375
  entropy:            37.3325869
  heat_capacity:      52.8244511
  energy:             76.4939016

- temperature:       460.0000000
  free_energy:        59.3150461
  entropy:            38.5052777
  heat_capacity:      53.8858651
  energy:             77.0274739

- temperature:       470.0000000
  free_energy:        58.9241408
  entropy:            39.6753094
  heat_capacity:      54.9224750
  energy:             77.5715362

- temperature:       480.0000000
  free_energy:        58.5215502
  entropy:            40.8422730
  heat_capacity:      55.9344365
  energy:             78.1258412

- temperature:       490.0000000
  free_energy:        58.1073068
  entropy:            42.0057890
  heat_capacity:      56.9219524
  energy:             78.6901434

- temperature:       500.0000000
  free_energy:        57.6814470
  entropy:            43.1655051
  heat_capacity:      57.8852687
  energy:             79.2641996

- temperature:       510.0000000
  free_energy:        57.2440105
  entropy:            44.3210953
  heat_capacity:      58.8246703
  energy:             79.8477691

- temperature:       520.0000000
  free_energy:        56.7950399
  entropy:            45.4722585
  heat_capacity:      59.7404770
  energy:             80.4406143

- temperature:       530.0000000
  free_energy:        56.3345810
  entropy:            46.6187173
  heat_capacity:      60.6330390
  energy:             81.0425011

- temperature:       540.0000000
  free_energy:        55.8626821
  entropy:            47.7602163
  heat_capacity:      61.5027332
  energy:             81.6531989

- temperature:       550.0000000
  free_energy:        55.3793940
  entropy:            48.8965217
  heat_capacity:      62.3499594
  energy:             82.2724809

- temperature:       560.0000000
  free_energy:        54.8847697
  entropy:            50.0274195
  heat_capacity:      63.1751370
  energy:             82.9001246

- temperature:       570.0000000
  free_energy:        54.3788643
  entropy:            51.1527146
  heat_capacity:      63.9787011
  energy:             83.5359116

- temperature:       580.0000000
  free_energy:        53.8617347
  entropy:            52.2722300
  heat_capacity:      64.7611003
  energy:             84.1796281

- temperature:       590.0000000
  free_energy:        53.3334395
  entropy:            53.3858053
  heat_capacity:      65.5227929
  energy:             84.8310646

- temperature:       600.0000000
  free_energy:        52.7940388
  entropy:            54.4932960
  heat_capacity:      66.2642451
  energy:             85.4900164

- temperature:       610.0000000
  free_energy:        52.2435943
  entropy:            55.5945727
  heat_capacity:      66.9859284
  energy:             86.1562836

- temperature:       620.0000000
  free_energy:        51.6821685
  entropy:            56.6895197
  heat_capacity:      67.6883171
  energy:             86.8296707

- temperature:       630.0000000
  free_energy:        51.1098253
  entropy:            57.7780348
  heat_capacity:      68.3718871
  energy:             87.5099872

- temperature:       640.0000000
  free_energy:        50.5266295
  entropy:            58.8600278
  heat_capacity:      69.0371137
  energy:             88.1970473

- temperature:       650.0000000
  free_energy:        49.9326468
  entropy:            59.9354202
  heat_capacity:      69.6844701
  energy:             88.8906699

- temperature:       660.0000000
  free_energy:        49.3279433
  entropy:            61.0041445
  heat_capacity:      70.3144263
  energy:             89.5906787

- temperature:       670.0000000
  free_energy:        48.7125863
  entropy:            62.0661428
  heat_capacity:      70.9274477
  energy:             90.2969020

- temperature:       680.0000000
  free_energy:        48.0866431
  entropy:            63.1213671
  heat_capacity:      71.5239945
  energy:             91.0091727

- temperature:       690.0000000
  free_energy:        47.4501817
  entropy:            64.1697780
  heat_capacity:      72.1045202
  energy:             91.7273285

- temperature:       700.0000000
  free_energy:        46.8032703
  entropy:            65.2113441
  heat_capacity:      72.6694714
  energy:             92.4512112

- temperature:       710.0000000
  free_energy:        46.1459777
  entropy:            66.2460419
  heat_capacity:      73.2192867
  energy:             93.1806674

- temperature:       720.0000000
  free_energy:        45.4783724
  entropy:            67.2738549
  heat_capacity:      73.7543968
  energy:             93.9155479

- temperature:       730.0000000
  free_energy:        44.8005236
  entropy:            68.2947729
  heat_capacity:      74.2752235
  energy:             94.6557078

- temperature:       740.0000000
  free_energy:        44.1125000
  entropy:            69.3087922
  heat_capacity:      74.7821794
  energy:             95.4010062

- temperature:       750.0000000
  free_energy:        43.4143707
  entropy:            70.3159144
  heat_capacity:      75.2756682
  energy:             96.1513065

- temperature:       760.0000000
  free_energy:        42.7062047
  entropy:            71.3161465
  heat_capacity:      75.7560836
  energy:             96.9064760

- temperature:       770.0000000
  free_energy:        41.9880707
  entropy:            72.3095002
  heat_capacity:      76.2238101
  energy:             97.6663859

- temperature:       780.0000000
  free_energy:        41.2600375
  entropy:            73.2959918
  heat_capacity:      76.6792222
  energy:             98.4309111

- temperature:       790.0000000
  free_energy:        40.5221737
  entropy:            74.2756415
  heat_capacity:      77.1226848
  energy:             99.1999305

- temperature:       800.0000000
  free_energy:        39.7745474
  entropy:            75.2484734
  heat_capacity:      77.5545527
  energy:             99.9733262

- temperature:       810.0000000
  free_energy:        39.0172268
  entropy:            76.2145150
  heat_capacity:      77.9751715
  energy:            100.7509840

- temperature:       820.0000000
  free_energy:        38.2502797
  entropy:            77.1737970
  heat_capacity:      78.3848766
  energy:            101.5327932

- temperature:       830.0000000
  free_energy:        37.4737733
  entropy:            78.1263529
  heat_capacity:      78.7839942
  energy:            102.3186463

- temperature:       840.0000000
  free_energy:        36.6877749
  entropy:            79.0722190
  heat_capacity:      79.1728410
  energy:            103.1084389

- temperature:       850.0000000
  free_energy:        35.8923511
  entropy:            80.0114338
  heat_capacity:      79.5517241
  energy:            103.9020699

- temperature:       860.0000000
  free_energy:        35.0875683
  entropy:            80.9440382
  heat_capacity:      79.9209419
  energy:            104.6994411

- temperature:       870.0000000
  free_energy:        34.2734922
  entropy:            81.8700750
  heat_capacity:      80.2807834
  energy:            105.5004575

- temperature:       880.0000000
  free_energy:        33.4501885
  entropy:            82.7895886
  heat_capacity:      80.6315292
  energy:            106.3050265

- temperature:       890.0000000
  free_energy:        32.6177221
  entropy:            83.7026254
  heat_capacity:      80.9734509
  energy:            107.1130586

- temperature:       900.0000000
  free_energy:        31.7761574
  entropy:            84.6092328
  heat_capacity:      81.3068120
  energy:            107.9244670

- temperature:       910.0000000
  free_energy:        30.9255587
  entropy:            85.5094599
  heat_capacity:      81.6318675
  energy:            108.7391672

- temperature:       920.0000000
  free_energy:        30.0659893
  entropy:            86.4033567
  heat_capacity:      81.9488647
  energy:            109.5570775

- temperature:       930.0000000
  free_energy:        29.1975125
  entropy:            87.2909741
  heat_capacity:      82.2580428
  energy:            110.3781184

- temperature:       940.0000000
  free_energy:        28.3201906
  entropy:            88.1723643
  heat_capacity:      82.5596337
  energy:            111.2022130

- temperature:       950.0000000
  free_energy:        27.4340858
  entropy:            89.0475798
  heat_capacity:      82.8538617
  energy:            112.0292865

- temperature:       960.0000000
  free_energy:        26.5392594
  entropy:            89.9166740
  heat_capacity:      83.1409441
  energy:            112.8592664

- temperature:       970.0000000
  free_energy:        25.6357725
  entropy:            90.7797008
  heat_capacity:      83.4210909
  energy:            113.6920823

- temperature:       980.0000000
  free_energy:        24.7236854
  entropy:            91.6367147
  heat_capacity:      83.6945059
  energy:            114.5276658

- temperature:       990.0000000
  free_energy:        23.8030581
  entropy:            92.4877703
  heat_capacity:      83.9613859
  energy:            115.3659506

- temperature:      1000.0000000
  free_energy:        22.8739497
  entropy:            93.3329227
  heat_capacity:      84.2219214
  energy:            116.2068724
