  32  32   0   0
  0.8643287E+01  0.4932875E-09  0.4932875E-09  0.1313087E-08  0.5000000E-15
  1.000000000000000E-004
  CAR 
 graphite                                
     16.12105141    -16.78457711  301      4.86287049      1.00000000
    -16.785  0.0000E+00  0.0000E+00
    -16.675  0.0000E+00  0.0000E+00
    -16.565  0.0000E+00  0.0000E+00
    -16.456  0.0000E+00  0.0000E+00
    -16.346  0.0000E+00  0.0000E+00
    -16.236  0.0000E+00  0.0000E+00
    -16.126  0.0000E+00  0.0000E+00
    -16.017  0.0000E+00  0.0000E+00
    -15.907  0.0000E+00  0.0000E+00
    -15.797  0.0000E+00  0.0000E+00
    -15.688  0.0000E+00  0.0000E+00
    -15.578  0.0000E+00  0.0000E+00
    -15.468  0.0000E+00  0.0000E+00
    -15.359  0.0000E+00  0.0000E+00
    -15.249  0.0000E+00  0.0000E+00
    -15.139  0.0000E+00  0.0000E+00
    -15.030  0.0000E+00  0.0000E+00
    -14.920  0.0000E+00  0.0000E+00
    -14.810  0.0000E+00  0.0000E+00
    -14.701  0.1481E+01  0.6114E-01
    -14.591  0.2479E+01  0.2730E+00
    -14.481  0.3518E+01  0.6055E+00
    -14.371  0.5089E+01  0.1082E+01
    -14.262  0.5028E+01  0.1622E+01
    -14.152  0.4850E+01  0.2164E+01
    -14.042  0.4939E+01  0.2701E+01
    -13.933  0.4961E+01  0.3246E+01
    -13.823  0.4934E+01  0.3789E+01
    -13.713  0.4966E+01  0.4331E+01
    -13.604  0.5181E+01  0.4881E+01
    -13.494  0.5632E+01  0.5478E+01
    -13.384  0.6324E+01  0.6113E+01
    -13.275  0.6900E+01  0.6859E+01
    -13.165  0.4310E+01  0.7397E+01
    -13.055  0.1968E+01  0.7740E+01
    -12.946  0.3695E+01  0.8040E+01
    -12.836  0.4160E+01  0.8460E+01
    -12.726  0.9601E+01  0.9043E+01
    -12.617  0.5532E+01  0.9744E+01
    -12.507  0.6294E+01  0.1040E+02
    -12.397  0.4412E+01  0.1097E+02
    -12.287  0.4640E+01  0.1147E+02
    -12.178  0.4806E+01  0.1199E+02
    -12.068  0.4985E+01  0.1252E+02
    -11.958  0.5122E+01  0.1308E+02
    -11.849  0.5396E+01  0.1365E+02
    -11.739  0.5701E+01  0.1428E+02
    -11.629  0.5155E+01  0.1488E+02
    -11.520  0.5050E+01  0.1543E+02
    -11.410  0.4981E+01  0.1598E+02
    -11.300  0.5023E+01  0.1653E+02
    -11.191  0.5111E+01  0.1708E+02
    -11.081  0.5164E+01  0.1765E+02
    -10.971  0.5401E+01  0.1823E+02
    -10.862  0.5592E+01  0.1883E+02
    -10.752  0.5927E+01  0.1946E+02
    -10.642  0.5852E+01  0.2011E+02
    -10.533  0.5866E+01  0.2075E+02
    -10.423  0.5751E+01  0.2140E+02
    -10.313  0.4585E+01  0.2197E+02
    -10.203  0.4417E+01  0.2245E+02
    -10.094  0.5141E+01  0.2298E+02
     -9.984  0.5344E+01  0.2356E+02
     -9.874  0.5514E+01  0.2416E+02
     -9.765  0.5746E+01  0.2477E+02
     -9.655  0.6677E+01  0.2544E+02
     -9.545  0.8217E+01  0.2624E+02
     -9.436  0.9183E+01  0.2727E+02
     -9.326  0.6079E+01  0.2809E+02
     -9.216  0.5782E+01  0.2881E+02
     -9.107  0.5984E+01  0.2944E+02
     -8.997  0.3423E+01  0.2984E+02
     -8.887  0.3045E+01  0.3020E+02
     -8.778  0.2667E+01  0.3051E+02
     -8.668  0.2354E+01  0.3078E+02
     -8.558  0.3284E+01  0.3108E+02
     -8.448  0.2349E+01  0.3138E+02
     -8.339  0.1438E+01  0.3158E+02
     -8.229  0.2226E+01  0.3178E+02
     -8.119  0.4775E+01  0.3211E+02
     -8.010  0.5578E+01  0.3285E+02
     -7.900  0.4106E+01  0.3334E+02
     -7.790  0.4147E+01  0.3378E+02
     -7.681  0.6541E+01  0.3434E+02
     -7.571  0.7786E+01  0.3510E+02
     -7.461  0.6991E+01  0.3584E+02
     -7.352  0.8137E+01  0.3666E+02
     -7.242  0.8427E+01  0.3761E+02
     -7.132  0.6359E+01  0.3844E+02
     -7.023  0.6085E+01  0.3912E+02
     -6.913  0.5816E+01  0.3978E+02
     -6.803  0.5579E+01  0.4040E+02
     -6.694  0.5378E+01  0.4100E+02
     -6.584  0.5197E+01  0.4158E+02
     -6.474  0.5003E+01  0.4214E+02
     -6.364  0.4857E+01  0.4268E+02
     -6.255  0.4825E+01  0.4321E+02
     -6.145  0.4794E+01  0.4374E+02
     -6.035  0.4638E+01  0.4426E+02
     -5.926  0.4482E+01  0.4476E+02
     -5.816  0.4154E+01  0.4524E+02
     -5.706  0.3869E+01  0.4565E+02
     -5.597  0.4310E+01  0.4610E+02
     -5.487  0.4962E+01  0.4661E+02
     -5.377  0.5748E+01  0.4719E+02
     -5.268  0.6797E+01  0.4787E+02
     -5.158  0.9691E+01  0.4880E+02
     -5.048  0.8708E+01  0.4987E+02
     -4.939  0.6286E+01  0.5069E+02
     -4.829  0.3864E+01  0.5125E+02
     -4.719  0.2504E+01  0.5157E+02
     -4.609  0.3074E+01  0.5187E+02
     -4.500  0.4364E+01  0.5227E+02
     -4.390  0.5775E+01  0.5283E+02
     -4.280  0.7538E+01  0.5355E+02
     -4.171  0.8003E+01  0.5443E+02
     -4.061  0.6725E+01  0.5523E+02
     -3.951  0.5678E+01  0.5590E+02
     -3.842  0.7431E+01  0.5656E+02
     -3.732  0.7271E+01  0.5738E+02
     -3.622  0.7293E+01  0.5817E+02
     -3.513  0.6970E+01  0.5895E+02
     -3.403  0.7227E+01  0.5972E+02
     -3.293  0.9053E+01  0.6061E+02
     -3.184  0.1146E+02  0.6176E+02
     -3.074  0.8860E+01  0.6267E+02
     -2.964  0.8194E+01  0.6362E+02
     -2.855  0.6978E+01  0.6445E+02
     -2.745  0.7171E+01  0.6521E+02
     -2.635  0.8107E+01  0.6605E+02
     -2.525  0.9532E+01  0.6700E+02
     -2.416  0.1223E+02  0.6821E+02
     -2.306  0.1430E+02  0.6968E+02
     -2.196  0.1076E+02  0.7101E+02
     -2.087  0.1167E+02  0.7224E+02
     -1.977  0.1217E+02  0.7358E+02
     -1.867  0.1507E+02  0.7510E+02
     -1.758  0.1363E+02  0.7661E+02
     -1.648  0.1615E+02  0.7834E+02
     -1.538  0.1015E+02  0.7965E+02
     -1.429  0.1981E+02  0.8134E+02
     -1.319  0.1866E+02  0.8342E+02
     -1.209  0.1583E+02  0.8543E+02
     -1.100  0.1352E+02  0.8702E+02
     -0.990  0.1248E+02  0.8842E+02
     -0.880  0.9667E+01  0.8968E+02
     -0.771  0.7696E+01  0.9057E+02
     -0.661  0.9207E+01  0.9149E+02
     -0.551  0.1360E+02  0.9269E+02
     -0.441  0.1438E+02  0.9424E+02
     -0.332  0.1039E+02  0.9589E+02
     -0.222  0.8733E+01  0.9685E+02
     -0.112  0.9768E+01  0.9785E+02
     -0.003  0.1093E+02  0.9896E+02
      0.107  0.1106E+02  0.1002E+03
      0.217  0.1022E+02  0.1014E+03
      0.326  0.9450E+01  0.1024E+03
      0.436  0.9601E+01  0.1035E+03
      0.546  0.9675E+01  0.1045E+03
      0.655  0.9768E+01  0.1056E+03
      0.765  0.9288E+01  0.1067E+03
      0.875  0.9372E+01  0.1077E+03
      0.984  0.9263E+01  0.1087E+03
      1.094  0.9261E+01  0.1097E+03
      1.204  0.9287E+01  0.1107E+03
      1.314  0.9416E+01  0.1118E+03
      1.423  0.9692E+01  0.1128E+03
      1.533  0.8960E+01  0.1138E+03
      1.643  0.9580E+01  0.1149E+03
      1.752  0.9892E+01  0.1159E+03
      1.862  0.7426E+01  0.1169E+03
      1.972  0.6489E+01  0.1176E+03
      2.081  0.5988E+01  0.1183E+03
      2.191  0.4966E+01  0.1189E+03
      2.301  0.3808E+01  0.1194E+03
      2.410  0.4532E+01  0.1199E+03
      2.520  0.7514E+01  0.1206E+03
      2.630  0.8499E+01  0.1215E+03
      2.739  0.5997E+01  0.1223E+03
      2.849  0.7111E+01  0.1229E+03
      2.959  0.7406E+01  0.1236E+03
      3.068  0.5787E+01  0.1244E+03
      3.178  0.4604E+01  0.1249E+03
      3.288  0.3884E+01  0.1254E+03
      3.398  0.3404E+01  0.1258E+03
      3.507  0.3069E+01  0.1262E+03
      3.617  0.2768E+01  0.1265E+03
      3.727  0.2405E+01  0.1268E+03
      3.836  0.2008E+01  0.1270E+03
      3.946  0.1764E+01  0.1272E+03
      4.056  0.1518E+01  0.1274E+03
      4.165  0.1270E+01  0.1275E+03
      4.275  0.1063E+01  0.1277E+03
      4.385  0.9233E+00  0.1278E+03
      4.494  0.7059E+00  0.1279E+03
      4.604  0.4814E+00  0.1279E+03
      4.714  0.2663E+00  0.1280E+03
      4.823  0.5964E-01  0.1280E+03
      4.933  0.6768E-01  0.1280E+03
      5.043  0.2050E+00  0.1280E+03
      5.153  0.3523E+00  0.1280E+03
      5.262  0.5119E+00  0.1281E+03
      5.372  0.6872E+00  0.1282E+03
      5.482  0.8801E+00  0.1282E+03
      5.591  0.1135E+01  0.1284E+03
      5.701  0.1470E+01  0.1285E+03
      5.811  0.1835E+01  0.1287E+03
      5.920  0.2196E+01  0.1289E+03
      6.030  0.2615E+01  0.1292E+03
      6.140  0.3815E+01  0.1295E+03
      6.249  0.4123E+01  0.1299E+03
      6.359  0.7262E+01  0.1305E+03
      6.469  0.8361E+01  0.1315E+03
      6.578  0.8210E+01  0.1324E+03
      6.688  0.7442E+01  0.1333E+03
      6.798  0.7499E+01  0.1341E+03
      6.907  0.7122E+01  0.1350E+03
      7.017  0.5978E+01  0.1357E+03
      7.127  0.5635E+01  0.1363E+03
      7.237  0.5196E+01  0.1369E+03
      7.346  0.4209E+01  0.1374E+03
      7.456  0.3622E+01  0.1378E+03
      7.566  0.3486E+01  0.1382E+03
      7.675  0.3800E+01  0.1386E+03
      7.785  0.4201E+01  0.1391E+03
      7.895  0.4547E+01  0.1395E+03
      8.004  0.4864E+01  0.1401E+03
      8.114  0.4712E+01  0.1406E+03
      8.224  0.4509E+01  0.1411E+03
      8.333  0.4322E+01  0.1416E+03
      8.443  0.4106E+01  0.1420E+03
      8.553  0.3903E+01  0.1425E+03
      8.662  0.3781E+01  0.1429E+03
      8.772  0.3642E+01  0.1433E+03
      8.882  0.3555E+01  0.1437E+03
      8.991  0.3469E+01  0.1441E+03
      9.101  0.3330E+01  0.1445E+03
      9.211  0.3219E+01  0.1448E+03
      9.321  0.3178E+01  0.1452E+03
      9.430  0.3284E+01  0.1455E+03
      9.540  0.3641E+01  0.1459E+03
      9.650  0.3853E+01  0.1463E+03
      9.759  0.3713E+01  0.1467E+03
      9.869  0.3697E+01  0.1471E+03
      9.979  0.3762E+01  0.1475E+03
     10.088  0.3817E+01  0.1480E+03
     10.198  0.3883E+01  0.1484E+03
     10.308  0.3871E+01  0.1488E+03
     10.417  0.3831E+01  0.1492E+03
     10.527  0.3820E+01  0.1497E+03
     10.637  0.3813E+01  0.1501E+03
     10.746  0.4270E+01  0.1505E+03
     10.856  0.4760E+01  0.1510E+03
     10.966  0.5008E+01  0.1515E+03
     11.076  0.4930E+01  0.1521E+03
     11.185  0.4751E+01  0.1526E+03
     11.295  0.5219E+01  0.1532E+03
     11.405  0.3591E+01  0.1537E+03
     11.514  0.3483E+01  0.1541E+03
     11.624  0.3067E+01  0.1544E+03
     11.734  0.3131E+01  0.1548E+03
     11.843  0.3651E+01  0.1551E+03
     11.953  0.3742E+01  0.1555E+03
     12.063  0.2834E+01  0.1559E+03
     12.172  0.6602E+01  0.1564E+03
     12.282  0.7401E+01  0.1572E+03
     12.392  0.1052E+02  0.1581E+03
     12.501  0.1352E+02  0.1595E+03
     12.611  0.1364E+02  0.1609E+03
     12.721  0.1269E+02  0.1624E+03
     12.830  0.1132E+02  0.1638E+03
     12.940  0.8933E+01  0.1649E+03
     13.050  0.6496E+01  0.1657E+03
     13.160  0.5755E+01  0.1664E+03
     13.269  0.5671E+01  0.1670E+03
     13.379  0.3444E+01  0.1675E+03
     13.489  0.1902E+01  0.1678E+03
     13.598  0.6309E+00  0.1680E+03
     13.708  0.4643E-01  0.1680E+03
     13.818  0.2504E-01  0.1680E+03
     13.927  0.1021E-01  0.1680E+03
     14.037  0.1921E-02  0.1680E+03
     14.147  0.0000E+00  0.1680E+03
     14.256  0.0000E+00  0.1680E+03
     14.366  0.0000E+00  0.1680E+03
     14.476  0.0000E+00  0.1680E+03
     14.585  0.0000E+00  0.1680E+03
     14.695  0.0000E+00  0.1680E+03
     14.805  0.0000E+00  0.1680E+03
     14.915  0.0000E+00  0.1680E+03
     15.024  0.0000E+00  0.1680E+03
     15.134  0.0000E+00  0.1680E+03
     15.244  0.0000E+00  0.1680E+03
     15.353  0.0000E+00  0.1680E+03
     15.463  0.0000E+00  0.1680E+03
     15.573  0.0000E+00  0.1680E+03
     15.682  0.0000E+00  0.1680E+03
     15.792  0.0000E+00  0.1680E+03
     15.902  0.0000E+00  0.1680E+03
     16.011  0.0000E+00  0.1680E+03
     16.121  0.0000E+00  0.1680E+03
