  32  32   0   0
  0.8951641E+01  0.4934311E-09  0.4934311E-09  0.1358600E-08  0.5000000E-15
  1.000000000000000E-004
  CAR 
 graphite                                
     15.38889516    -17.04644919  301      4.56013967      1.00000000
    -17.046  0.0000E+00  0.0000E+00
    -16.938  0.0000E+00  0.0000E+00
    -16.830  0.0000E+00  0.0000E+00
    -16.722  0.0000E+00  0.0000E+00
    -16.614  0.0000E+00  0.0000E+00
    -16.506  0.0000E+00  0.0000E+00
    -16.398  0.0000E+00  0.0000E+00
    -16.290  0.0000E+00  0.0000E+00
    -16.182  0.0000E+00  0.0000E+00
    -16.073  0.0000E+00  0.0000E+00
    -15.965  0.0000E+00  0.0000E+00
    -15.857  0.0000E+00  0.0000E+00
    -15.749  0.0000E+00  0.0000E+00
    -15.641  0.0000E+00  0.0000E+00
    -15.533  0.0000E+00  0.0000E+00
    -15.425  0.0000E+00  0.0000E+00
    -15.317  0.0000E+00  0.0000E+00
    -15.208  0.0000E+00  0.0000E+00
    -15.100  0.0000E+00  0.0000E+00
    -14.992  0.1138E+01  0.2383E-01
    -14.884  0.2524E+01  0.2326E+00
    -14.776  0.4176E+01  0.5898E+00
    -14.668  0.4807E+01  0.1107E+01
    -14.560  0.5029E+01  0.1642E+01
    -14.452  0.4909E+01  0.2176E+01
    -14.344  0.4954E+01  0.2709E+01
    -14.235  0.4914E+01  0.3243E+01
    -14.127  0.4983E+01  0.3779E+01
    -14.019  0.4985E+01  0.4317E+01
    -13.911  0.5006E+01  0.4857E+01
    -13.803  0.5628E+01  0.5427E+01
    -13.695  0.5903E+01  0.6055E+01
    -13.587  0.6809E+01  0.6767E+01
    -13.479  0.4592E+01  0.7358E+01
    -13.370  0.1791E+01  0.7722E+01
    -13.262  0.3338E+01  0.7967E+01
    -13.154  0.4258E+01  0.8412E+01
    -13.046  0.4630E+01  0.8896E+01
    -12.938  0.5923E+01  0.9642E+01
    -12.830  0.6719E+01  0.1034E+02
    -12.722  0.4356E+01  0.1089E+02
    -12.614  0.4530E+01  0.1137E+02
    -12.506  0.4665E+01  0.1187E+02
    -12.397  0.4781E+01  0.1238E+02
    -12.289  0.5146E+01  0.1292E+02
    -12.181  0.5493E+01  0.1349E+02
    -12.073  0.5672E+01  0.1412E+02
    -11.965  0.5528E+01  0.1472E+02
    -11.857  0.5137E+01  0.1529E+02
    -11.749  0.4948E+01  0.1584E+02
    -11.641  0.4929E+01  0.1636E+02
    -11.532  0.5026E+01  0.1690E+02
    -11.424  0.5085E+01  0.1745E+02
    -11.316  0.5227E+01  0.1800E+02
    -11.208  0.5500E+01  0.1858E+02
    -11.100  0.5908E+01  0.1920E+02
    -10.992  0.5795E+01  0.1983E+02
    -10.884  0.5746E+01  0.2045E+02
    -10.776  0.5805E+01  0.2108E+02
    -10.667  0.5340E+01  0.2170E+02
    -10.559  0.4542E+01  0.2221E+02
    -10.451  0.5148E+01  0.2274E+02
    -10.343  0.5344E+01  0.2331E+02
    -10.235  0.5445E+01  0.2389E+02
    -10.127  0.5644E+01  0.2449E+02
    -10.019  0.5894E+01  0.2511E+02
     -9.911  0.7287E+01  0.2581E+02
     -9.803  0.1062E+02  0.2676E+02
     -9.694  0.7163E+01  0.2772E+02
     -9.586  0.6718E+01  0.2838E+02
     -9.478  0.5958E+01  0.2909E+02
     -9.370  0.3638E+01  0.2962E+02
     -9.262  0.3266E+01  0.2999E+02
     -9.154  0.2895E+01  0.3032E+02
     -9.046  0.2524E+01  0.3062E+02
     -8.938  0.2399E+01  0.3087E+02
     -8.829  0.3093E+01  0.3119E+02
     -8.721  0.2029E+01  0.3147E+02
     -8.613  0.1534E+01  0.3163E+02
     -8.505  0.2425E+01  0.3184E+02
     -8.397  0.6036E+01  0.3223E+02
     -8.289  0.4518E+01  0.3299E+02
     -8.181  0.3883E+01  0.3343E+02
     -8.073  0.4215E+01  0.3387E+02
     -7.965  0.6736E+01  0.3448E+02
     -7.856  0.6188E+01  0.3526E+02
     -7.748  0.7253E+01  0.3599E+02
     -7.640  0.8352E+01  0.3683E+02
     -7.532  0.8299E+01  0.3778E+02
     -7.424  0.6325E+01  0.3855E+02
     -7.316  0.6062E+01  0.3922E+02
     -7.208  0.5802E+01  0.3986E+02
     -7.100  0.5566E+01  0.4047E+02
     -6.991  0.5371E+01  0.4106E+02
     -6.883  0.5191E+01  0.4164E+02
     -6.775  0.4997E+01  0.4219E+02
     -6.667  0.4857E+01  0.4272E+02
     -6.559  0.4829E+01  0.4324E+02
     -6.451  0.4798E+01  0.4376E+02
     -6.343  0.4654E+01  0.4428E+02
     -6.235  0.4435E+01  0.4477E+02
     -6.127  0.4381E+01  0.4525E+02
     -6.018  0.4065E+01  0.4565E+02
     -5.910  0.4219E+01  0.4609E+02
     -5.802  0.4852E+01  0.4659E+02
     -5.694  0.5650E+01  0.4715E+02
     -5.586  0.6443E+01  0.4781E+02
     -5.478  0.9869E+01  0.4868E+02
     -5.370  0.8898E+01  0.4976E+02
     -5.262  0.6590E+01  0.5059E+02
     -5.153  0.4282E+01  0.5118E+02
     -5.045  0.2618E+01  0.5153E+02
     -4.937  0.2934E+01  0.5182E+02
     -4.829  0.4143E+01  0.5220E+02
     -4.721  0.5477E+01  0.5272E+02
     -4.613  0.7028E+01  0.5339E+02
     -4.505  0.8139E+01  0.5424E+02
     -4.397  0.6986E+01  0.5506E+02
     -4.289  0.5729E+01  0.5575E+02
     -4.180  0.6653E+01  0.5637E+02
     -4.072  0.7351E+01  0.5718E+02
     -3.964  0.6830E+01  0.5795E+02
     -3.856  0.6349E+01  0.5866E+02
     -3.748  0.6454E+01  0.5935E+02
     -3.640  0.7408E+01  0.6004E+02
     -3.532  0.1248E+02  0.6116E+02
     -3.424  0.8806E+01  0.6225E+02
     -3.315  0.7923E+01  0.6316E+02
     -3.207  0.7298E+01  0.6398E+02
     -3.099  0.6801E+01  0.6473E+02
     -2.991  0.7539E+01  0.6549E+02
     -2.883  0.8602E+01  0.6636E+02
     -2.775  0.1036E+02  0.6737E+02
     -2.667  0.1430E+02  0.6871E+02
     -2.559  0.1255E+02  0.7024E+02
     -2.451  0.1154E+02  0.7150E+02
     -2.342  0.1269E+02  0.7285E+02
     -2.234  0.1397E+02  0.7421E+02
     -2.126  0.1360E+02  0.7579E+02
     -2.018  0.1503E+02  0.7724E+02
     -1.910  0.1263E+02  0.7907E+02
     -1.802  0.1344E+02  0.8031E+02
     -1.694  0.1641E+02  0.8239E+02
     -1.586  0.1839E+02  0.8432E+02
     -1.477  0.1486E+02  0.8617E+02
     -1.369  0.1218E+02  0.8764E+02
     -1.261  0.1058E+02  0.8886E+02
     -1.153  0.8970E+01  0.8995E+02
     -1.045  0.7566E+01  0.9086E+02
     -0.937  0.1081E+02  0.9183E+02
     -0.829  0.1342E+02  0.9319E+02
     -0.721  0.1644E+02  0.9464E+02
     -0.613  0.9084E+01  0.9612E+02
     -0.504  0.9770E+01  0.9712E+02
     -0.396  0.1088E+02  0.9823E+02
     -0.288  0.1047E+02  0.9937E+02
     -0.180  0.1118E+02  0.1005E+03
     -0.072  0.9532E+01  0.1016E+03
      0.036  0.9226E+01  0.1026E+03
      0.144  0.1013E+02  0.1037E+03
      0.252  0.9766E+01  0.1048E+03
      0.361  0.9328E+01  0.1058E+03
      0.469  0.9241E+01  0.1068E+03
      0.577  0.9463E+01  0.1078E+03
      0.685  0.9398E+01  0.1088E+03
      0.793  0.9265E+01  0.1099E+03
      0.901  0.9394E+01  0.1109E+03
      1.009  0.9119E+01  0.1119E+03
      1.117  0.9490E+01  0.1129E+03
      1.225  0.9597E+01  0.1139E+03
      1.334  0.9710E+01  0.1150E+03
      1.442  0.9920E+01  0.1160E+03
      1.550  0.7278E+01  0.1170E+03
      1.658  0.6611E+01  0.1177E+03
      1.766  0.6234E+01  0.1184E+03
      1.874  0.4984E+01  0.1190E+03
      1.982  0.3799E+01  0.1194E+03
      2.090  0.4240E+01  0.1198E+03
      2.199  0.6861E+01  0.1204E+03
      2.307  0.8585E+01  0.1213E+03
      2.415  0.5437E+01  0.1222E+03
      2.523  0.8493E+01  0.1229E+03
      2.631  0.6799E+01  0.1238E+03
      2.739  0.5248E+01  0.1244E+03
      2.847  0.4399E+01  0.1250E+03
      2.955  0.3743E+01  0.1254E+03
      3.063  0.3292E+01  0.1258E+03
      3.172  0.3143E+01  0.1261E+03
      3.280  0.2834E+01  0.1264E+03
      3.388  0.2435E+01  0.1267E+03
      3.496  0.2064E+01  0.1270E+03
      3.604  0.1831E+01  0.1272E+03
      3.712  0.1593E+01  0.1274E+03
      3.820  0.1353E+01  0.1275E+03
      3.928  0.1118E+01  0.1277E+03
      4.037  0.9225E+00  0.1278E+03
      4.145  0.7027E+00  0.1279E+03
      4.253  0.5007E+00  0.1279E+03
      4.361  0.3120E+00  0.1280E+03
      4.469  0.1341E+00  0.1280E+03
      4.577  0.1021E-01  0.1280E+03
      4.685  0.1340E+00  0.1280E+03
      4.793  0.2694E+00  0.1280E+03
      4.901  0.4184E+00  0.1281E+03
      5.010  0.5841E+00  0.1281E+03
      5.118  0.7733E+00  0.1282E+03
      5.226  0.1005E+01  0.1283E+03
      5.334  0.1377E+01  0.1284E+03
      5.442  0.1753E+01  0.1286E+03
      5.550  0.2093E+01  0.1288E+03
      5.658  0.2479E+01  0.1290E+03
      5.766  0.3216E+01  0.1293E+03
      5.875  0.3444E+01  0.1297E+03
      5.983  0.4410E+01  0.1301E+03
      6.091  0.7457E+01  0.1308E+03
      6.199  0.8188E+01  0.1318E+03
      6.307  0.8272E+01  0.1327E+03
      6.415  0.7995E+01  0.1336E+03
      6.523  0.7558E+01  0.1345E+03
      6.631  0.6305E+01  0.1352E+03
      6.739  0.6078E+01  0.1359E+03
      6.848  0.5579E+01  0.1365E+03
      6.956  0.4894E+01  0.1371E+03
      7.064  0.4283E+01  0.1376E+03
      7.172  0.3640E+01  0.1380E+03
      7.280  0.3580E+01  0.1384E+03
      7.388  0.3924E+01  0.1388E+03
      7.496  0.4434E+01  0.1392E+03
      7.604  0.4672E+01  0.1397E+03
      7.713  0.4698E+01  0.1402E+03
      7.821  0.4534E+01  0.1407E+03
      7.929  0.4378E+01  0.1412E+03
      8.037  0.4219E+01  0.1417E+03
      8.145  0.4045E+01  0.1421E+03
      8.253  0.3859E+01  0.1426E+03
      8.361  0.3717E+01  0.1430E+03
      8.469  0.3603E+01  0.1434E+03
      8.577  0.3525E+01  0.1437E+03
      8.686  0.3440E+01  0.1441E+03
      8.794  0.3347E+01  0.1445E+03
      8.902  0.3558E+01  0.1449E+03
      9.010  0.3759E+01  0.1453E+03
      9.118  0.3924E+01  0.1457E+03
      9.226  0.4081E+01  0.1461E+03
      9.334  0.4167E+01  0.1466E+03
      9.442  0.4063E+01  0.1470E+03
      9.551  0.3970E+01  0.1474E+03
      9.659  0.3959E+01  0.1479E+03
      9.767  0.3939E+01  0.1483E+03
      9.875  0.3958E+01  0.1487E+03
      9.983  0.3973E+01  0.1491E+03
     10.091  0.4031E+01  0.1496E+03
     10.199  0.4097E+01  0.1500E+03
     10.307  0.4245E+01  0.1505E+03
     10.415  0.4301E+01  0.1509E+03
     10.524  0.5454E+01  0.1514E+03
     10.632  0.5484E+01  0.1521E+03
     10.740  0.5349E+01  0.1526E+03
     10.848  0.4499E+01  0.1532E+03
     10.956  0.4480E+01  0.1537E+03
     11.064  0.3893E+01  0.1542E+03
     11.172  0.3467E+01  0.1546E+03
     11.280  0.3670E+01  0.1550E+03
     11.389  0.4370E+01  0.1554E+03
     11.497  0.3304E+01  0.1558E+03
     11.605  0.2447E+01  0.1561E+03
     11.713  0.3494E+01  0.1564E+03
     11.821  0.6449E+01  0.1569E+03
     11.929  0.7053E+01  0.1576E+03
     12.037  0.1068E+02  0.1586E+03
     12.145  0.1296E+02  0.1599E+03
     12.253  0.1390E+02  0.1614E+03
     12.362  0.1362E+02  0.1629E+03
     12.470  0.1050E+02  0.1642E+03
     12.578  0.7730E+01  0.1652E+03
     12.686  0.6299E+01  0.1659E+03
     12.794  0.5535E+01  0.1666E+03
     12.902  0.5465E+01  0.1672E+03
     13.010  0.2964E+01  0.1676E+03
     13.118  0.1671E+01  0.1679E+03
     13.227  0.4961E+00  0.1680E+03
     13.335  0.9517E-03  0.1680E+03
     13.443  0.0000E+00  0.1680E+03
     13.551  0.0000E+00  0.1680E+03
     13.659  0.0000E+00  0.1680E+03
     13.767  0.0000E+00  0.1680E+03
     13.875  0.0000E+00  0.1680E+03
     13.983  0.0000E+00  0.1680E+03
     14.091  0.0000E+00  0.1680E+03
     14.200  0.0000E+00  0.1680E+03
     14.308  0.0000E+00  0.1680E+03
     14.416  0.0000E+00  0.1680E+03
     14.524  0.0000E+00  0.1680E+03
     14.632  0.0000E+00  0.1680E+03
     14.740  0.0000E+00  0.1680E+03
     14.848  0.0000E+00  0.1680E+03
     14.956  0.0000E+00  0.1680E+03
     15.065  0.0000E+00  0.1680E+03
     15.173  0.0000E+00  0.1680E+03
     15.281  0.0000E+00  0.1680E+03
     15.389  0.0000E+00  0.1680E+03
