  32  32   0   0
  0.7090409E+01  0.4934311E-09  0.4934311E-09  0.1076119E-08  0.5000000E-15
  1.000000000000000E-004
  CAR 
 graphite                                
     18.63944381    -15.28167233  301      6.77450382      1.00000000
    -15.282  0.0000E+00  0.0000E+00
    -15.169  0.0000E+00  0.0000E+00
    -15.056  0.0000E+00  0.0000E+00
    -14.942  0.0000E+00  0.0000E+00
    -14.829  0.0000E+00  0.0000E+00
    -14.716  0.0000E+00  0.0000E+00
    -14.603  0.0000E+00  0.0000E+00
    -14.490  0.0000E+00  0.0000E+00
    -14.377  0.0000E+00  0.0000E+00
    -14.264  0.0000E+00  0.0000E+00
    -14.151  0.0000E+00  0.0000E+00
    -14.038  0.0000E+00  0.0000E+00
    -13.925  0.0000E+00  0.0000E+00
    -13.812  0.0000E+00  0.0000E+00
    -13.699  0.0000E+00  0.0000E+00
    -13.586  0.0000E+00  0.0000E+00
    -13.473  0.0000E+00  0.0000E+00
    -13.359  0.0000E+00  0.0000E+00
    -13.246  0.1988E+00  0.2337E-02
    -13.133  0.1001E+01  0.8466E-01
    -13.020  0.1491E+01  0.2284E+00
    -12.907  0.1792E+01  0.4130E+00
    -12.794  0.2118E+01  0.6332E+00
    -12.681  0.2392E+01  0.8894E+00
    -12.568  0.2637E+01  0.1173E+01
    -12.455  0.2921E+01  0.1487E+01
    -12.342  0.3228E+01  0.1835E+01
    -12.229  0.3487E+01  0.2214E+01
    -12.116  0.3821E+01  0.2626E+01
    -12.003  0.4450E+01  0.3094E+01
    -11.890  0.5269E+01  0.3649E+01
    -11.776  0.5795E+01  0.4278E+01
    -11.663  0.5153E+01  0.4920E+01
    -11.550  0.4018E+01  0.5431E+01
    -11.437  0.4863E+01  0.5911E+01
    -11.324  0.6014E+01  0.6540E+01
    -11.211  0.4760E+01  0.7191E+01
    -11.098  0.5009E+01  0.7738E+01
    -10.985  0.2789E+01  0.8135E+01
    -10.872  0.5758E+01  0.8608E+01
    -10.759  0.4606E+01  0.9175E+01
    -10.646  0.3468E+01  0.9666E+01
    -10.533  0.5934E+01  0.1017E+02
    -10.420  0.6541E+01  0.1091E+02
    -10.307  0.4726E+01  0.1152E+02
    -10.194  0.4717E+01  0.1208E+02
    -10.080  0.4924E+01  0.1261E+02
     -9.967  0.4961E+01  0.1322E+02
     -9.854  0.4948E+01  0.1378E+02
     -9.741  0.5061E+01  0.1434E+02
     -9.628  0.5016E+01  0.1491E+02
     -9.515  0.5302E+01  0.1549E+02
     -9.402  0.5350E+01  0.1609E+02
     -9.289  0.5391E+01  0.1671E+02
     -9.176  0.5532E+01  0.1732E+02
     -9.063  0.5548E+01  0.1794E+02
     -8.950  0.5847E+01  0.1859E+02
     -8.837  0.6093E+01  0.1926E+02
     -8.724  0.6289E+01  0.1995E+02
     -8.611  0.6558E+01  0.2068E+02
     -8.497  0.5437E+01  0.2136E+02
     -8.384  0.4422E+01  0.2191E+02
     -8.271  0.3984E+01  0.2238E+02
     -8.158  0.3788E+01  0.2282E+02
     -8.045  0.4247E+01  0.2326E+02
     -7.932  0.5252E+01  0.2380E+02
     -7.819  0.5697E+01  0.2443E+02
     -7.706  0.6237E+01  0.2510E+02
     -7.593  0.7853E+01  0.2590E+02
     -7.480  0.7278E+01  0.2675E+02
     -7.367  0.7013E+01  0.2757E+02
     -7.254  0.8655E+01  0.2845E+02
     -7.141  0.4692E+01  0.2917E+02
     -7.028  0.3837E+01  0.2964E+02
     -6.914  0.3968E+01  0.3007E+02
     -6.801  0.3381E+01  0.3049E+02
     -6.688  0.2739E+01  0.3084E+02
     -6.575  0.2137E+01  0.3111E+02
     -6.462  0.1810E+01  0.3133E+02
     -6.349  0.2396E+01  0.3154E+02
     -6.236  0.5629E+01  0.3197E+02
     -6.123  0.4206E+01  0.3243E+02
     -6.010  0.4353E+01  0.3293E+02
     -5.897  0.4997E+01  0.3345E+02
     -5.784  0.5035E+01  0.3402E+02
     -5.671  0.5147E+01  0.3459E+02
     -5.558  0.6692E+01  0.3526E+02
     -5.445  0.8329E+01  0.3610E+02
     -5.331  0.7618E+01  0.3698E+02
     -5.218  0.6958E+01  0.3780E+02
     -5.105  0.7037E+01  0.3859E+02
     -4.992  0.6578E+01  0.3938E+02
     -4.879  0.5609E+01  0.4004E+02
     -4.766  0.5414E+01  0.4066E+02
     -4.653  0.5229E+01  0.4126E+02
     -4.540  0.5101E+01  0.4184E+02
     -4.427  0.5029E+01  0.4242E+02
     -4.314  0.4883E+01  0.4298E+02
     -4.201  0.4790E+01  0.4352E+02
     -4.088  0.4747E+01  0.4406E+02
     -3.975  0.4151E+01  0.4457E+02
     -3.862  0.3716E+01  0.4501E+02
     -3.748  0.3693E+01  0.4542E+02
     -3.635  0.4110E+01  0.4586E+02
     -3.522  0.5423E+01  0.4638E+02
     -3.409  0.6813E+01  0.4707E+02
     -3.296  0.8003E+01  0.4793E+02
     -3.183  0.7834E+01  0.4883E+02
     -3.070  0.7340E+01  0.4969E+02
     -2.957  0.7465E+01  0.5051E+02
     -2.844  0.4000E+01  0.5125E+02
     -2.731  0.2791E+01  0.5159E+02
     -2.618  0.3618E+01  0.5194E+02
     -2.505  0.5752E+01  0.5246E+02
     -2.392  0.7655E+01  0.5324E+02
     -2.279  0.9146E+01  0.5418E+02
     -2.166  0.8609E+01  0.5521E+02
     -2.052  0.7109E+01  0.5610E+02
     -1.939  0.5951E+01  0.5681E+02
     -1.826  0.6513E+01  0.5750E+02
     -1.713  0.7791E+01  0.5830E+02
     -1.600  0.9082E+01  0.5929E+02
     -1.487  0.9639E+01  0.6033E+02
     -1.374  0.9264E+01  0.6141E+02
     -1.261  0.8079E+01  0.6238E+02
     -1.148  0.8709E+01  0.6330E+02
     -1.035  0.8464E+01  0.6434E+02
     -0.922  0.8517E+01  0.6535E+02
     -0.809  0.7801E+01  0.6628E+02
     -0.696  0.8050E+01  0.6716E+02
     -0.583  0.9280E+01  0.6814E+02
     -0.469  0.9628E+01  0.6923E+02
     -0.356  0.9913E+01  0.7033E+02
     -0.243  0.1112E+02  0.7150E+02
     -0.130  0.1332E+02  0.7289E+02
     -0.017  0.1270E+02  0.7436E+02
      0.096  0.1336E+02  0.7583E+02
      0.209  0.1185E+02  0.7728E+02
      0.322  0.1220E+02  0.7869E+02
      0.435  0.1164E+02  0.8003E+02
      0.548  0.1565E+02  0.8158E+02
      0.661  0.1557E+02  0.8339E+02
      0.774  0.1451E+02  0.8511E+02
      0.887  0.1290E+02  0.8664E+02
      1.000  0.1131E+02  0.8802E+02
      1.114  0.9584E+01  0.8919E+02
      1.227  0.9633E+01  0.9028E+02
      1.340  0.1017E+02  0.9139E+02
      1.453  0.1207E+02  0.9262E+02
      1.566  0.1027E+02  0.9393E+02
      1.679  0.1054E+02  0.9518E+02
      1.792  0.9165E+01  0.9625E+02
      1.905  0.9532E+01  0.9731E+02
      2.018  0.9784E+01  0.9840E+02
      2.131  0.9591E+01  0.9948E+02
      2.244  0.9816E+01  0.1006E+03
      2.357  0.9852E+01  0.1017E+03
      2.470  0.1024E+02  0.1028E+03
      2.583  0.1051E+02  0.1040E+03
      2.697  0.1036E+02  0.1052E+03
      2.810  0.9861E+01  0.1064E+03
      2.923  0.9114E+01  0.1074E+03
      3.036  0.8885E+01  0.1085E+03
      3.149  0.8026E+01  0.1094E+03
      3.262  0.8085E+01  0.1103E+03
      3.375  0.8849E+01  0.1113E+03
      3.488  0.1127E+02  0.1124E+03
      3.601  0.1014E+02  0.1137E+03
      3.714  0.8631E+01  0.1147E+03
      3.827  0.7320E+01  0.1156E+03
      3.940  0.5820E+01  0.1163E+03
      4.053  0.5371E+01  0.1169E+03
      4.166  0.5589E+01  0.1176E+03
      4.280  0.4277E+01  0.1182E+03
      4.393  0.3752E+01  0.1186E+03
      4.506  0.4025E+01  0.1190E+03
      4.619  0.4736E+01  0.1195E+03
      4.732  0.5844E+01  0.1201E+03
      4.845  0.6761E+01  0.1208E+03
      4.958  0.1000E+02  0.1218E+03
      5.071  0.6615E+01  0.1227E+03
      5.184  0.6141E+01  0.1234E+03
      5.297  0.4809E+01  0.1241E+03
      5.410  0.5835E+01  0.1246E+03
      5.523  0.3506E+01  0.1251E+03
      5.636  0.3747E+01  0.1255E+03
      5.749  0.3607E+01  0.1260E+03
      5.862  0.3226E+01  0.1263E+03
      5.976  0.2863E+01  0.1267E+03
      6.089  0.2423E+01  0.1270E+03
      6.202  0.2021E+01  0.1272E+03
      6.315  0.1871E+01  0.1275E+03
      6.428  0.2484E+01  0.1277E+03
      6.541  0.1214E+01  0.1279E+03
      6.654  0.2409E+00  0.1280E+03
      6.767  0.6140E-02  0.1280E+03
      6.880  0.1070E+00  0.1280E+03
      6.993  0.3216E+00  0.1280E+03
      7.106  0.5434E+00  0.1281E+03
      7.219  0.7707E+00  0.1282E+03
      7.332  0.9830E+00  0.1283E+03
      7.445  0.1072E+01  0.1284E+03
      7.559  0.1186E+01  0.1285E+03
      7.672  0.1337E+01  0.1286E+03
      7.785  0.1510E+01  0.1288E+03
      7.898  0.1658E+01  0.1290E+03
      8.011  0.1821E+01  0.1292E+03
      8.124  0.2648E+01  0.1294E+03
      8.237  0.3137E+01  0.1298E+03
      8.350  0.4117E+01  0.1302E+03
      8.463  0.7131E+01  0.1308E+03
      8.576  0.9640E+01  0.1317E+03
      8.689  0.6704E+01  0.1328E+03
      8.802  0.6889E+01  0.1335E+03
      8.915  0.5918E+01  0.1343E+03
      9.028  0.6597E+01  0.1349E+03
      9.142  0.6589E+01  0.1357E+03
      9.255  0.5580E+01  0.1364E+03
      9.368  0.5160E+01  0.1370E+03
      9.481  0.4696E+01  0.1376E+03
      9.594  0.4411E+01  0.1381E+03
      9.707  0.4118E+01  0.1386E+03
      9.820  0.4293E+01  0.1390E+03
      9.933  0.4887E+01  0.1395E+03
     10.046  0.5172E+01  0.1401E+03
     10.159  0.4270E+01  0.1407E+03
     10.272  0.3804E+01  0.1411E+03
     10.385  0.3823E+01  0.1415E+03
     10.498  0.4262E+01  0.1420E+03
     10.611  0.4574E+01  0.1425E+03
     10.725  0.4198E+01  0.1430E+03
     10.838  0.3936E+01  0.1435E+03
     10.951  0.3748E+01  0.1439E+03
     11.064  0.3564E+01  0.1443E+03
     11.177  0.3468E+01  0.1447E+03
     11.290  0.3413E+01  0.1451E+03
     11.403  0.3377E+01  0.1455E+03
     11.516  0.3252E+01  0.1459E+03
     11.629  0.3198E+01  0.1462E+03
     11.742  0.3133E+01  0.1466E+03
     11.855  0.3072E+01  0.1469E+03
     11.968  0.3056E+01  0.1473E+03
     12.081  0.3009E+01  0.1476E+03
     12.194  0.3095E+01  0.1480E+03
     12.308  0.3000E+01  0.1483E+03
     12.421  0.2843E+01  0.1486E+03
     12.534  0.3342E+01  0.1490E+03
     12.647  0.3201E+01  0.1494E+03
     12.760  0.3134E+01  0.1498E+03
     12.873  0.2673E+01  0.1501E+03
     12.986  0.2124E+01  0.1504E+03
     13.099  0.1711E+01  0.1506E+03
     13.212  0.2129E+01  0.1508E+03
     13.325  0.2431E+01  0.1510E+03
     13.438  0.2829E+01  0.1513E+03
     13.551  0.3795E+01  0.1518E+03
     13.664  0.3184E+01  0.1521E+03
     13.777  0.3896E+01  0.1525E+03
     13.890  0.4969E+01  0.1530E+03
     14.004  0.6096E+01  0.1536E+03
     14.117  0.6755E+01  0.1544E+03
     14.230  0.6721E+01  0.1551E+03
     14.343  0.5993E+01  0.1558E+03
     14.456  0.7646E+01  0.1566E+03
     14.569  0.9819E+01  0.1576E+03
     14.682  0.9252E+01  0.1586E+03
     14.795  0.1119E+02  0.1598E+03
     14.908  0.1202E+02  0.1611E+03
     15.021  0.1112E+02  0.1624E+03
     15.134  0.1232E+02  0.1638E+03
     15.247  0.1143E+02  0.1651E+03
     15.360  0.6579E+01  0.1660E+03
     15.473  0.3802E+01  0.1666E+03
     15.587  0.2716E+01  0.1669E+03
     15.700  0.2166E+01  0.1672E+03
     15.813  0.1752E+01  0.1674E+03
     15.926  0.1327E+01  0.1676E+03
     16.039  0.1088E+01  0.1677E+03
     16.152  0.7986E+00  0.1679E+03
     16.265  0.5253E+00  0.1679E+03
     16.378  0.2844E+00  0.1680E+03
     16.491  0.8105E-01  0.1680E+03
     16.604  0.3104E-02  0.1680E+03
     16.717  0.0000E+00  0.1680E+03
     16.830  0.0000E+00  0.1680E+03
     16.943  0.0000E+00  0.1680E+03
     17.056  0.0000E+00  0.1680E+03
     17.170  0.0000E+00  0.1680E+03
     17.283  0.0000E+00  0.1680E+03
     17.396  0.0000E+00  0.1680E+03
     17.509  0.0000E+00  0.1680E+03
     17.622  0.0000E+00  0.1680E+03
     17.735  0.0000E+00  0.1680E+03
     17.848  0.0000E+00  0.1680E+03
     17.961  0.0000E+00  0.1680E+03
     18.074  0.0000E+00  0.1680E+03
     18.187  0.0000E+00  0.1680E+03
     18.300  0.0000E+00  0.1680E+03
     18.413  0.0000E+00  0.1680E+03
     18.526  0.0000E+00  0.1680E+03
     18.639  0.0000E+00  0.1680E+03
