   32   32    1    1
  0.8861552E+01  0.4932875E-09  0.4932875E-09  0.1346245E-08  0.5000000E-15
  1.000000000000000E-004
  CAR 
 graphite                                
    128    163     81
 
  0.0000000E+00  0.0000000E+00  0.0000000E+00  0.3086420E-02
    1      -14.978696
    2      -14.837332
    3      -14.836940
    4      -14.685915
    5       -9.657927
    6       -9.647406
    7       -9.645069
    8       -9.600315
    9       -9.598270
   10       -9.588360
   11       -9.586572
   12       -9.586525
   13       -9.583016
   14       -9.550245
   15       -9.537495
   16       -9.534276
   17       -8.580642
   18       -8.578923
   19       -8.577291
   20       -8.549661
   21       -8.548492
   22       -8.546751
   23       -8.545945
   24       -8.545901
   25       -8.543676
   26       -8.497300
   27       -8.496875
   28       -8.494879
   29       -3.837404
   30       -2.965154
   31       -2.963506
   32       -1.903441
   33       -1.752898
   34       -1.750610
   35       -1.735053
   36       -1.726419
   37       -1.725170
   38       -1.725161
   39       -1.721582
   40       -1.708908
   41       -1.706478
   42       -1.698572
   43       -1.695783
   44       -1.680501
   45        1.643800
   46        1.650759
   47        1.651757
   48        1.656731
   49        1.662771
   50        1.667864
   51        1.668664
   52        1.675437
   53        1.895980
   54        1.898588
   55        1.900126
   56        2.288634
   57        2.292174
   58        2.298861
   59        2.299319
   60        2.299633
   61        2.303877
   62        2.560082
   63        2.578026
   64        2.580646
   65        6.160343
   66        6.163500
   67        6.169838
   68        6.303361
   69        6.305225
   70        6.307519
   71        6.309850
   72        6.310063
   73        6.312501
   74        6.823130
   75        6.830297
   76        6.832787
   77        8.927580
   78       11.537825
   79       11.541632
   80       11.852880
   81       11.864643
 
  0.1111111E+00  0.0000000E+00  0.0000000E+00  0.6172840E-02
    1      -14.905060
    2      -14.764196
    3      -14.763804
    4      -14.613526
    5      -10.443711
    6      -10.342936
    7      -10.342609
    8      -10.237989
    9       -9.905884
   10       -9.897027
   11       -9.819690
   12       -9.818416
   13       -9.809665
   14       -9.809137
   15       -9.731739
   16       -9.721614
   17       -8.276358
   18       -8.272237
   19       -8.208212
   20       -8.206359
   21       -8.202784
   22       -8.202160
   23       -8.130240
   24       -8.125463
   25       -7.761421
   26       -7.683205
   27       -7.681295
   28       -7.599157
   29       -3.747970
   30       -2.877991
   31       -2.876346
   32       -1.979073
   33       -1.962081
   34       -1.949150
   35       -1.948943
   36       -1.932995
   37       -1.930633
   38       -1.918702
   39       -1.901605
   40       -1.819783
   41       -1.678547
   42       -1.652829
   43       -1.650341
   44       -1.624553
   45        1.307883
   46        1.349235
   47        1.361208
   48        1.365562
   49        1.376391
   50        1.489538
   51        1.499598
   52        1.503721
   53        1.515448
   54        1.779077
   55        1.783045
   56        1.872361
   57        1.875024
   58        2.237170
   59        2.240587
   60        2.246891
   61        2.248297
   62        2.430350
   63        2.613109
   64        2.628902
   65        6.239553
   66        6.244388
   67        6.435246
   68        6.438354
   69        6.440796
   70        6.443460
   71        6.529690
   72        6.847119
   73        6.851132
   74        6.958649
   75        6.966650
   76        7.428816
   77        9.016487
   78       11.614911
   79       11.618630
   80       11.895292
   81       12.082493
 
  0.2222222E+00  0.0000000E+00  0.0000000E+00  0.6172840E-02
    1      -14.684354
    2      -14.545312
    3      -14.544924
    4      -14.396713
    5      -11.455419
    6      -11.343100
    7      -11.342765
    8      -11.224997
    9      -10.252594
   10      -10.246665
   11      -10.154267
   12      -10.153395
   13      -10.147744
   14      -10.147124
   15      -10.050989
   16      -10.044606
   17       -7.596229
   18       -7.588941
   19       -7.520680
   20       -7.518965
   21       -7.512394
   22       -7.511908
   23       -7.439183
   24       -7.431730
   25       -6.435512
   26       -6.362517
   27       -6.360687
   28       -6.284867
   29       -3.480521
   30       -2.617784
   31       -2.616151
   32       -2.586128
   33       -2.570070
   34       -2.549516
   35       -2.549150
   36       -2.534238
   37       -2.531953
   38       -2.511409
   39       -2.495273
   40       -1.569886
   41       -1.463305
   42       -1.438355
   43       -1.435784
   44       -1.410444
   45        0.288255
   46        0.523311
   47        0.542658
   48        0.547033
   49        0.566302
   50        0.982415
   51        0.984481
   52        1.069073
   53        1.083414
   54        1.087604
   55        1.102652
   56        1.557847
   57        1.562052
   58        1.770213
   59        2.116378
   60        2.119617
   61        2.124388
   62        2.125692
   63        2.670568
   64        2.681801
   65        6.486263
   66        6.488428
   67        6.769776
   68        6.772403
   69        6.775409
   70        6.778112
   71        7.267360
   72        7.272879
   73        7.660320
   74        8.070628
   75        8.073929
   76        8.641225
   77        9.283904
   78       11.844839
   79       11.848389
   80       12.010698
   81       12.189429
 
  0.3333333E+00  0.2775558E-16  0.0000000E+00  0.6172840E-02
    1      -14.317776
    2      -14.181709
    3      -14.181326
    4      -14.036562
    5      -12.368703
    6      -12.248635
    7      -12.248277
    8      -12.121408
    9      -10.508878
   10      -10.505202
   11      -10.405986
   12      -10.405090
   13      -10.401865
   14      -10.401030
   15      -10.297527
   16      -10.293664
   17       -6.788030
   18       -6.779049
   19       -6.718455
   20       -6.716653
   21       -6.708825
   22       -6.708052
   23       -6.644404
   24       -6.635552
   25       -5.001553
   26       -4.938487
   27       -4.936412
   28       -4.871329
   29       -3.402170
   30       -3.388171
   31       -3.359156
   32       -3.358397
   33       -3.345767
   34       -3.343387
   35       -3.313765
   36       -3.299621
   37       -3.037669
   38       -2.187637
   39       -2.186018
   40       -1.157822
   41       -1.114100
   42       -1.090234
   43       -1.087498
   44       -1.062972
   45       -0.733590
   46       -0.661633
   47       -0.631952
   48       -0.628394
   49       -0.598624
   50        0.028477
   51        0.030260
   52        0.505694
   53        0.523658
   54        0.527521
   55        0.546106
   56        0.926394
   57        1.366550
   58        1.369823
   59        1.992795
   60        1.995990
   61        1.998839
   62        2.000003
   63        2.676960
   64        2.683791
   65        6.842645
   66        6.845623
   67        7.161553
   68        7.163473
   69        7.166212
   70        7.169373
   71        7.575520
   72        7.578947
   73        9.167348
   74        9.548997
   75        9.552228
   76        9.730119
   77       10.049602
   78       12.006495
   79       12.208946
   80       12.218504
   81       12.282197
 
  0.4444444E+00  0.0000000E+00  0.0000000E+00  0.6172840E-02
    1      -13.807192
    2      -13.675380
    3      -13.674998
    4      -13.534970
    5      -13.155761
    6      -13.029251
    7      -13.028886
    8      -12.894865
    9      -10.640757
   10      -10.638749
   11      -10.536547
   12      -10.535238
   13      -10.534185
   14      -10.532862
   15      -10.425694
   16      -10.423603
   17       -6.036900
   18       -6.030067
   19       -5.986668
   20       -5.984654
   21       -5.979907
   22       -5.977758
   23       -5.934541
   24       -5.928352
   25       -4.150679
   26       -4.142977
   27       -4.115955
   28       -4.113887
   29       -4.108043
   30       -4.105331
   31       -4.074852
   32       -4.066424
   33       -3.520486
   34       -3.468607
   35       -3.466146
   36       -3.412700
   37       -2.424411
   38       -2.048075
   39       -2.007919
   40       -2.004862
   41       -1.962843
   42       -1.650395
   43       -1.593147
   44       -1.591398
   45       -0.847345
   46       -0.845661
   47       -0.647676
   48       -0.624905
   49       -0.621933
   50       -0.598817
   51       -0.591388
   52       -0.091904
   53       -0.071078
   54       -0.067583
   55       -0.046287
   56        0.113791
   57        1.260879
   58        1.263057
   59        1.918518
   60        1.922016
   61        1.922993
   62        1.924122
   63        2.665154
   64        2.668367
   65        7.127246
   66        7.130001
   67        7.429506
   68        7.430597
   69        7.431855
   70        7.436056
   71        7.746732
   72        7.749526
   73       10.351764
   74       10.791774
   75       11.087556
   76       11.091820
   77       11.142103
   78       11.506062
   79       12.407739
   80       12.431999
   81       12.466217
 
  0.0000000E+00  0.1111111E+00  0.0000000E+00  0.6172840E-02
    1      -14.905059
    2      -14.764194
    3      -14.763803
    4      -14.613524
    5      -10.443816
    6      -10.343052
    7      -10.342740
    8      -10.238137
    9       -9.905891
   10       -9.896698
   11       -9.819630
   12       -9.818419
   13       -9.809654
   14       -9.808448
   15       -9.731702
   16       -9.721227
   17       -8.276693
   18       -8.273281
   19       -8.208250
   20       -8.207877
   21       -8.203121
   22       -8.202722
   23       -8.130543
   24       -8.126253
   25       -7.760403
   26       -7.681399
   27       -7.681158
   28       -7.598221
   29       -3.747974
   30       -2.877996
   31       -2.876351
   32       -1.977875
   33       -1.961952
   34       -1.948955
   35       -1.946654
   36       -1.933114
   37       -1.930633
   38       -1.917435
   39       -1.901684
   40       -1.819790
   41       -1.679624
   42       -1.652859
   43       -1.652760
   44       -1.625979
   45        1.307256
   46        1.353098
   47        1.365558
   48        1.365714
   49        1.378103
   50        1.487967
   51        1.499363
   52        1.499599
   53        1.511017
   54        1.779187
   55        1.783958
   56        1.871898
   57        1.873535
   58        2.237582
   59        2.240542
   60        2.247134
   61        2.250213
   62        2.429083
   63        2.613207
   64        2.630271
   65        6.237569
   66        6.244167
   67        6.434875
   68        6.436780
   69        6.440052
   70        6.441938
   71        6.531773
   72        6.849991
   73        6.851763
   74        6.958458
   75        6.964836
   76        7.430453
   77        9.016481
   78       11.614883
   79       11.618612
   80       11.894083
   81       12.085259
 
  0.1111111E+00  0.1111111E+00  0.0000000E+00  0.6172840E-02
    1      -14.757777
    2      -14.618112
    3      -14.617724
    4      -14.468815
    5      -10.909387
    6      -10.906397
    7      -10.803864
    8      -10.800857
    9      -10.800827
   10      -10.797824
   11      -10.690215
   12      -10.687141
   13       -9.468794
   14       -9.411778
   15       -9.410270
   16       -9.363077
   17       -8.394296
   18       -8.365644
   19       -8.362445
   20       -8.316365
   21       -7.078107
   22       -7.074799
   23       -7.003032
   24       -6.998946
   25       -6.998919
   26       -6.996551
   27       -6.920569
   28       -6.917348
   29       -3.569435
   30       -2.704270
   31       -2.702630
   32       -2.645485
   33       -2.609244
   34       -2.606881
   35       -2.570002
   36       -1.834342
   37       -1.831945
   38       -1.805630
   39       -1.804111
   40       -1.804102
   41       -1.800350
   42       -1.775007
   43       -1.771985
   44       -1.652912
   45        0.819209
   46        0.831666
   47        0.836622
   48        0.846663
   49        0.873602
   50        0.874881
   51        1.175457
   52        1.183684
   53        1.187855
   54        1.199093
   55        1.511681
   56        1.513655
   57        1.513721
   58        1.517225
   59        2.163109
   60        2.205854
   61        2.208368
   62        2.555232
   63        2.558295
   64        2.821352
   65        6.151503
   66        6.231361
   67        6.235902
   68        6.650394
   69        7.011871
   70        7.014738
   71        7.389308
   72        7.393747
   73        7.393955
   74        7.395421
   75        7.956059
   76        7.958632
   77        9.194982
   78       11.769952
   79       11.773535
   80       12.266786
   81       12.273948
 
  0.2222222E+00  0.1111111E+00  0.0000000E+00  0.6172840E-02
    1      -14.464014
    2      -14.326763
    3      -14.326379
    4      -14.180238
    5      -11.875056
    6      -11.759269
    7      -11.758921
    8      -11.637018
    9      -11.250334
   10      -11.140035
   11      -11.139713
   12      -11.023729
   13       -9.519826
   14       -9.436828
   15       -9.435975
   16       -9.352535
   17       -7.929034
   18       -7.865871
   19       -7.863269
   20       -7.793119
   21       -6.291666
   22       -6.221148
   23       -6.220829
   24       -6.147692
   25       -5.694637
   26       -5.627189
   27       -5.625357
   28       -5.555686
   29       -3.553971
   30       -3.509682
   31       -3.507387
   32       -3.461803
   33       -3.214087
   34       -2.361152
   35       -2.358843
   36       -2.357204
   37       -2.325736
   38       -2.325306
   39       -2.289092
   40       -1.546160
   41       -1.518718
   42       -1.516214
   43       -1.488369
   44       -1.321661
   45       -0.169655
   46       -0.134168
   47       -0.114287
   48       -0.109655
   49       -0.090556
   50        0.537397
   51        0.561798
   52        0.563627
   53        0.630931
   54        0.644162
   55        0.648996
   56        0.664157
   57        1.224846
   58        1.226448
   59        1.411087
   60        2.004824
   61        2.298778
   62        2.757643
   63        2.760598
   64        3.132209
   65        6.124887
   66        6.239965
   67        6.244236
   68        6.595990
   69        7.588392
   70        7.963577
   71        7.965365
   72        8.366199
   73        8.446024
   74        8.762177
   75        8.765041
   76        9.277779
   77        9.552841
   78       12.077188
   79       12.080434
   80       12.389165
   81       12.594056
 
  0.3333333E+00  0.1111111E+00  0.0000000E+00  0.6172840E-02
    1      -14.025347
    2      -13.891695
    3      -13.891314
    4      -13.749264
    5      -12.725864
    6      -12.602848
    7      -12.602489
    8      -12.472467
    9      -11.459323
   10      -11.346998
   11      -11.346670
   12      -11.228642
   13       -9.663702
   14       -9.570574
   15       -9.570148
   16       -9.473501
   17       -7.163387
   18       -7.099681
   19       -7.097259
   20       -7.030960
   21       -5.491244
   22       -5.433317
   23       -5.432336
   24       -5.373050
   25       -4.492513
   26       -4.446537
   27       -4.444068
   28       -4.395413
   29       -4.244622
   30       -4.187967
   31       -4.185894
   32       -4.127825
   33       -3.060520
   34       -3.022803
   35       -3.021567
   36       -2.981625
   37       -2.685661
   38       -1.846702
   39       -1.845140
   40       -1.380888
   41       -1.348149
   42       -1.344077
   43       -1.312262
   44       -1.144408
   45       -1.129608
   46       -1.103653
   47       -1.101035
   48       -1.074753
   49       -0.831870
   50       -0.362075
   51       -0.360383
   52        0.005649
   53        0.024758
   54        0.028978
   55        0.048969
   56        0.327631
   57        0.568186
   58        1.040556
   59        1.042193
   60        1.866773
   61        2.296940
   62        2.848324
   63        2.850864
   64        3.403827
   65        6.114151
   66        6.359334
   67        6.362896
   68        6.696491
   69        8.096892
   70        8.418785
   71        8.420792
   72        8.774756
   73        9.932359
   74       10.088503
   75       10.269322
   76       10.271905
   77       10.699644
   78       11.666492
   79       12.487920
   80       12.491789
   81       12.672719
 
  0.4444444E+00  0.1111111E+00  0.0000000E+00  0.6172840E-02
    1      -13.446271
    2      -13.443305
    3      -13.318541
    4      -13.316068
    5      -13.315117
    6      -13.312794
    7      -13.180245
    8      -13.177219
    9      -11.529864
   10      -11.417056
   11      -11.416724
   12      -11.298051
   13       -9.718472
   14       -9.623302
   15       -9.622990
   16       -9.523930
   17       -6.653194
   18       -6.612360
   19       -6.610128
   20       -6.571457
   21       -5.016971
   22       -5.014305
   23       -4.990668
   24       -4.988227
   25       -4.983165
   26       -4.980319
   27       -4.957485
   28       -4.948370
   29       -3.476132
   30       -3.454434
   31       -3.451332
   32       -3.424799
   33       -2.786063
   34       -2.781910
   35       -2.742523
   36       -2.737567
   37       -2.736031
   38       -2.735570
   39       -2.692445
   40       -2.688943
   41       -1.992858
   42       -1.990377
   43       -1.177386
   44       -1.175272
   45       -1.174485
   46       -1.171541
   47       -0.603263
   48       -0.598908
   49       -0.579170
   50       -0.578463
   51       -0.576300
   52       -0.569925
   53       -0.553351
   54       -0.545999
   55       -0.196344
   56       -0.193522
   57        0.255721
   58        0.976735
   59        0.978442
   60        1.817276
   61        2.285602
   62        2.872046
   63        2.874126
   64        3.505518
   65        6.122252
   66        6.426854
   67        6.429556
   68        6.751555
   69        8.316127
   70        8.596133
   71        8.598548
   72        8.877593
   73       10.796923
   74       10.798616
   75       11.525571
   76       11.529170
   77       11.759260
   78       11.764546
   79       11.765534
   80       11.768538
   81       12.117011
 
 -0.4444444E+00  0.1111111E+00  0.0000000E+00  0.6172840E-02
    1      -14.026090
    2      -13.892435
    3      -13.892057
    4      -13.750003
    5      -12.724687
    6      -12.601677
    7      -12.601312
    8      -12.471295
    9      -11.461105
   10      -11.348776
   11      -11.348446
   12      -11.230439
   13       -9.660785
   14       -9.567347
   15       -9.567065
   16       -9.470190
   17       -7.156823
   18       -7.092220
   19       -7.091531
   20       -7.024400
   21       -5.501119
   22       -5.443689
   23       -5.441201
   24       -5.382413
   25       -4.503010
   26       -4.456403
   27       -4.455622
   28       -4.406289
   29       -4.247169
   30       -4.190711
   31       -4.188281
   32       -4.130411
   33       -3.047892
   34       -3.010828
   35       -3.007792
   36       -2.968581
   37       -2.686469
   38       -1.847498
   39       -1.845943
   40       -1.379393
   41       -1.346136
   42       -1.343442
   43       -1.311050
   44       -1.143211
   45       -1.127110
   46       -1.101368
   47       -1.098300
   48       -1.072206
   49       -0.832668
   50       -0.360927
   51       -0.359193
   52        0.004172
   53        0.023753
   54        0.026519
   55        0.046736
   56        0.325891
   57        0.569306
   58        1.038378
   59        1.040186
   60        1.864002
   61        2.298528
   62        2.852334
   63        2.854099
   64        3.411588
   65        6.112567
   66        6.361142
   67        6.363159
   68        6.696838
   69        8.092858
   70        8.414784
   71        8.417647
   72        8.773226
   73        9.932322
   74       10.087409
   75       10.268179
   76       10.271112
   77       10.697875
   78       11.668123
   79       12.488097
   80       12.490985
   81       12.669159
 
 -0.3333333E+00  0.1111111E+00  0.0000000E+00  0.6172840E-02
    1      -14.464539
    2      -14.327291
    3      -14.326907
    4      -14.180772
    5      -11.873664
    6      -11.757877
    7      -11.757526
    8      -11.635622
    9      -11.253908
   10      -11.143631
   11      -11.143310
   12      -11.027373
   13       -9.513345
   14       -9.429446
   15       -9.429198
   16       -9.344716
   17       -7.924837
   18       -7.859971
   19       -7.859737
   20       -7.788036
   21       -6.301524
   22       -6.231757
   23       -6.229744
   24       -6.157334
   25       -5.697115
   26       -5.629785
   27       -5.627754
   28       -5.558204
   29       -3.567744
   30       -3.522483
   31       -3.522256
   32       -3.475677
   33       -3.214674
   34       -2.359448
   35       -2.357829
   36       -2.345061
   37       -2.310728
   38       -2.308028
   39       -2.272939
   40       -1.544205
   41       -1.516874
   42       -1.514164
   43       -1.486425
   44       -1.322243
   45       -0.168314
   46       -0.135070
   47       -0.114492
   48       -0.112565
   49       -0.092463
   50        0.534119
   51        0.563011
   52        0.564853
   53        0.632935
   54        0.646796
   55        0.649101
   56        0.663884
   57        1.220544
   58        1.222491
   59        1.412216
   60        1.999171
   61        2.300938
   62        2.765020
   63        2.766680
   64        3.146601
   65        6.120050
   66        6.242788
   67        6.244569
   68        6.599226
   69        7.583881
   70        7.957364
   71        7.960591
   72        8.365707
   73        8.441931
   74        8.760735
   75        8.763994
   76        9.275869
   77        9.552037
   78       12.076304
   79       12.079531
   80       12.387594
   81       12.590255
 
 -0.2222222E+00  0.1111111E+00  0.0000000E+00  0.6172840E-02
    1      -14.758099
    2      -14.618435
    3      -14.618047
    4      -14.469139
    5      -10.913299
    6      -10.906253
    7      -10.806540
    8      -10.806225
    9      -10.799427
   10      -10.799116
   11      -10.694361
   12      -10.687157
   13       -9.457806
   14       -9.398999
   15       -9.398829
   16       -9.349654
   17       -8.394311
   18       -8.363590
   19       -8.363478
   20       -8.315086
   21       -7.084038
   22       -7.079076
   23       -7.007900
   24       -7.006034
   25       -7.002960
   26       -7.001096
   27       -6.926633
   28       -6.921718
   29       -3.569789
   30       -2.704625
   31       -2.702985
   32       -2.660967
   33       -2.623662
   34       -2.623536
   35       -2.585567
   36       -1.831231
   37       -1.816512
   38       -1.802914
   39       -1.800397
   40       -1.788274
   41       -1.785653
   42       -1.771689
   43       -1.757107
   44       -1.653267
   45        0.813545
   46        0.826079
   47        0.826701
   48        0.838551
   49        0.869269
   50        0.875899
   51        1.183878
   52        1.193298
   53        1.193501
   54        1.203900
   55        1.506470
   56        1.508620
   57        1.514540
   58        1.516873
   59        2.165262
   60        2.197862
   61        2.208521
   62        2.564492
   63        2.566170
   64        2.839337
   65        6.144698
   66        6.234860
   67        6.236684
   68        6.656866
   69        7.011587
   70        7.011951
   71        7.386235
   72        7.389452
   73        7.389834
   74        7.393133
   75        7.952269
   76        7.954751
   77        9.194482
   78       11.769341
   79       11.772924
   80       12.267496
   81       12.307834
 
 -0.1111111E+00  0.1111111E+00  0.0000000E+00  0.6172840E-02
    1      -14.905165
    2      -14.764299
    3      -14.763908
    4      -14.613628
    5      -10.451360
    6      -10.350822
    7      -10.350415
    8      -10.246076
    9       -9.896584
   10       -9.894473
   11       -9.810212
   12       -9.808265
   13       -9.808221
   14       -9.805632
   15       -9.721479
   16       -9.719007
   17       -8.275645
   18       -8.273622
   19       -8.207462
   20       -8.204418
   21       -8.204378
   22       -8.203713
   23       -8.128727
   24       -8.126976
   25       -7.766091
   26       -7.687978
   27       -7.686000
   28       -7.604008
   29       -3.748093
   30       -2.878115
   31       -2.876470
   32       -1.979139
   33       -1.976979
   34       -1.949784
   35       -1.948561
   36       -1.948551
   37       -1.944990
   38       -1.918965
   39       -1.916220
   40       -1.819909
   41       -1.662459
   42       -1.636795
   43       -1.634243
   44       -1.608648
   45        1.302024
   46        1.342304
   47        1.353463
   48        1.357904
   49        1.370582
   50        1.495746
   51        1.507200
   52        1.511728
   53        1.521436
   54        1.783312
   55        1.785068
   56        1.863794
   57        1.866225
   58        2.246594
   59        2.247605
   60        2.247915
   61        2.251996
   62        2.416933
   63        2.628349
   64        2.630979
   65        6.237174
   66        6.240383
   67        6.435480
   68        6.440660
   69        6.440900
   70        6.442068
   71        6.532323
   72        6.844219
   73        6.848140
   74        6.963181
   75        6.965711
   76        7.423930
   77        9.016311
   78       11.614663
   79       11.618385
   80       11.927382
   81       12.113768
 
 -0.1355253E-19  0.2222222E+00  0.0000000E+00  0.6172840E-02
    1      -14.684347
    2      -14.545304
    3      -14.544918
    4      -14.396706
    5      -11.455400
    6      -11.343080
    7      -11.342753
    8      -11.224985
    9      -10.252770
   10      -10.246440
   11      -10.154700
   12      -10.153407
   13      -10.147732
   14      -10.146460
   15      -10.051094
   16      -10.044323
   17       -7.596598
   18       -7.589802
   19       -7.520706
   20       -7.520235
   21       -7.512842
   22       -7.512332
   23       -7.439468
   24       -7.432399
   25       -6.434577
   26       -6.360803
   27       -6.360579
   28       -6.283975
   29       -3.480539
   30       -2.617806
   31       -2.616170
   32       -2.584981
   33       -2.569956
   34       -2.549161
   35       -2.547095
   36       -2.534126
   37       -2.531952
   38       -2.510120
   39       -2.495228
   40       -1.569913
   41       -1.464440
   42       -1.438410
   43       -1.438319
   44       -1.411957
   45        0.287808
   46        0.526203
   47        0.546935
   48        0.547055
   49        0.568079
   50        0.982075
   51        0.983679
   52        1.067422
   53        1.083268
   54        1.083419
   55        1.099185
   56        1.557907
   57        1.562936
   58        1.769441
   59        2.116771
   60        2.119556
   61        2.124596
   62        2.127474
   63        2.670738
   64        2.683048
   65        6.484657
   66        6.487887
   67        6.769070
   68        6.770668
   69        6.775140
   70        6.776648
   71        7.266547
   72        7.271551
   73        7.661890
   74        8.072729
   75        8.074480
   76        8.642477
   77        9.283888
   78       11.844720
   79       11.848217
   80       12.010018
   81       12.189363
 
  0.1111111E+00  0.2222222E+00  0.0000000E+00  0.6172840E-02
    1      -14.464008
    2      -14.326757
    3      -14.326373
    4      -14.180232
    5      -11.875016
    6      -11.759222
    7      -11.758889
    8      -11.636979
    9      -11.250363
   10      -11.140060
   11      -11.139742
   12      -11.023752
   13       -9.519816
   14       -9.436806
   15       -9.435974
   16       -9.352524
   17       -7.929098
   18       -7.865871
   19       -7.863433
   20       -7.793221
   21       -6.292688
   22       -6.222886
   23       -6.221101
   24       -6.148685
   25       -5.693617
   26       -5.625409
   27       -5.625135
   28       -5.554699
   29       -3.553877
   30       -3.509524
   31       -3.507387
   32       -3.461736
   33       -3.214102
   34       -2.359943
   35       -2.358838
   36       -2.357223
   37       -2.325314
   38       -2.323101
   39       -2.287669
   40       -1.547397
   41       -1.518972
   42       -1.518709
   43       -1.489929
   44       -1.321682
   45       -0.169959
   46       -0.132546
   47       -0.112300
   48       -0.109653
   49       -0.089886
   50        0.537888
   51        0.561432
   52        0.563059
   53        0.630408
   54        0.644161
   55        0.647153
   56        0.661850
   57        1.225323
   58        1.227196
   59        1.410470
   60        2.005635
   61        2.298960
   62        2.757930
   63        2.760627
   64        3.132293
   65        6.124939
   66        6.239941
   67        6.243747
   68        6.595472
   69        7.586804
   70        7.961659
   71        7.964409
   72        8.367619
   73        8.444603
   74        8.763967
   75        8.765752
   76        9.279013
   77        9.552836
   78       12.077122
   79       12.080358
   80       12.388633
   81       12.593548
 
  0.2222222E+00  0.2222222E+00  0.0000000E+00  0.6172840E-02
    1      -14.098220
    2      -13.963943
    3      -13.963563
    4      -13.820819
    5      -12.159777
    6      -12.156887
    7      -12.042803
    8      -12.039884
    9      -12.039856
   10      -12.036965