  32  32   0   0
  0.8119452E+01  0.4932875E-09  0.4932875E-09  0.1233506E-08  0.5000000E-15
  1.000000000000000E-004
  CAR 
 graphite                                
     17.29001588    -16.29962026  301      5.42736352      1.00000000
    -16.300  0.0000E+00  0.0000E+00
    -16.188  0.0000E+00  0.0000E+00
    -16.076  0.0000E+00  0.0000E+00
    -15.964  0.0000E+00  0.0000E+00
    -15.852  0.0000E+00  0.0000E+00
    -15.740  0.0000E+00  0.0000E+00
    -15.628  0.0000E+00  0.0000E+00
    -15.516  0.0000E+00  0.0000E+00
    -15.404  0.0000E+00  0.0000E+00
    -15.292  0.0000E+00  0.0000E+00
    -15.180  0.0000E+00  0.0000E+00
    -15.068  0.0000E+00  0.0000E+00
    -14.956  0.0000E+00  0.0000E+00
    -14.844  0.0000E+00  0.0000E+00
    -14.732  0.0000E+00  0.0000E+00
    -14.620  0.0000E+00  0.0000E+00
    -14.508  0.0000E+00  0.0000E+00
    -14.396  0.0000E+00  0.0000E+00
    -14.284  0.3722E-01  0.1908E-03
    -14.172  0.1294E+01  0.6395E-01
    -14.060  0.1990E+01  0.2653E+00
    -13.948  0.2631E+01  0.5237E+00
    -13.836  0.3400E+01  0.8597E+00
    -13.724  0.4464E+01  0.1295E+01
    -13.612  0.5119E+01  0.1845E+01
    -13.500  0.4816E+01  0.2385E+01
    -13.389  0.4971E+01  0.2933E+01
    -13.277  0.5081E+01  0.3497E+01
    -13.165  0.5112E+01  0.4066E+01
    -13.053  0.6482E+01  0.4720E+01
    -12.941  0.6885E+01  0.5472E+01
    -12.829  0.5963E+01  0.6212E+01
    -12.717  0.6134E+01  0.6866E+01
    -12.605  0.4044E+01  0.7463E+01
    -12.493  0.2058E+01  0.7751E+01
    -12.381  0.1741E+01  0.7957E+01
    -12.269  0.2224E+01  0.8167E+01
    -12.157  0.1096E+02  0.8607E+01
    -12.045  0.5444E+01  0.9412E+01
    -11.933  0.5892E+01  0.1003E+02
    -11.821  0.6665E+01  0.1075E+02
    -11.709  0.5536E+01  0.1145E+02
    -11.597  0.4254E+01  0.1196E+02
    -11.485  0.4486E+01  0.1245E+02
    -11.373  0.4722E+01  0.1296E+02
    -11.261  0.4954E+01  0.1350E+02
    -11.149  0.5121E+01  0.1407E+02
    -11.037  0.5164E+01  0.1464E+02
    -10.925  0.5248E+01  0.1523E+02
    -10.813  0.5422E+01  0.1582E+02
    -10.701  0.6083E+01  0.1647E+02
    -10.589  0.5891E+01  0.1714E+02
    -10.477  0.5787E+01  0.1779E+02
    -10.365  0.5911E+01  0.1845E+02
    -10.253  0.6093E+01  0.1912E+02
    -10.142  0.5890E+01  0.1978E+02
    -10.030  0.5917E+01  0.2044E+02
     -9.918  0.5866E+01  0.2111E+02
     -9.806  0.4942E+01  0.2172E+02
     -9.694  0.3832E+01  0.2221E+02
     -9.582  0.3664E+01  0.2262E+02
     -9.470  0.4315E+01  0.2306E+02
     -9.358  0.4926E+01  0.2357E+02
     -9.246  0.6070E+01  0.2420E+02
     -9.134  0.7329E+01  0.2494E+02
     -9.022  0.9208E+01  0.2586E+02
     -8.910  0.9304E+01  0.2699E+02
     -8.798  0.6847E+01  0.2789E+02
     -8.686  0.5079E+01  0.2854E+02
     -8.574  0.4485E+01  0.2908E+02
     -8.462  0.6180E+01  0.2966E+02
     -8.350  0.4157E+01  0.3021E+02
     -8.238  0.4132E+01  0.3067E+02
     -8.126  0.1954E+01  0.3105E+02
     -8.014  0.1729E+01  0.3125E+02
     -7.902  0.1504E+01  0.3143E+02
     -7.790  0.1279E+01  0.3159E+02
     -7.678  0.1556E+01  0.3174E+02
     -7.566  0.2053E+01  0.3194E+02
     -7.454  0.2568E+01  0.3220E+02
     -7.342  0.3968E+01  0.3253E+02
     -7.230  0.1031E+02  0.3328E+02
     -7.118  0.6094E+01  0.3419E+02
     -7.006  0.5215E+01  0.3477E+02
     -6.895  0.5758E+01  0.3538E+02
     -6.783  0.7066E+01  0.3610E+02
     -6.671  0.8375E+01  0.3696E+02
     -6.559  0.9002E+01  0.3797E+02
     -6.447  0.7702E+01  0.3889E+02
     -6.335  0.6030E+01  0.3968E+02
     -6.223  0.5554E+01  0.4031E+02
     -6.111  0.5465E+01  0.4093E+02
     -5.999  0.5378E+01  0.4154E+02
     -5.887  0.5184E+01  0.4213E+02
     -5.775  0.5007E+01  0.4270E+02
     -5.663  0.4886E+01  0.4325E+02
     -5.551  0.4768E+01  0.4379E+02
     -5.439  0.4650E+01  0.4432E+02
     -5.327  0.4533E+01  0.4484E+02
     -5.215  0.4413E+01  0.4534E+02
     -5.103  0.4295E+01  0.4582E+02
     -4.991  0.4715E+01  0.4632E+02
     -4.879  0.5384E+01  0.4689E+02
     -4.767  0.6025E+01  0.4752E+02
     -4.655  0.6667E+01  0.4824E+02
     -4.543  0.7308E+01  0.4902E+02
     -4.431  0.7950E+01  0.4987E+02
     -4.319  0.8592E+01  0.5080E+02
     -4.207  0.7260E+01  0.5175E+02
     -4.095  0.5466E+01  0.5246E+02
     -3.983  0.5811E+01  0.5303E+02
     -3.871  0.6987E+01  0.5375E+02
     -3.759  0.5320E+01  0.5444E+02
     -3.648  0.3651E+01  0.5494E+02
     -3.536  0.1982E+01  0.5526E+02
     -3.424  0.1159E+01  0.5541E+02
     -3.312  0.3102E+01  0.5563E+02
     -3.200  0.5253E+01  0.5611E+02
     -3.088  0.8017E+01  0.5682E+02
     -2.976  0.1067E+02  0.5787E+02
     -2.864  0.1370E+02  0.5923E+02
     -2.752  0.1226E+02  0.6072E+02
     -2.640  0.7286E+01  0.6185E+02
     -2.528  0.5047E+01  0.6248E+02
     -2.416  0.5880E+01  0.6308E+02
     -2.304  0.7037E+01  0.6380E+02
     -2.192  0.9988E+01  0.6470E+02
     -2.080  0.1749E+02  0.6624E+02
     -1.968  0.1845E+02  0.6845E+02
     -1.856  0.7768E+01  0.6977E+02
     -1.744  0.7291E+01  0.7062E+02
     -1.632  0.7103E+01  0.7141E+02
     -1.520  0.7501E+01  0.7222E+02
     -1.408  0.9150E+01  0.7315E+02
     -1.296  0.1590E+02  0.7454E+02
     -1.184  0.1179E+02  0.7610E+02
     -1.072  0.8176E+01  0.7719E+02
     -0.960  0.2412E+02  0.7883E+02
     -0.848  0.1906E+02  0.8158E+02
     -0.736  0.1764E+02  0.8393E+02
     -0.624  0.1405E+02  0.8565E+02
     -0.512  0.1365E+02  0.8720E+02
     -0.401  0.1127E+02  0.8864E+02
     -0.289  0.8966E+01  0.8975E+02
     -0.177  0.8267E+01  0.9072E+02
     -0.065  0.8068E+01  0.9161E+02
      0.047  0.8906E+01  0.9256E+02
      0.159  0.9350E+01  0.9358E+02
      0.271  0.1111E+02  0.9468E+02
      0.383  0.1323E+02  0.9610E+02
      0.495  0.1641E+02  0.9773E+02
      0.607  0.1384E+02  0.9916E+02
      0.719  0.1124E+02  0.1005E+03
      0.831  0.1041E+02  0.1017E+03
      0.943  0.9627E+01  0.1028E+03
      1.055  0.9131E+01  0.1039E+03
      1.167  0.8782E+01  0.1049E+03
      1.279  0.8512E+01  0.1059E+03
      1.391  0.8729E+01  0.1068E+03
      1.503  0.1013E+02  0.1079E+03
      1.615  0.1066E+02  0.1090E+03
      1.727  0.1057E+02  0.1102E+03
      1.839  0.1023E+02  0.1114E+03
      1.951  0.9665E+01  0.1125E+03
      2.063  0.8994E+01  0.1135E+03
      2.175  0.1050E+02  0.1146E+03
      2.287  0.9516E+01  0.1157E+03
      2.399  0.7650E+01  0.1167E+03
      2.511  0.6190E+01  0.1175E+03
      2.623  0.5456E+01  0.1181E+03
      2.735  0.4968E+01  0.1187E+03
      2.846  0.4028E+01  0.1192E+03
      2.958  0.3747E+01  0.1196E+03
      3.070  0.4638E+01  0.1201E+03
      3.182  0.5568E+01  0.1207E+03
      3.294  0.8601E+01  0.1214E+03
      3.406  0.7310E+01  0.1223E+03
      3.518  0.5728E+01  0.1231E+03
      3.630  0.5966E+01  0.1237E+03
      3.742  0.6157E+01  0.1244E+03
      3.854  0.5698E+01  0.1250E+03
      3.966  0.4310E+01  0.1256E+03
      4.078  0.3523E+01  0.1260E+03
      4.190  0.2980E+01  0.1264E+03
      4.302  0.2493E+01  0.1267E+03
      4.414  0.2093E+01  0.1270E+03
      4.526  0.1792E+01  0.1272E+03
      4.638  0.1551E+01  0.1274E+03
      4.750  0.1409E+01  0.1275E+03
      4.862  0.1196E+01  0.1277E+03
      4.974  0.9380E+00  0.1278E+03
      5.086  0.6869E+00  0.1279E+03
      5.198  0.4425E+00  0.1280E+03
      5.310  0.2046E+00  0.1280E+03
      5.422  0.3889E-03  0.1280E+03
      5.534  0.1035E+00  0.1280E+03
      5.646  0.2426E+00  0.1280E+03
      5.758  0.3893E+00  0.1281E+03
      5.870  0.5437E+00  0.1281E+03
      5.982  0.7083E+00  0.1282E+03
      6.093  0.8842E+00  0.1283E+03
      6.205  0.1071E+01  0.1284E+03
      6.317  0.1274E+01  0.1285E+03
      6.429  0.1510E+01  0.1287E+03
      6.541  0.2185E+01  0.1289E+03
      6.653  0.2671E+01  0.1292E+03
      6.765  0.3181E+01  0.1295E+03
      6.877  0.3725E+01  0.1299E+03
      6.989  0.6456E+01  0.1304E+03
      7.101  0.1654E+02  0.1316E+03
      7.213  0.9860E+01  0.1329E+03
      7.325  0.8664E+01  0.1340E+03
      7.437  0.6484E+01  0.1348E+03
      7.549  0.5369E+01  0.1355E+03
      7.661  0.4672E+01  0.1361E+03
      7.773  0.3831E+01  0.1365E+03
      7.885  0.3751E+01  0.1370E+03
      7.997  0.3676E+01  0.1374E+03
      8.109  0.3827E+01  0.1378E+03
      8.221  0.3794E+01  0.1382E+03
      8.333  0.4183E+01  0.1387E+03
      8.445  0.4488E+01  0.1391E+03
      8.557  0.4642E+01  0.1397E+03
      8.669  0.4819E+01  0.1402E+03
      8.781  0.4734E+01  0.1407E+03
      8.893  0.4576E+01  0.1412E+03
      9.005  0.4473E+01  0.1417E+03
      9.117  0.4421E+01  0.1422E+03
      9.229  0.4312E+01  0.1427E+03
      9.340  0.4203E+01  0.1432E+03
      9.452  0.3806E+01  0.1437E+03
      9.564  0.3559E+01  0.1441E+03
      9.676  0.3413E+01  0.1445E+03
      9.788  0.3352E+01  0.1448E+03
      9.900  0.3271E+01  0.1452E+03
     10.012  0.3179E+01  0.1456E+03
     10.124  0.3115E+01  0.1459E+03
     10.236  0.3070E+01  0.1463E+03
     10.348  0.3043E+01  0.1466E+03
     10.460  0.2966E+01  0.1469E+03
     10.572  0.2874E+01  0.1473E+03
     10.684  0.2816E+01  0.1476E+03
     10.796  0.2968E+01  0.1479E+03
     10.908  0.3604E+01  0.1483E+03
     11.020  0.3988E+01  0.1487E+03
     11.132  0.4167E+01  0.1492E+03
     11.244  0.4243E+01  0.1496E+03
     11.356  0.4173E+01  0.1501E+03
     11.468  0.3995E+01  0.1506E+03
     11.580  0.3810E+01  0.1510E+03
     11.692  0.3795E+01  0.1514E+03
     11.804  0.4038E+01  0.1518E+03
     11.916  0.7307E+01  0.1524E+03
     12.028  0.3621E+01  0.1530E+03
     12.140  0.2912E+01  0.1534E+03
     12.252  0.2300E+01  0.1536E+03
     12.364  0.2122E+01  0.1539E+03
     12.476  0.2204E+01  0.1541E+03
     12.587  0.3712E+01  0.1544E+03
     12.699  0.4956E+01  0.1549E+03
     12.811  0.6041E+01  0.1555E+03
     12.923  0.7685E+01  0.1563E+03
     13.035  0.1000E+02  0.1573E+03
     13.147  0.1137E+02  0.1585E+03
     13.259  0.1325E+02  0.1598E+03
     13.371  0.1433E+02  0.1614E+03
     13.483  0.1205E+02  0.1629E+03
     13.595  0.1144E+02  0.1642E+03
     13.707  0.1138E+02  0.1654E+03
     13.819  0.1202E+02  0.1669E+03
     13.931  0.2530E+01  0.1677E+03
     14.043  0.6359E+00  0.1678E+03
     14.155  0.4113E+00  0.1679E+03
     14.267  0.3024E+00  0.1679E+03
     14.379  0.2144E+00  0.1679E+03
     14.491  0.1475E+00  0.1680E+03
     14.603  0.1016E+00  0.1680E+03
     14.715  0.7110E-01  0.1680E+03
     14.827  0.4611E-01  0.1680E+03
     14.939  0.2652E-01  0.1680E+03
     15.051  0.1231E-01  0.1680E+03
     15.163  0.3485E-02  0.1680E+03
     15.275  0.5082E-04  0.1680E+03
     15.387  0.0000E+00  0.1680E+03
     15.499  0.0000E+00  0.1680E+03
     15.611  0.0000E+00  0.1680E+03
     15.722  0.0000E+00  0.1680E+03
     15.834  0.0000E+00  0.1680E+03
     15.946  0.0000E+00  0.1680E+03
     16.058  0.0000E+00  0.1680E+03
     16.170  0.0000E+00  0.1680E+03
     16.282  0.0000E+00  0.1680E+03
     16.394  0.0000E+00  0.1680E+03
     16.506  0.0000E+00  0.1680E+03
     16.618  0.0000E+00  0.1680E+03
     16.730  0.0000E+00  0.1680E+03
     16.842  0.0000E+00  0.1680E+03
     16.954  0.0000E+00  0.1680E+03
     17.066  0.0000E+00  0.1680E+03
     17.178  0.0000E+00  0.1680E+03
     17.290  0.0000E+00  0.1680E+03
