   32   32    1    1
  0.8119452E+01  0.4932875E-09  0.4932875E-09  0.1233506E-08  0.5000000E-15
  1.000000000000000E-004
  CAR 
 graphite                                
    128     76     84
 
  0.0000000E+00  0.0000000E+00  0.0000000E+00  0.6944444E-02
    1      -14.299620
    2      -14.036883
    3      -14.036022
    4      -13.741129
    5       -8.915263
    6       -8.908112
    7       -8.904590
    8       -8.790787
    9       -8.790282
   10       -8.782632
   11       -8.778974
   12       -8.778941
   13       -8.776527
   14       -8.705753
   15       -8.693231
   16       -8.691186
   17       -7.785731
   18       -7.783357
   19       -7.781900
   20       -7.746199
   21       -7.742217
   22       -7.740217
   23       -7.739696
   24       -7.739689
   25       -7.735660
   26       -7.632223
   27       -7.626813
   28       -7.623990
   29       -3.459126
   30       -2.151220
   31       -2.148733
   32       -0.971953
   33       -0.969202
   34       -0.949760
   35       -0.913844
   36       -0.909549
   37       -0.909530
   38       -0.908661
   39       -0.890881
   40       -0.888233
   41       -0.850535
   42       -0.847992
   43       -0.828555
   44       -0.509227
   45        2.410285
   46        2.412552
   47        2.415904
   48        2.443561
   49        2.462597
   50        2.466792
   51        2.468879
   52        2.484913
   53        2.487715
   54        2.491716
   55        2.511045
   56        3.090888
   57        3.092723
   58        3.094852
   59        3.098490
   60        3.098520
   61        3.100070
   62        3.427211
   63        3.448345
   64        3.449652
   65        7.062610
   66        7.064079
   67        7.070148
   68        7.083513
   69        7.089756
   70        7.093462
   71        7.094778
   72        7.095417
   73        7.102606
   74        7.906218
   75        7.920558
   76        7.923979
   77       10.617411
   78       12.497428
   79       12.501550
   80       12.534779
   81       12.837241
   82       12.842666
   83       12.842870
   84       12.845851
 
  0.1666667E+00 -0.1387779E-16  0.0000000E+00  0.1388889E-01
    1      -14.132876
    2      -13.872368
    3      -13.871515
    4      -13.579451
    5      -10.251552
    6      -10.045511
    7      -10.044795
    8       -9.820886
    9       -9.368848
   10       -9.362086
   11       -9.185024
   12       -9.184284
   13       -9.177414
   14       -9.176728
   15       -8.990571
   16       -8.982590
   17       -7.226652
   18       -7.218870
   19       -7.082252
   20       -7.079399
   21       -7.072698
   22       -7.072256
   23       -6.915285
   24       -6.906845
   25       -6.383016
   26       -6.230670
   27       -6.228886
   28       -6.064419
   29       -3.256763
   30       -1.956328
   31       -1.953850
   32       -1.468464
   33       -1.449252
   34       -1.396722
   35       -1.396271
   36       -1.378463
   37       -1.375878
   38       -1.322263
   39       -1.303048
   40       -0.808118
   41       -0.750217
   42       -0.747163
   43       -0.688372
   44       -0.325160
   45        1.257460
   46        1.793407
   47        1.828393
   48        1.833077
   49        1.868398
   50        2.098234
   51        2.127419
   52        2.133924
   53        2.157328
   54        2.159742
   55        2.165599
   56        2.250984
   57        2.253216
   58        2.983299
   59        2.984768
   60        2.989445
   61        2.990948
   62        3.301573
   63        3.636175
   64        3.651930
   65        7.128765
   66        7.131570
   67        7.364268
   68        7.370824
   69        7.374861
   70        7.377976
   71        7.666277
   72        8.184767
   73        8.193469
   74        8.194497
   75        8.199741
   76        9.123068
   77       10.807404
   78       12.595740
   79       12.929074
   80       12.930985
   81       13.235403
   82       13.270855
   83       13.275211
   84       13.578146
 
  0.3333333E+00 -0.2775558E-16  0.0000000E+00  0.1388889E-01
    1      -13.634490
    2      -13.380592
    3      -13.379764
    4      -13.096160
    5      -11.672764
    6      -11.445220
    7      -11.444489
    8      -11.193908
    9       -9.798823
   10       -9.795182
   11       -9.600373
   12       -9.599111
   13       -9.596014
   14       -9.595169
   15       -9.383863
   16       -9.379939
   17       -6.050459
   18       -6.039675
   19       -5.911818
   20       -5.908954
   21       -5.899891
   22       -5.899258
   23       -5.760666
   24       -5.750192
   25       -4.254333
   26       -4.125642
   27       -4.123667
   28       -3.987424
   29       -2.653632
   30       -2.635291
   31       -2.619298
   32       -2.545724
   33       -2.545383
   34       -2.530651
   35       -2.527969
   36       -2.449443
   37       -2.433186
   38       -1.376982
   39       -1.374518
   40       -0.332948
   41       -0.324152
   42       -0.277534
   43       -0.274140
   44       -0.217707
   45        0.121209
   46        0.186930
   47        0.190625
   48        0.219644
   49        0.257084
   50        0.832274
   51        0.834463
   52        1.292902
   53        1.335481
   54        1.340194
   55        1.383347
   56        1.819378
   57        1.821730
   58        2.227419
   59        2.794560
   60        2.795311
   61        2.798129
   62        2.800815
   63        3.834785
   64        3.842410
   65        7.476877
   66        7.480855
   67        7.941745
   68        7.947190
   69        7.950351
   70        7.952361
   71        8.602096
   72        8.605653
   73        9.736089
   74       10.329371
   75       10.333073
   76       11.130178
   77       11.379689
   78       12.854675
   79       13.176974
   80       13.179088
   81       13.359170
   82       13.666453
   83       13.688099
   84       13.692946
 
  0.5000000E+00  0.0000000E+00  0.0000000E+00  0.6944444E-02
    1      -12.811888
    2      -12.808924
    3      -12.570199
    4      -12.566957
    5      -12.566933
    6      -12.564107
    7      -12.298383
    8      -12.295332
    9       -9.949152
   10       -9.947299
   11       -9.747707
   12       -9.745549
   13       -9.745437
   14       -9.743840
   15       -9.526560
   16       -9.524656
   17       -5.110734
   18       -5.108284
   19       -5.031501
   20       -5.027074
   21       -5.026303
   22       -5.026288
   23       -4.956117
   24       -4.954120
   25       -3.492882
   26       -3.491701
   27       -3.449281
   28       -3.449273
   29       -3.448019
   30       -3.445018
   31       -3.380280
   32       -3.378506
   33       -2.016717
   34       -2.013661
   35       -1.918320
   36       -1.917628
   37       -1.917603
   38       -1.911723
   39       -1.814007
   40       -1.810460
   41       -1.665150
   42       -1.662740
   43       -0.432536
   44       -0.428774
   45       -0.428416
   46       -0.425674
   47        0.401496
   48        0.407663
   49        0.450805
   50        0.459630
   51        0.459650
   52        0.460896
   53        0.509292
   54        0.513714
   55        1.095861
   56        1.098639
   57        1.688772
   58        1.690832
   59        2.710186
   60        2.711602
   61        2.712061
   62        2.715880
   63        3.880945
   64        3.883498
   65        7.756054
   66        7.759066
   67        8.247755
   68        8.253307
   69        8.253375
   70        8.253567
   71        8.743439
   72        8.746140
   73       12.199060
   74       12.202211
   75       12.313427
   76       12.314652
   77       12.595676
   78       12.597536
   79       12.599403
   80       12.606250
   81       13.227747
   82       13.231595
   83       13.300956
   84       13.304012
 
 -0.2710505E-19  0.1666667E+00  0.0000000E+00  0.1388889E-01
    1      -14.132880
    2      -13.872373
    3      -13.871518
    4      -13.579455
    5      -10.251560
    6      -10.045514
    7      -10.044795
    8       -9.820881
    9       -9.368943
   10       -9.362143
   11       -9.185310
   12       -9.184319
   13       -9.177412
   14       -9.176756
   15       -8.990611
   16       -8.982764
   17       -7.226812
   18       -7.217565
   19       -7.082706
   20       -7.079404
   21       -7.072471
   22       -7.069714
   23       -6.915431
   24       -6.905517
   25       -6.383972
   26       -6.231002
   27       -6.230473
   28       -6.065389
   29       -3.256752
   30       -1.956313
   31       -1.953838
   32       -1.469798
   33       -1.449305
   34       -1.399218
   35       -1.396297
   36       -1.378463
   37       -1.376110
   38       -1.323538
   39       -1.303166
   40       -0.806622
   41       -0.747421
   42       -0.747125
   43       -0.687020
   44       -0.325141
   45        1.258110
   46        1.790997
   47        1.827538
   48        1.828398
   49        1.865104
   50        2.101905
   51        2.132705
   52        2.133923
   53        2.156838
   54        2.158970
   55        2.168274
   56        2.252165
   57        2.253655
   58        2.983171
   59        2.984284
   60        2.988547
   61        2.989887
   62        3.302621
   63        3.636167
   64        3.650769
   65        7.130784
   66        7.131494
   67        7.364842
   68        7.370727
   69        7.375703
   70        7.381137
   71        7.664413
   72        8.184711
   73        8.193482
   74        8.194767
   75        8.198505
   76        9.121510
   77       10.807424
   78       12.596310
   79       12.930057
   80       12.931110
   81       13.234881
   82       13.270014
   83       13.276470
   84       13.577445
 
  0.1666667E+00  0.1666667E+00  0.0000000E+00  0.1388889E-01
    1      -13.800084
    2      -13.543979
    3      -13.543144
    4      -13.256736
    5      -10.878837
    6      -10.875701
    7      -10.663968
    8      -10.660537
    9      -10.660504
   10      -10.657566
   11      -10.425214
   12      -10.422001
   13       -8.486720
   14       -8.367393
   15       -8.365971
   16       -8.284644
   17       -7.379154
   18       -7.345458
   19       -7.341790
   20       -7.243856
   21       -5.267452
   22       -5.263868
   23       -5.129276
   24       -5.126173
   25       -5.126152
   26       -5.121901
   27       -4.979100
   28       -4.975315
   29       -2.853635
   30       -2.808665
   31       -2.715153
   32       -2.713060
   33       -2.613849
   34       -1.568817
   35       -1.566353
   36       -1.140040
   37       -1.136822
   38       -1.072939
   39       -1.068465
   40       -1.068447
   41       -1.066763
   42       -0.999140
   43       -0.996160
   44        0.039731
   45        0.591634
   46        0.593857
   47        0.758064
   48        0.793011
   49        0.797699
   50        0.828115
   51        1.427350
   52        1.449273
   53        1.454548
   54        1.481583
   55        1.677733
   56        1.681114
   57        1.681275
   58        1.683776
   59        2.943814
   60        2.946379
   61        3.011066
   62        3.686613
   63        3.689231
   64        3.998109
   65        6.873270
   66        6.878920
   67        7.051381
   68        7.327600
   69        8.555660
   70        8.558209
   71        9.143077
   72        9.145345
   73        9.146158
   74        9.150451
   75        9.944103
   76        9.946976
   77       11.191496
   78       13.418866
   79       13.423444
   80       13.743544
   81       13.749047
   82       13.749093
   83       13.752769
   84       13.994995
 
  0.3333333E+00  0.1666667E+00  0.0000000E+00  0.1388889E-01
    1      -13.138612
    2      -12.891284
    3      -12.890481
    4      -12.615227
    5      -12.159074
    6      -11.924890
    7      -11.924131
    8      -11.665350
    9      -11.196672
   10      -10.975833
   11      -10.975064
   12      -10.732714
   13       -8.492781
   14       -8.322647
   15       -8.322039
   16       -8.144287
   17       -6.569755
   18       -6.456069
   19       -6.452957
   20       -6.330785
   21       -4.238978
   22       -4.153064
   23       -4.150823
   24       -4.089534
   25       -4.048291
   26       -3.986790
   27       -3.984878
   28       -3.880749
   29       -3.106640
   30       -2.998670
   31       -2.996750
   32       -2.883781
   33       -2.056401
   34       -2.036748
   35       -1.968428
   36       -1.966774
   37       -1.889131
   38       -0.992420
   39       -0.930707
   40       -0.927056
   41       -0.888814
   42       -0.849972
   43       -0.796358
   44       -0.794739
   45       -0.497028
   46       -0.436493
   47       -0.433434
   48       -0.370270
   49        0.246190
   50        0.305404
   51        0.307586
   52        0.408157
   53        0.451940
   54        0.456876
   55        0.504289
   56        0.753330
   57        1.374400
   58        1.376374
   59        1.768821
   60        2.728641
   61        3.270389
   62        4.093134
   63        4.095428
   64        4.762531
   65        6.428441
   66        6.734175
   67        6.738215
   68        7.295499
   69        9.370068
   70        9.857002
   71        9.859555
   72       10.374963
   73       10.854596
   74       11.347490
   75       11.350165
   76       11.953397
   77       11.966080
   78       13.073540
   79       13.163941
   80       13.429941
   81       13.434354
   82       13.804953
   83       13.914335
   84       14.034923
 
  0.5000000E+00  0.1666667E+00  0.0000000E+00  0.1388889E-01
    1      -13.139847
    2      -12.892521
    3      -12.891705
    4      -12.616453
    5      -12.157344
    6      -11.923154
    7      -11.922409
    8      -11.663621
    9      -11.197910
   10      -10.977086
   11      -10.976302
   12      -10.733985
   13       -8.490496
   14       -8.319887
   15       -8.319345
   16       -8.140887
   17       -6.563546
   18       -6.448729
   19       -6.447467
   20       -6.324613
   21       -4.248186
   22       -4.162238
   23       -4.161584
   24       -4.100596
   25       -4.058787
   26       -3.997833
   27       -3.994545
   28       -3.890242
   29       -3.109606
   30       -3.002051
   31       -2.999379
   32       -2.886826
   33       -2.057551
   34       -2.024472
   35       -1.956269
   36       -1.952940
   37       -1.875612
   38       -0.992404
   39       -0.929865
   40       -0.928130
   41       -0.887278
   42       -0.850270
   43       -0.797481
   44       -0.795928
   45       -0.494366
   46       -0.434198
   47       -0.430261
   48       -0.367521
   49        0.245305
   50        0.306830
   51        0.309103
   52        0.408651
   53        0.453026
   54        0.455613
   55        0.503803
   56        0.752222
   57        1.373216
   58        1.375270
   59        1.770191
   60        2.726938
   61        3.269408
   62        4.095925
   63        4.097017
   64        4.774274
   65        6.423853
   66        6.736695
   67        6.739001
   68        7.295055
   69        9.364949
   70        9.852829
   71        9.856113
   72       10.374612
   73       10.857021
   74       11.346898
   75       11.349956
   76       11.950902
   77       11.963794
   78       13.075379
   79       13.158859
   80       13.430664
   81       13.434666
   82       13.800009
   83       13.917239
   84       14.029531
 
 -0.3333333E+00  0.1666667E+00  0.0000000E+00  0.1388889E-01
    1      -13.800824
    2      -13.544720
    3      -13.543876
    4      -13.257467
    5      -10.880979
    6      -10.875017
    7      -10.664805
    8      -10.664042
    9      -10.658768
   10      -10.658069
   11      -10.427452
   12      -10.421426
   13       -8.478692
   14       -8.356743
   15       -8.356316
   16       -8.271866
   17       -7.377709
   18       -7.340719
   19       -7.340388
   20       -7.239466
   21       -5.278104
   22       -5.268436
   23       -5.139465
   24       -5.137019
   25       -5.129728
   26       -5.127775
   27       -4.989431
   28       -4.980187
   29       -2.854352
   30       -2.824248
   31       -2.729977
   32       -2.729579
   33       -2.629554
   34       -1.569522
   35       -1.567068
   36       -1.136891
   37       -1.118404
   38       -1.069308
   39       -1.066068
   40       -1.050574
   41       -1.047887
   42       -0.996250
   43       -0.977810
   44        0.039030
   45        0.590351
   46        0.594309
   47        0.747562
   48        0.785114
   49        0.785447
   50        0.818389
   51        1.438300
   52        1.461841
   53        1.461996
   54        1.491114
   55        1.676664
   56        1.678793
   57        1.681448
   58        1.683612
   59        2.940161
   60        2.945941
   61        3.007977
   62        3.693127
   63        3.693564
   64        4.019147
   65        6.878977
   66        6.882212
   67        7.043236
   68        7.333941
   69        8.548392
   70        8.558689
   71        9.134843
   72        9.139363
   73        9.143954
   74        9.147930
   75        9.940183
   76        9.943008
   77       11.190443
   78       13.417558
   79       13.453782
   80       13.744104
   81       13.746510
   82       13.780773
   83       13.782524
   84       14.000158
 
 -0.1666667E+00  0.1666667E+00  0.0000000E+00  0.1388889E-01
    1      -14.133126
    2      -13.872619
    3      -13.871761
    4      -13.579696
    5      -10.257771
    6      -10.051857
    7      -10.051162
    8       -9.827407
    9       -9.361031
   10       -9.358827
   11       -9.177638
   12       -9.174954
   13       -9.174875
   14       -9.173133
   15       -8.981745
   16       -8.979535
   17       -7.221908
   18       -7.220005
   19       -7.076356
   20       -7.075301
   21       -7.075235
   22       -7.072365
   23       -6.910283
   24       -6.908286
   25       -6.393010
   26       -6.240854
   27       -6.238630
   28       -6.074280
   29       -3.256992
   30       -1.956552
   31       -1.954079
   32       -1.469593
   33       -1.467024
   34       -1.399553
   35       -1.395462
   36       -1.395439
   37       -1.394587
   38       -1.323281
   39       -1.320885
   40       -0.786846
   41       -0.728790
   42       -0.726250
   43       -0.667235
   44       -0.325379
   45        1.254649
   46        1.775087
   47        1.810249
   48        1.815827
   49        1.850972
   50        2.116862
   51        2.146614
   52        2.148767
   53        2.158861
   54        2.162760
   55        2.183051
   56        2.246612
   57        2.248796
   58        2.986646
   59        2.990711
   60        2.991001
   61        2.991983
   62        3.292882
   63        3.650202
   64        3.652118
   65        7.130209
   66        7.132461
   67        7.372468
   68        7.374875
   69        7.375415
   70        7.381562
   71        7.659995
   72        8.183139
   73        8.188614
   74        8.191452
   75        8.194868
   76        9.114386
   77       10.807052
   78       12.630469
   79       12.963888
   80       12.965130
   81       13.232211
   82       13.236108
   83       13.309663
   84       13.577361
 
 -0.2710505E-19  0.3333333E+00  0.0000000E+00  0.1388889E-01
    1      -13.634504
    2      -13.380611
    3      -13.379774
    4      -13.096175
    5      -11.672821
    6      -11.445295
    7      -11.444529
    8      -11.193967
    9       -9.799136
   10       -9.794864
   11       -9.601186
   12       -9.599135
   13       -9.595939
   14       -9.594352
   15       -9.384129
   16       -9.379630
   17       -6.050480
   18       -6.038394
   19       -5.912002
   20       -5.908956
   21       -5.899358
   22       -5.896869
   23       -5.760595
   24       -5.748777
   25       -4.255390
   26       -4.125985
   27       -4.125500
   28       -3.988548
   29       -2.653586
   30       -2.636718
   31       -2.619607
   32       -2.548235
   33       -2.545636
   34       -2.530653
   35       -2.528567
   36       -2.450793
   37       -2.433479
   38       -1.376917
   39       -1.374466
   40       -0.331293
   41       -0.323873
   42       -0.274465
   43       -0.274113
   44       -0.216248
   45        0.119361
   46        0.186594
   47        0.186959
   48        0.219722
   49        0.254898
   50        0.832689
   51        0.834727
   52        1.295452
   53        1.339932
   54        1.340213
   55        1.385357
   56        1.818494
   57        1.821654
   58        2.227912
   59        2.793031
   60        2.795166
   61        2.798240
   62        2.800129
   63        3.834416
   64        3.841391
   65        7.477381
   66        7.482802
   67        7.942490
   68        7.947135
   69        7.951259
   70        7.955320
   71        8.602133
   72        8.607700
   73        9.734743
   74       10.328473
   75       10.331772
   76       11.129169
   77       11.379736
   78       12.855421
   79       13.178445
   80       13.179185
   81       13.359867
   82       13.668729
   83       13.690544
   84       13.693745
 
  0.1666667E+00  0.3333333E+00  0.0000000E+00  0.1388889E-01
    1      -13.138621
    2      -12.891293
    3      -12.890486
    4      -12.615231
    5      -12.159139
    6      -11.924977
    7      -11.924172
    8      -11.665414
    9      -11.196610
   10      -10.975748
   11      -10.975025
   12      -10.732651
   13       -8.492830
   14       -8.322681
   15       -8.322125
   16       -8.144360
   17       -6.569334
   18       -6.455178
   19       -6.452953
   20       -6.330298
   21       -4.239428
   22       -4.153071
   23       -4.151697
   24       -4.088020
   25       -4.048708
   26       -3.984916
   27       -3.983660
   28       -3.879195
   29       -3.108048
   30       -2.999712
   31       -2.998622
   32       -2.885291
   33       -2.056368
   34       -2.038553
   35       -1.970428
   36       -1.968410
   37       -1.890939
   38       -0.993473
   39       -0.930755
   40       -0.929085
   41       -0.888584
   42       -0.851149
   43       -0.796404
   44       -0.794807
   45       -0.495059
   46       -0.433454
   47       -0.432692
   48       -0.368451
   49        0.245866
   50        0.305697
   51        0.307815
   52        0.409546
   53        0.454377
   54        0.456877
   55        0.505414
   56        0.753390
   57        1.374005
   58        1.375988
   59        1.769186
   60        2.728095
   61        3.269913
   62        4.093093
   63        4.094460
   64        4.762231
   65        6.428857
   66        6.735594
   67        6.738279
   68        7.296292
   69        9.371573
   70        9.858807
   71        9.860235
   72       10.375947
   73       10.853282
   74       11.346258
   75       11.349292
   76       11.952901
   77       11.965652
   78       13.073747
   79       13.163521
   80       13.429917
   81       13.434097
   82       13.806348
   83       13.914148
   84       14.037557
 
  0.3333333E+00  0.3333333E+00  0.0000000E+00  0.1388889E-01
    1      -12.324732
    2      -12.321922
    3      -12.319259
    4      -12.090153
    5      -12.086075
    6      -12.086023
    7      -12.084964
    8      -12.083152
    9      -12.080777
   10      -11.826039
   11      -11.823221
   12      -11.820494
   13       -7.287197
   14       -7.108457
   15       -7.107957
   16       -7.099737
   17       -7.096521
   18       -7.089017
   19       -7.087863
   20       -6.911649
   21       -5.055592
   22       -5.055367
   23       -5.038557
   24       -5.036365
   25       -2.322822
   26       -2.319058
   27       -2.315207
   28       -2.266025
   29       -2.259803
   30       -2.259657
   31       -2.259603
   32       -2.258886
   33       -2.253420
   34       -2.208033
   35       -2.205543
   36       -2.202116
   37       -1.081283
   38       -1.078894
   39       -1.076707
   40       -0.945227
   41       -0.940133
   42       -0.936823
   43       -0.912879
   44       -0.906781
   45       -0.905365
   46       -0.904415
   47       -0.904396
   48       -0.897413
   49       -0.861971
   50       -0.857326
   51       -0.852386
   52        0.123434
   53        0.127528
   54        0.127845
   55        0.129141
   56        0.130343
   57        0.133622
   58        1.609650
   59        1.612238
   60        1.614475
   61        4.442459
   62        5.376257
   63        5.390443
   64        5.426685
   65        5.427382
   66        5.467953
   67        5.468318
   68        6.603493
   69       11.401834
   70       11.404715
   71       11.414165
   72       11.786460
   73       11.791524
   74       11.791987
   75       11.792413
   76       11.793205
   77       11.796718
   78       12.203146
   79       12.208576
   80       12.211894
   81       12.923778
   82       12.925021
   83       12.928572
   84       15.290016
 
  0.5000000E+00  0.3333333E+00  0.0000000E+00  0.1388889E-01
    1      -13.140592
    2      -12.893273
    3      -12.892441
    4      -12.617196
    5      -12.161075
    6      -11.926919
    7      -11.926107
    8      -11.667354
    9      -11.192697
   10      -10.971825
   11      -10.971119
   12      -10.728734
   13       -8.483320
   14       -8.312899
   15       -8.312226
   16       -8.134097
   17       -6.569682
   18       -6.455603
   19       -6.454833
   20       -6.332599
   21       -4.248058
   22       -4.162457
   23       -4.161261
   24       -4.092906
   25       -4.058809
   26       -3.990827
   27       -3.987956
   28       -3.884515
   29       -3.121999
   30       -3.014372
   31       -3.011153
   32       -2.898484
   33       -2.058226
   34       -2.036285
   35       -1.969009
   36       -1.965155
   37       -1.888595
   38       -1.005984
   39       -0.942372
   40       -0.939656
   41       -0.890431
   42       -0.862092
   43       -0.798966
   44       -0.797303
   45       -0.477280
   46       -0.416811
   47       -0.413461
   48       -0.350373
   49        0.249212
   50        0.303811
   51        0.305967
   52        0.422673
   53        0.467831
   54        0.470215
   55        0.519024
   56        0.751546
   57        1.377110
   58        1.379265
   59        1.767009
   60        2.731011
   61        3.272871
   62        4.098650
   63        4.100137
   64        4.773319
   65        6.434755
   66        6.735644
   67        6.737528
   68        7.283928
   69        9.377546
   70        9.857832
   71        9.860361
   72       10.368047
   73       10.844170
   74       11.339156
   75       11.343017
   76       11.950636
   77       11.963296
   78       13.072388
   79       13.152680
   80       13.428786
   81       13.432831
   82       13.835603
   83       13.916897
   84       14.065972
 
 -0.3333333E+00  0.3333333E+00  0.0000000E+00  0.1388889E-01
    1      -13.635488
    2      -13.381598
    3      -13.380749
    4      -13.097151
    5      -11.676735
    6      -11.449236
    7      -11.448439
    8      -11.197908
    9       -9.791614
   10       -9.789711
   11       -9.593393
   12       -9.591200
   13       -9.591101
   14       -9.589439
   15       -9.376438
   16       -9.374486
   17       -6.046087
   18       -6.044131
   19       -5.906795
   20       -5.905855
   21       -5.905785
   22       -5.902668
   23       -5.757078
   24       -5.754980
   25       -4.267462
   26       -4.138873
   27       -4.136377
   28       -4.000183
   29       -2.654544
   30       -2.634971
   31       -2.632859
   32       -2.547194
   33       -2.543260
   34       -2.543182
   35       -2.542962
   36       -2.449135
   37       -2.447093
   38       -1.377867
   39       -1.375423
   40       -0.327148
   41       -0.312219
   42       -0.256599
   43       -0.253815
   44       -0.197145
   45        0.103675
   46        0.169428
   47        0.173682
   48        0.218752
   49        0.240139
   50        0.829075
   51        0.831204
   52        1.312023
   53        1.354684
   54        1.358810
   55        1.402184
   56        1.822971
   57        1.825279
   58        2.223561
   59        2.797491
   60        2.801631
   61        2.802024
   62        2.803156
   63        3.841923
   64        3.844336
   65        7.484347
   66        7.487075
   67        7.947226
   68        7.948867
   69        7.949187
   70        7.954459
   71        8.597003
   72        8.599827
   73        9.724594
   74       10.319394
   75       10.323635
   76       11.124959
   77       11.378407
   78       12.885585
   79       13.209482
   80       13.210928
   81       13.382419
   82       13.689184
   83       13.706772
   84       13.711757
 
 -0.1666667E+00  0.3333333E+00  0.0000000E+00  0.1388889E-01
    1      -13.800835
    2      -13.544735
    3      -13.543884
    4      -13.257479
    5      -10.881368
    6      -10.874685
    7      -10.665958
    8      -10.664180
    9      -10.658407
   10      -10.657133
   11      -10.427799
   12      -10.421021
   13       -8.479518
   14       -8.358315
   15       -8.356373
   16       -8.272528
   17       -7.376267
   18       -7.340439
   19       -7.337094
   20       -7.237631
   21       -5.278389
   22       -5.269084
   23       -5.140363
   24       -5.137022
   25       -5.129735
   26       -5.128525
   27       -4.989612
   28       -4.980747
   29       -2.854319
   30       -2.825450
   31       -2.732262
   32       -2.729646
   33       -2.630710
   34       -1.569478
   35       -1.567031
   36       -1.135658
   37       -1.118551
   38       -1.067039
   39       -1.066060
   40       -1.050575
   41       -1.047853
   42       -0.995010
   43       -0.977797
   44        0.039088
   45        0.589883
   46        0.594999
   47        0.744680
   48        0.780290
   49        0.785446