  12  12   0   0
  0.1085377E+02  0.4870000E-09  0.6460000E-09  0.4140000E-09  0.5000000E-15
  1.000000000000000E-004
  CAR 
 ethylene                                
      9.68646738    -17.80914947  301     -3.30521158      1.00000000
    -17.809  0.0000E+00  0.0000E+00
    -17.717  0.0000E+00  0.0000E+00
    -17.626  0.0000E+00  0.0000E+00
    -17.534  0.0000E+00  0.0000E+00
    -17.443  0.0000E+00  0.0000E+00
    -17.351  0.0000E+00  0.0000E+00
    -17.259  0.0000E+00  0.0000E+00
    -17.168  0.0000E+00  0.0000E+00
    -17.076  0.0000E+00  0.0000E+00
    -16.984  0.0000E+00  0.0000E+00
    -16.893  0.0000E+00  0.0000E+00
    -16.801  0.0000E+00  0.0000E+00
    -16.709  0.0000E+00  0.0000E+00
    -16.618  0.0000E+00  0.0000E+00
    -16.526  0.0000E+00  0.0000E+00
    -16.434  0.0000E+00  0.0000E+00
    -16.343  0.0000E+00  0.0000E+00
    -16.251  0.0000E+00  0.0000E+00
    -16.159  0.0000E+00  0.0000E+00
    -16.068  0.0000E+00  0.0000E+00
    -15.976  0.0000E+00  0.0000E+00
    -15.884  0.0000E+00  0.0000E+00
    -15.793  0.6489E-02  0.4702E-04
    -15.701  0.3398E-01  0.1888E-02
    -15.610  0.1108E+00  0.7918E-02
    -15.518  0.0000E+00  0.2000E-01
    -15.426  0.0000E+00  0.2000E-01
    -15.335  0.0000E+00  0.2000E-01
    -15.243  0.0000E+00  0.2000E-01
    -15.151  0.0000E+00  0.2000E-01
    -15.060  0.0000E+00  0.2000E-01
    -14.968  0.0000E+00  0.2000E-01
    -14.876  0.0000E+00  0.2000E-01
    -14.785  0.0000E+00  0.2000E-01
    -14.693  0.0000E+00  0.2000E-01
    -14.601  0.0000E+00  0.2000E-01
    -14.510  0.0000E+00  0.2000E-01
    -14.418  0.0000E+00  0.2000E-01
    -14.326  0.0000E+00  0.2000E-01
    -14.235  0.0000E+00  0.2000E-01
    -14.143  0.0000E+00  0.2000E-01
    -14.051  0.0000E+00  0.2000E-01
    -13.960  0.0000E+00  0.2000E-01
    -13.868  0.0000E+00  0.2000E-01
    -13.776  0.0000E+00  0.2000E-01
    -13.685  0.0000E+00  0.2000E-01
    -13.593  0.0000E+00  0.2000E-01
    -13.502  0.0000E+00  0.2000E-01
    -13.410  0.0000E+00  0.2000E-01
    -13.318  0.0000E+00  0.2000E-01
    -13.227  0.0000E+00  0.2000E-01
    -13.135  0.0000E+00  0.2000E-01
    -13.043  0.0000E+00  0.2000E-01
    -12.952  0.0000E+00  0.2000E-01
    -12.860  0.0000E+00  0.2000E-01
    -12.768  0.0000E+00  0.2000E-01
    -12.677  0.0000E+00  0.2000E-01
    -12.585  0.0000E+00  0.2000E-01
    -12.493  0.0000E+00  0.2000E-01
    -12.402  0.0000E+00  0.2000E-01
    -12.310  0.0000E+00  0.2000E-01
    -12.218  0.0000E+00  0.2000E-01
    -12.127  0.0000E+00  0.2000E-01
    -12.035  0.0000E+00  0.2000E-01
    -11.943  0.0000E+00  0.2000E-01
    -11.852  0.0000E+00  0.2000E-01
    -11.760  0.0000E+00  0.2000E-01
    -11.668  0.0000E+00  0.2000E-01
    -11.577  0.0000E+00  0.2000E-01
    -11.485  0.0000E+00  0.2000E-01
    -11.394  0.0000E+00  0.2000E-01
    -11.302  0.0000E+00  0.2000E-01
    -11.210  0.0000E+00  0.2000E-01
    -11.119  0.6345E-01  0.2410E-01
    -11.027  0.8275E-01  0.3050E-01
    -10.935  0.6508E-01  0.3870E-01
    -10.844  0.0000E+00  0.4000E-01
    -10.752  0.0000E+00  0.4000E-01
    -10.660  0.0000E+00  0.4000E-01
    -10.569  0.0000E+00  0.4000E-01
    -10.477  0.0000E+00  0.4000E-01
    -10.385  0.0000E+00  0.4000E-01
    -10.294  0.0000E+00  0.4000E-01
    -10.202  0.0000E+00  0.4000E-01
    -10.110  0.0000E+00  0.4000E-01
    -10.019  0.0000E+00  0.4000E-01
     -9.927  0.0000E+00  0.4000E-01
     -9.835  0.0000E+00  0.4000E-01
     -9.744  0.0000E+00  0.4000E-01
     -9.652  0.0000E+00  0.4000E-01
     -9.560  0.0000E+00  0.4000E-01
     -9.469  0.0000E+00  0.4000E-01
     -9.377  0.0000E+00  0.4000E-01
     -9.286  0.0000E+00  0.4000E-01
     -9.194  0.0000E+00  0.4000E-01
     -9.102  0.0000E+00  0.4000E-01
     -9.011  0.0000E+00  0.4000E-01
     -8.919  0.0000E+00  0.4000E-01
     -8.827  0.0000E+00  0.4000E-01
     -8.736  0.0000E+00  0.4000E-01
     -8.644  0.0000E+00  0.4000E-01
     -8.552  0.0000E+00  0.4000E-01
     -8.461  0.2671E-01  0.4040E-01
     -8.369  0.5133E-01  0.4464E-01
     -8.277  0.3490E-01  0.4847E-01
     -8.186  0.3350E-01  0.5161E-01
     -8.094  0.4739E-01  0.5501E-01
     -8.002  0.3232E-01  0.5947E-01
     -7.911  0.0000E+00  0.6000E-01
     -7.819  0.0000E+00  0.6000E-01
     -7.727  0.0000E+00  0.6000E-01
     -7.636  0.0000E+00  0.6000E-01
     -7.544  0.0000E+00  0.6000E-01
     -7.452  0.0000E+00  0.6000E-01
     -7.361  0.0000E+00  0.6000E-01
     -7.269  0.6446E-02  0.6023E-01
     -7.178  0.1534E-01  0.6120E-01
     -7.086  0.3284E-01  0.6328E-01
     -6.994  0.9398E-01  0.6887E-01
     -6.903  0.4391E-01  0.7635E-01
     -6.811  0.2259E-01  0.7930E-01
     -6.719  0.0000E+00  0.8000E-01
     -6.628  0.0000E+00  0.8000E-01
     -6.536  0.0000E+00  0.8000E-01
     -6.444  0.0000E+00  0.8000E-01
     -6.353  0.0000E+00  0.8000E-01
     -6.261  0.0000E+00  0.8000E-01
     -6.169  0.0000E+00  0.8000E-01
     -6.078  0.0000E+00  0.8000E-01
     -5.986  0.0000E+00  0.8000E-01
     -5.894  0.0000E+00  0.8000E-01
     -5.803  0.0000E+00  0.8000E-01
     -5.711  0.3893E-02  0.8002E-01
     -5.619  0.1171E-01  0.8087E-01
     -5.528  0.1652E-01  0.8216E-01
     -5.436  0.2409E-01  0.8399E-01
     -5.344  0.4474E-01  0.8696E-01
     -5.253  0.5545E-01  0.9223E-01
     -5.161  0.3642E-01  0.9641E-01
     -5.070  0.1619E-01  0.9860E-01
     -4.978  0.7858E-02  0.9967E-01
     -4.886  0.0000E+00  0.1000E+00
     -4.795  0.0000E+00  0.1000E+00
     -4.703  0.0000E+00  0.1000E+00
     -4.611  0.0000E+00  0.1000E+00
     -4.520  0.0000E+00  0.1000E+00
     -4.428  0.0000E+00  0.1000E+00
     -4.336  0.0000E+00  0.1000E+00
     -4.245  0.0000E+00  0.1000E+00
     -4.153  0.0000E+00  0.1000E+00
     -4.061  0.0000E+00  0.1000E+00
     -3.970  0.1222E-03  0.1000E+00
     -3.878  0.7102E-02  0.1004E+00
     -3.786  0.1599E-01  0.1014E+00
     -3.695  0.3797E-01  0.1036E+00
     -3.603  0.9109E-01  0.1099E+00
     -3.511  0.3740E-01  0.1165E+00
     -3.420  0.2019E-01  0.1190E+00
     -3.328  0.0000E+00  0.1200E+00
     -3.236  0.0000E+00  0.1200E+00
     -3.145  0.0000E+00  0.1200E+00
     -3.053  0.0000E+00  0.1200E+00
     -2.962  0.0000E+00  0.1200E+00
     -2.870  0.0000E+00  0.1200E+00
     -2.778  0.0000E+00  0.1200E+00
     -2.687  0.0000E+00  0.1200E+00
     -2.595  0.0000E+00  0.1200E+00
     -2.503  0.0000E+00  0.1200E+00
     -2.412  0.0000E+00  0.1200E+00
     -2.320  0.0000E+00  0.1200E+00
     -2.228  0.0000E+00  0.1200E+00
     -2.137  0.0000E+00  0.1200E+00
     -2.045  0.0000E+00  0.1200E+00
     -1.953  0.0000E+00  0.1200E+00
     -1.862  0.0000E+00  0.1200E+00
     -1.770  0.0000E+00  0.1200E+00
     -1.678  0.0000E+00  0.1200E+00
     -1.587  0.0000E+00  0.1200E+00
     -1.495  0.0000E+00  0.1200E+00
     -1.403  0.0000E+00  0.1200E+00
     -1.312  0.0000E+00  0.1200E+00
     -1.220  0.0000E+00  0.1200E+00
     -1.128  0.0000E+00  0.1200E+00
     -1.037  0.0000E+00  0.1200E+00
     -0.945  0.0000E+00  0.1200E+00
     -0.854  0.0000E+00  0.1200E+00
     -0.762  0.0000E+00  0.1200E+00
     -0.670  0.0000E+00  0.1200E+00
     -0.579  0.0000E+00  0.1200E+00
     -0.487  0.0000E+00  0.1200E+00
     -0.395  0.0000E+00  0.1200E+00
     -0.304  0.0000E+00  0.1200E+00
     -0.212  0.0000E+00  0.1200E+00
     -0.120  0.0000E+00  0.1200E+00
     -0.029  0.0000E+00  0.1200E+00
      0.063  0.0000E+00  0.1200E+00
      0.155  0.0000E+00  0.1200E+00
      0.246  0.0000E+00  0.1200E+00
      0.338  0.0000E+00  0.1200E+00
      0.430  0.0000E+00  0.1200E+00
      0.521  0.0000E+00  0.1200E+00
      0.613  0.0000E+00  0.1200E+00
      0.705  0.0000E+00  0.1200E+00
      0.796  0.0000E+00  0.1200E+00
      0.888  0.0000E+00  0.1200E+00
      0.980  0.0000E+00  0.1200E+00
      1.071  0.0000E+00  0.1200E+00
      1.163  0.3325E-04  0.1200E+00
      1.254  0.3961E-02  0.1202E+00
      1.346  0.5465E-02  0.1206E+00
      1.438  0.6938E-02  0.1212E+00
      1.529  0.8378E-02  0.1219E+00
      1.621  0.1021E-01  0.1227E+00
      1.713  0.1270E-01  0.1238E+00
      1.804  0.1587E-01  0.1252E+00
      1.896  0.1666E-01  0.1266E+00
      1.988  0.1779E-01  0.1282E+00
      2.079  0.1963E-01  0.1299E+00
      2.171  0.2507E-01  0.1320E+00
      2.263  0.2596E-01  0.1343E+00
      2.354  0.2595E-01  0.1368E+00
      2.446  0.1643E-01  0.1389E+00
      2.538  0.5051E-02  0.1399E+00
      2.629  0.0000E+00  0.1400E+00
      2.721  0.0000E+00  0.1400E+00
      2.813  0.0000E+00  0.1400E+00
      2.904  0.0000E+00  0.1400E+00
      2.996  0.0000E+00  0.1400E+00
      3.088  0.2673E-02  0.1400E+00
      3.179  0.4486E-02  0.1404E+00
      3.271  0.4965E-02  0.1409E+00
      3.362  0.5506E-02  0.1413E+00
      3.454  0.6083E-02  0.1419E+00
      3.546  0.6610E-02  0.1424E+00
      3.637  0.7286E-02  0.1431E+00
      3.729  0.8202E-02  0.1438E+00
      3.821  0.8967E-02  0.1446E+00
      3.912  0.9655E-02  0.1454E+00
      4.004  0.1086E-01  0.1464E+00
      4.096  0.1267E-01  0.1474E+00
      4.187  0.1515E-01  0.1487E+00
      4.279  0.1837E-01  0.1502E+00
      4.371  0.2201E-01  0.1521E+00
      4.462  0.2184E-01  0.1542E+00
      4.554  0.2073E-01  0.1562E+00
      4.646  0.1402E-01  0.1577E+00
      4.737  0.1114E-01  0.1588E+00
      4.829  0.9250E-02  0.1598E+00
      4.921  0.1053E-01  0.1607E+00
      5.012  0.1227E-01  0.1617E+00
      5.104  0.1422E-01  0.1629E+00
      5.196  0.1724E-01  0.1643E+00
      5.287  0.1835E-01  0.1660E+00
      5.379  0.1773E-01  0.1676E+00
      5.470  0.1785E-01  0.1692E+00
      5.562  0.2005E-01  0.1709E+00
      5.654  0.1966E-01  0.1728E+00
      5.745  0.1976E-01  0.1746E+00
      5.837  0.1522E-01  0.1762E+00
      5.929  0.1352E-01  0.1775E+00
      6.020  0.1172E-01  0.1786E+00
      6.112  0.1004E-01  0.1797E+00
      6.204  0.1011E-01  0.1805E+00
      6.295  0.1352E-01  0.1816E+00
      6.387  0.1310E-01  0.1828E+00
      6.479  0.1296E-01  0.1840E+00
      6.570  0.9802E-02  0.1851E+00
      6.662  0.8468E-02  0.1859E+00
      6.754  0.9682E-02  0.1867E+00
      6.845  0.9174E-02  0.1876E+00
      6.937  0.7272E-02  0.1884E+00
      7.029  0.6016E-02  0.1890E+00
      7.120  0.3326E-02  0.1894E+00
      7.212  0.1794E-02  0.1897E+00
      7.304  0.1336E-02  0.1898E+00
      7.395  0.8682E-03  0.1899E+00
      7.487  0.5181E-03  0.1900E+00
      7.578  0.2195E-03  0.1900E+00
      7.670  0.6625E-05  0.1900E+00
      7.762  0.0000E+00  0.1900E+00
      7.853  0.0000E+00  0.1900E+00
      7.945  0.0000E+00  0.1900E+00
      8.037  0.0000E+00  0.1900E+00
      8.128  0.0000E+00  0.1900E+00
      8.220  0.0000E+00  0.1900E+00
      8.312  0.0000E+00  0.1900E+00
      8.403  0.0000E+00  0.1900E+00
      8.495  0.0000E+00  0.1900E+00
      8.587  0.0000E+00  0.1900E+00
      8.678  0.0000E+00  0.1900E+00
      8.770  0.0000E+00  0.1900E+00
      8.862  0.0000E+00  0.1900E+00
      8.953  0.0000E+00  0.1900E+00
      9.045  0.0000E+00  0.1900E+00
      9.137  0.0000E+00  0.1900E+00
      9.228  0.0000E+00  0.1900E+00
      9.320  0.0000E+00  0.1900E+00
      9.412  0.0000E+00  0.1900E+00
      9.503  0.0000E+00  0.1900E+00
      9.595  0.0000E+00  0.1900E+00
      9.686  0.0000E+00  0.1900E+00
