   12   12  200    1
  0.1085377E+02  0.4870000E-09  0.6460000E-09  0.4140000E-09  0.5000000E-15
  1.000000000000000E-004
  CAR 
 ethylene                                
     24    350     19
 
  0.0000000E+00  0.0000000E+00  0.0000000E+00  0.8680556E-03
    1      -15.809212
    2      -15.550978
    3      -11.004526
    4      -10.997453
    5       -8.052866
    6       -7.989326
    7       -7.335692
    8       -6.988132
    9       -5.300633
   10       -4.898797
   11       -3.634363
   12       -3.366248
   13        1.158783
   14        2.466136
   15        3.061816
   16        4.453915
   17        5.550612
   18        6.674404
   19        6.865966
 
  0.8333333E-01  0.0000000E+00  0.0000000E+00  0.1736111E-02
    1      -15.802180
    2      -15.552245
    3      -11.017665
    4      -11.008668
    5       -8.055864
    6       -7.987866
    7       -7.313345
    8       -6.978412
    9       -5.303498
   10       -4.913381
   11       -3.632101
   12       -3.378806
   13        1.207987
   14        2.484538
   15        3.068222
   16        4.466663
   17        5.580480
   18        6.352799
   19        6.765880
 
  0.1666667E+00  0.0000000E+00  0.0000000E+00  0.1736111E-02
    1      -15.781945
    2      -15.556638
    3      -11.052840
    4      -11.039573
    5       -8.060515
    6       -7.984523
    7       -7.253607
    8       -6.954043
    9       -5.309246
   10       -4.954473
   11       -3.626258
   12       -3.412909
   13        1.348909
   14        2.527199
   15        3.100335
   16        4.503591
   17        5.663475
   18        5.812447
   19        6.489581
 
  0.2500000E+00  0.0000000E+00  0.0000000E+00  0.1736111E-02
    1      -15.751060
    2      -15.565709
    3      -11.099049
    4      -11.082625
    5       -8.059202
    6       -7.982130
    7       -7.172819
    8       -6.927353
    9       -5.310623
   10       -5.015113
   11       -3.618735
   12       -3.459520
   13        1.562334
   14        2.559372
   15        3.189367
   16        4.556158
   17        5.289809
   18        5.777351
   19        6.120057
 
  0.3333333E+00  0.0000000E+00  0.0000000E+00  0.1736111E-02
    1      -15.713420
    2      -15.581362
    3      -11.142649
    4      -11.127226
    5       -8.048354
    6       -7.984248
    7       -7.087733
    8       -6.912574
    9       -5.299247
   10       -5.086036
   11       -3.610130
   12       -3.507914
   13        1.818404
   14        2.544350
   15        3.357334
   16        4.547427
   17        4.906934
   18        5.680500
   19        5.970008
 
  0.4166667E+00  0.0000000E+00  0.0000000E+00  0.1736111E-02
    1      -15.673661
    2      -15.604914
    3      -11.171589
    4      -11.162215
    5       -8.030068
    6       -7.993483
    7       -7.011545
    8       -6.920064
    9       -5.269546
   10       -5.157541
   11       -3.598353
   12       -3.549303
   13        2.079117
   14        2.461999
   15        3.599459
   16        4.253540
   17        4.908462
   18        5.349127
   19        6.108946
 
  0.5000000E+00  0.0000000E+00  0.0000000E+00  0.8680556E-03
    1      -15.636312
    2      -15.636311
    3      -11.178536
    4      -11.178536
    5       -8.009866
    6       -8.009866
    7       -6.953666
    8       -6.953666
    9       -5.220984
   10       -5.220984
   11       -3.579297
   12       -3.579296
   13        2.303899
   14        2.303900
   15        3.903124
   16        3.903124
   17        5.084829
   18        5.084830
   19        6.253291
 
  0.0000000E+00  0.8333333E-01  0.0000000E+00  0.1736111E-02
    1      -15.805037
    2      -15.555617
    3      -11.003830
    4      -10.996962
    5       -8.054521
    6       -7.993822
    7       -7.327668
    8       -6.992568
    9       -5.294066
   10       -4.906039
   11       -3.627562
   12       -3.368051
   13        1.177722
   14        2.444661
   15        3.067233
   16        4.418095
   17        5.562822
   18        6.684088
   19        6.861565
 
  0.8333333E-01  0.8333333E-01  0.0000000E+00  0.3472222E-02
    1      -15.798119
    2      -15.556717
    3      -11.017546
    4      -11.007906
    5       -8.057526
    6       -7.991240
    7       -7.306032
    8       -6.982841
    9       -5.296863
   10       -4.919944
   11       -3.626501
   12       -3.380659
   13        1.226384
   14        2.464399
   15        3.073241
   16        4.432690
   17        5.591184
   18        6.359744
   19        6.771091
 
  0.1666667E+00  0.8333333E-01  0.0000000E+00  0.3472222E-02
    1      -15.778235
    2      -15.560611
    3      -11.053483
    4      -11.038870
    5       -8.061613
    6       -7.985849
    7       -7.247958
    8       -6.958385
    9       -5.302509
   10       -4.959259
   11       -3.623866
   12       -3.414980
   13        1.365787
   14        2.511592
   15        3.103609
   16        4.474427
   17        5.670373
   18        5.823716
   19        6.475407
 
  0.2500000E+00  0.8333333E-01  0.0000000E+00  0.3472222E-02
    1      -15.747939
    2      -15.568900
    3      -11.100219
    4      -11.082490
    5       -8.059064
    6       -7.981748
    7       -7.168993
    8       -6.931354
    9       -5.303941
   10       -5.017531
   11       -3.620434
   12       -3.462173
   13        1.576969
   14        2.551570
   15        3.189439
   16        4.535509
   17        5.293410
   18        5.797412
   19        6.083315
 
  0.3333333E+00  0.8333333E-01  0.0000000E+00  0.3472222E-02
    1      -15.711106
    2      -15.583533
    3      -11.144137
    4      -11.127809
    5       -8.046929
    6       -7.982677
    7       -7.085530
    8       -6.915787
    9       -5.292964
   10       -5.085966
   11       -3.615357
   12       -3.511665
   13        1.830423
   14        2.544241
   15        3.355976
   16        4.555557
   17        4.883450
   18        5.679348
   19        5.956117
 
  0.4166667E+00  0.8333333E-01  0.0000000E+00  0.3472222E-02
    1      -15.672342
    2      -15.605927
    3      -11.173215
    4      -11.163394
    5       -8.027786
    6       -7.991183
    7       -7.010813
    8       -6.922117
    9       -5.264122
   10       -5.155260
   11       -3.605382
   12       -3.554650
   13        2.088517
   14        2.466525
   15        3.601374
   16        4.271631
   17        4.874296
   18        5.331050
   19        6.123015
 
  0.5000000E+00  0.8333333E-01  0.0000000E+00  0.1736111E-02
    1      -15.636128
    2      -15.636127
    3      -11.180071
    4      -11.180070
    5       -8.007308
    6       -8.007307
    7       -6.954360
    8       -6.954359
    9       -5.216906
   10       -5.216906
   11       -3.586112
   12       -3.586112
   13        2.310980
   14        2.310981
   15        3.912314
   16        3.912314
   17        5.058641
   18        5.058642
   19        6.290469
 
  0.0000000E+00  0.1666667E+00  0.0000000E+00  0.1736111E-02
    1      -15.792748
    2      -15.569177
    3      -11.001901
    4      -10.995651
    5       -8.058851
    6       -8.006008
    7       -7.304873
    8       -7.005863
    9       -5.274756
   10       -4.927111
   11       -3.608007
   12       -3.374048
   13        1.233863
   14        2.377558
   15        3.091349
   16        4.313179
   17        5.607921
   18        6.702093
   19        6.862709
 
  0.8333333E-01  0.1666667E+00  0.0000000E+00  0.3472222E-02
    1      -15.786176
    2      -15.569781
    3      -11.016841
    4      -11.006207
    5       -8.061628
    6       -8.000782
    7       -7.285094
    8       -6.996096
    9       -5.277405
   10       -4.939234
   11       -3.610104
   12       -3.386842
   13        1.280972
   14        2.400312
   15        3.097176
   16        4.331960
   17        5.631631
   18        6.376214
   19        6.792743
 
  0.1666667E+00  0.1666667E+00  0.0000000E+00  0.3472222E-02
    1      -15.767339
    2      -15.572234
    3      -11.054471
    4      -11.037733
    5       -8.063720
    6       -7.990405
    7       -7.231432
    8       -6.971322
    9       -5.282842
   10       -4.973741
   11       -3.615925
   12       -3.421951
   13        1.416000
   14        2.458251
   15        3.125304
   16        4.384843
   17        5.697381
   18        5.851165
   19        6.467081
 
  0.2500000E+00  0.1666667E+00  0.0000000E+00  0.3472222E-02
    1      -15.738775
    2      -15.578235
    3      -11.102629
    4      -11.082891
    5       -8.057670
    6       -7.981775
    7       -7.157500
    8       -6.943142
    9       -5.284534
   10       -5.025354
   11       -3.623374
   12       -3.470963
   13        1.620732
   14        2.518827
   15        3.204411
   16        4.464711
   17        5.313821
   18        5.799601
   19        6.078732
 
  0.3333333E+00  0.1666667E+00  0.0000000E+00  0.3472222E-02
    1      -15.704326
    2      -15.589915
    3      -11.147628
    4      -11.129967
    5       -8.042237
    6       -7.979228
    7       -7.078773
    8       -6.925228
    9       -5.274863
   10       -5.086659
   11       -3.627989
   12       -3.523613
   13        1.866492
   14        2.535365
   15        3.365419
   16        4.549901
   17        4.845698
   18        5.608967
   19        6.023449
 
  0.4166667E+00  0.1666667E+00  0.0000000E+00  0.3472222E-02
    1      -15.668499
    2      -15.608929
    3      -11.177343
    4      -11.166905
    5       -8.021117
    6       -7.985348
    7       -7.008441
    8       -6.928092
    9       -5.248693
   10       -5.149368
   11       -3.623552
   12       -3.570528
   13        2.116396
   14        2.474983
   15        3.615662
   16        4.321752
   17        4.780912
   18        5.264839
   19        6.200424
 
  0.5000000E+00  0.1666667E+00  0.0000000E+00  0.1736111E-02
    1      -15.635626
    2      -15.635625
    3      -11.184249
    4      -11.184249
    5       -8.000306
    6       -8.000306
    7       -6.956265
    8       -6.956264
    9       -5.205571
   10       -5.205571
   11       -3.604878
   12       -3.604877
   13        2.330293
   14        2.330293
   15        3.941635
   16        3.941635
   17        4.982537
   18        4.982537
   19        6.398059
 
  0.0000000E+00  0.2500000E+00  0.0000000E+00  0.1736111E-02
    1      -15.773069
    2      -15.590580
    3      -10.999162
    4      -10.993954
    5       -8.064183
    6       -8.022643
    7       -7.270552
    8       -7.027849
    9       -5.243849
   10       -4.960285
   11       -3.578056
   12       -3.385599
   13        1.325205
   14        2.264025
   15        3.148316
   16        4.151329
   17        5.699314
   18        6.694089
   19        6.887278
 
  0.8333333E-01  0.2500000E+00  0.0000000E+00  0.3472222E-02
    1      -15.767067
    2      -15.590425
    3      -11.015145
    4      -11.004632
    5       -8.065960
    6       -8.014775
    7       -7.253118
    8       -7.017963
    9       -5.246400
   10       -4.970063
   11       -3.584204
   12       -3.398818
   13        1.369906
   14        2.289946
   15        3.155761
   16        4.173826
   17        5.714951
   18        6.389888
   19        6.833497
 
  0.1666667E+00  0.2500000E+00  0.0000000E+00  0.3472222E-02
    1      -15.749928
    2      -15.590636
    3      -11.054457
    4      -11.037559
    5       -8.064264
    6       -7.999051
    7       -7.205298
    8       -6.992432
    9       -5.251813
   10       -4.997976
   11       -3.600909
   12       -3.435401
   13        1.498192
   14        2.359593
   15        3.186293
   16        4.237161
   17        5.750450
   18        5.885830
   19        6.500604
 
  0.2500000E+00  0.2500000E+00  0.0000000E+00  0.3472222E-02
    1      -15.724174
    2      -15.593075
    3      -11.104484
    4      -11.084894
    5       -8.053199
    6       -7.984646
    7       -7.138602
    8       -6.962179
    9       -5.254341
   10       -5.040044
   11       -3.622790
   12       -3.487363
   13        1.692873
   14        2.445508
   15        3.262318
   16        4.334006
   17        5.358991
   18        5.735236
   19        6.203088
 
  0.3333333E+00  0.2500000E+00  0.0000000E+00  0.3472222E-02
    1      -15.693572
    2      -15.600121
    3      -11.151252
    4      -11.134050
    5       -8.033751
    6       -7.976783
    7       -7.067188
    8       -6.940311
    9       -5.247187
   10       -5.090475
   11       -3.641065
   12       -3.544215
   13        1.926201
   14        2.499628
   15        3.414186
   16        4.461867
   17        4.862623
   18        5.481193
   19        6.201042
 
  0.4166667E+00  0.2500000E+00  0.0000000E+00  0.3472222E-02
    1      -15.662475
    2      -15.613812
    3      -11.182353
    4      -11.172310
    5       -8.010850
    6       -7.978581
    7       -7.004023
    8       -6.937487
    9       -5.225738
   10       -5.142596
   11       -3.645997
   12       -3.595165
   13        2.161302
   14        2.475086
   15        3.660885
   16        4.395244
   17        4.642495
   18        5.151543
   19        6.360821
 
  0.5000000E+00  0.2500000E+00  0.0000000E+00  0.1736111E-02
    1      -15.634944
    2      -15.634943
    3      -11.189942
    4      -11.189942
    5       -7.990740
    6       -7.990740
    7       -6.958936
    8       -6.958936
    9       -5.189663
   10       -5.189663
   11       -3.630907
   12       -3.630907
   13        2.356486
   14        2.356487
   15        3.995067
   16        3.995067
   17        4.864408
   18        4.864408
   19        6.564411
 
  0.0000000E+00  0.3333333E+00  0.0000000E+00  0.1736111E-02
    1      -15.747189
    2      -15.618187
    3      -10.996210
    4      -10.992456
    5       -8.068251
    6       -8.039904
    7       -7.228714
    8       -7.058020
    9       -5.203270
   10       -5.002953
   11       -3.541243
   12       -3.404158
   13        1.448208
   14        2.113491
   15        3.245524
   16        3.955115
   17        5.840541
   18        6.612389
   19        6.940837
 
  0.8333333E-01  0.3333333E+00  0.0000000E+00  0.3472222E-02
    1      -15.741948
    2      -15.617074
    3      -11.012519
    4      -11.003981
    5       -8.067935
    6       -8.030745
    7       -7.213541
    8       -7.047783
    9       -5.205903
   10       -5.010367
   11       -3.551139
   12       -3.417939
   13        1.489907
   14        2.142328
   15        3.256514
   16        3.979032
   17        5.843171
   18        6.378033
   19        6.881616
 
  0.1666667E+00  0.3333333E+00  0.0000000E+00  0.3472222E-02
    1      -15.727095
    2      -15.614469
    3      -11.052857
    4      -11.038995
    5       -8.061048
    6       -8.011572
    7       -7.171717
    8       -7.020894
    9       -5.211905
   10       -5.031427
   11       -3.578165
   12       -3.456338
   13        1.609702
   14        2.222522
   15        3.294960
   16        4.047107
   17        5.821159
   18        5.920083
   19        6.579950
 
  0.2500000E+00  0.3333333E+00  0.0000000E+00  0.3472222E-02
    1      -15.705104
    2      -15.612389
    3      -11.104585
    4      -11.088666
    5       -8.044608
    6       -7.991938
    7       -7.113156
    8       -6.987453
    9       -5.216348
   10       -5.062913
   11       -3.614366
   12       -3.511320
   13        1.791466
   14        2.332086
   15        3.375435
   16        4.152682
   17        5.420256
   18        5.665214
   19        6.401330
 
  0.3333333E+00  0.3333333E+00  0.0000000E+00  0.3472222E-02
    1      -15.679626
    2      -15.613520
    3      -11.153418
    4      -11.139578
    5       -8.021833
    6       -7.977964
    7       -7.050787
    8       -6.960006
    9       -5.213389
   10       -5.100322
   11       -3.647585
   12       -3.571477
   13        2.007742
   14        2.428082
   15        3.520052
   16        4.293416
   17        4.932994
   18        5.352182
   19        6.438460
 
  0.4166667E+00  0.3333333E+00  0.0000000E+00  0.3472222E-02
    1      -15.654788
    2      -15.620359
    3      -11.186532
    4      -11.178511
    5       -7.998639
    6       -7.973804
    7       -6.997122
    8       -6.949387
    9       -5.199094
   10       -5.138743
   11       -3.664883
   12       -3.624031
   13        2.219931
   14        2.455579
   15        3.751870
   16        4.442702
   17        4.513784
   18        5.014189
   19        6.582048
 
  0.5000000E+00  0.3333333E+00  0.0000000E+00  0.1736111E-02
    1      -15.634260
    2      -15.634259
    3      -11.195611
    4      -11.195610
    5       -7.981170
    6       -7.981170
    7       -6.961657
    8       -6.961657
    9       -5.173208
   10       -5.173208
   11       -3.657414
   12       -3.657414
   13        2.382422
   14        2.382422
   15        4.075251
   16        4.075251
   17        4.718794
   18        4.718795
   19        6.767808
 
  0.0000000E+00  0.4166667E+00  0.0000000E+00  0.1736111E-02
    1      -15.716701
    2      -15.649940
    3      -10.993690
    4      -10.991722
    5       -8.068873
    6       -8.054560
    7       -7.183320
    8       -7.095281
    9       -5.155641
   10       -5.052021
   11       -3.501741
   12       -3.430411
   13        1.597496
   14        1.941950
   15        3.382359
   16        3.749091
   17        6.024414
   18        6.445647
   19        7.021728
 
  0.8333333E-01  0.4166667E+00  0.0000000E+00  0.3472222E-02
    1      -15.712385
    2      -15.647758
    3      -11.009453
    4      -11.004656
    5       -8.065615
    6       -8.046000
    7       -7.170018
    8       -7.084408
    9       -5.158702
   10       -5.057440
   11       -3.514315
   12       -3.444583
   13        1.635871
   14        1.973756
   15        3.397819
   16        3.771898
   17        6.004390
   18        6.308712
   19        6.924592
 
  0.1666667E+00  0.4166667E+00  0.0000000E+00  0.3472222E-02
    1      -15.700295
    2      -15.642003
    3      -11.049786
    4      -11.041965
    5       -8.053132
    6       -8.026352
    7       -7.133482
    8       -7.055324
    9       -5.166303
   10       -5.072512
   11       -3.548916
   12       -3.484116
   13        1.746123
   14        2.063966
   15        3.446889
   16        3.838140
   17        5.888919
   18        5.940691
   19        6.699382
 
  0.2500000E+00  0.4166667E+00  0.0000000E+00  0.3472222E-02
    1      -15.682832
    2      -15.634836
    3      -11.102515
    4      -11.093577
    5       -8.032245
    6       -8.003517
    7       -7.082835
    8       -7.017422
    9       -5.174286
   10       -5.094137
   11       -3.596405
   12       -3.540442
   13        1.912689
   14        2.194496
   15        3.536661
   16        3.943838
   17        5.485135
   18        5.604973
   19        6.636902
 
  0.3333333E+00  0.4166667E+00  0.0000000E+00  0.3472222E-02
    1      -15.663488
    2      -15.629257
    3      -11.153175
    4      -11.145445
    5       -8.008027
    6       -7.984048
    7       -7.030236
    8       -6.982840
    9       -5.177780
   10       -5.118368
   11       -3.642984
   12       -3.600844
   13        2.107083
   14        2.328964
   15        3.678948
   16        4.087409
   17        5.024802
   18        5.234472
   19        6.705134
 
  0.4166667E+00  0.4166667E+00  0.0000000E+00  0.3472222E-02
    1      -15.646071
    2      -15.628240
    3      -11.188540
    4      -11.184077
    5       -7.986807
    6       -7.973229
    7       -6.987583
    8       -6.962604
    9       -5.173442
   10       -5.141567
   11       -3.673616
   12       -3.650701
   13        2.286760
   14        2.413523
   15        3.890685
   16        4.262596
   17        4.609060
   18        4.871633
   19        6.827008
 
  0.5000000E+00  0.4166667E+00  0.0000000E+00  0.1736111E-02
    1      -15.633760
    2      -15.633759
    3      -11.199745
    4      -11.199745
    5       -7.974146
    6       -7.974146
    7       -6.963691
    8       -6.963690
    9       -5.160791
   10       -5.160791
   11       -3.677138
   12       -3.677138
   13        2.401201
   14        2.401201
   15        4.175527
   16        4.175527
   17        4.570270
   18        4.570271
   19        6.963695
 
  0.0000000E+00  0.5000000E+00  0.0000000E+00  0.8680556E-03
    1      -15.683551
    2      -15.683551
    3      -10.992112
    4      -10.992112
    5       -8.064477
    6       -8.064477
    7       -7.137856
    8       -7.137856
    9       -5.104090
   10       -5.104090
   11       -3.463667
   12       -3.463666
   13        1.765490
   14        1.765490
   15        3.553380
   16        3.553380
   17        6.235169
   18        6.235170
   19        7.124756
 
  0.8333333E-01  0.5000000E+00  0.0000000E+00  0.1736111E-02
    1      -15.680278
    2      -15.680277
    3      -11.006619
    4      -11.006618
    5       -8.058160
    6       -8.058160
    7       -7.125983
    8       -7.125983
    9       -5.108054
   10       -5.108054
   11       -3.477599
   12       -3.477599
   13        1.800504
   14        1.800505
   15        3.573097
   16        3.573098
   17        6.172942
   18        6.172943
   19        6.965797
 
  0.1666667E+00  0.5000000E+00  0.0000000E+00  0.1736111E-02
    1      -15.671282
    2      -15.671282
    3      -11.045856
    4      -11.045855
    5       -8.041002
    6       -8.041002
    7       -7.093699
    8       -7.093698
    9       -5.118603
   10       -5.118603
   11       -3.516228
   12       -3.516228
   13        1.900763
   14        1.900763
   15        3.632303
   16        3.632303
   17        5.932215
   18        5.932215
   19        6.847053
 
  0.2500000E+00  0.5000000E+00  0.0000000E+00  0.1736111E-02
    1      -15.658864
    2      -15.658864
    3      -11.098565
    4      -11.098565
    5       -8.017752
    6       -8.017752
    7       -7.050039
    8       -7.050039
    9       -5.132250
   10       -5.132250
   11       -3.570439
   12       -3.570438
   13        2.050208
   14        2.050208
   15        3.731731
   16        3.731732
   17        5.546867
   18        5.546867
   19        6.876738
 
  0.3333333E+00  0.5000000E+00  0.0000000E+00  0.1736111E-02
    1      -15.646297
    2      -15.646296
    3      -11.150337
    4      -11.150337
    5       -7.994637
    6       -7.994636
    7       -7.006935
    8       -7.006934
    9       -5.144855
   10       -5.144855
   11       -3.626443
   12       -3.626443
   13        2.217477
   14        2.217477
   15        3.874739
   16        3.874739
   17        5.126035
   18        5.126036
   19        6.958900
 
  0.4166667E+00  0.5000000E+00  0.0000000E+00  0.1736111E-02
    1      -15.637003
    2      -15.637002
    3      -11.187693
    4      -11.187692
    5       -7.977754
    6       -7.977754
    7       -6.975773
    8       -6.975772
    9       -5.153275
   10       -5.153275
   11       -3.668685
   12       -3.668685
   13        2.354271
   14        2.354271
   15        4.066967
   16        4.066967
   17        4.734324
   18        4.734325
   19        7.029402
 
  0.5000000E+00  0.5000000E+00  0.0000000E+00  0.8680556E-03
    1      -15.633578
    2      -15.633577
    3      -11.201254
    4      -11.201254
    5       -7.971581
    6       -7.971581
    7       -6.964447
    8       -6.964447
    9       -5.156167
   10       -5.156167
   11       -3.684428
   12       -3.684428
   13        2.408022
   14        2.408023
   15        4.241969
   16        4.241969
   17        4.486116
   18        4.486116
   19        7.056089
 
  0.0000000E+00  0.0000000E+00  0.1250000E+00  0.1736111E-02
    1      -15.785648
    2      -15.545551
    3      -10.991191
    4      -10.983346
    5       -8.137646
    6       -8.065376
    7       -7.277286
    8       -6.979992
    9       -5.322211
   10       -4.949902
   11       -3.651474
   12       -3.376051
   13        1.175836
   14        2.418619
   15        3.158402
   16        4.555817
   17        5.480331
   18        6.434420
   19        6.697114
 
  0.8333333E-01  0.0000000E+00  0.1250000E+00  0.1736111E-02
    1      -15.777950
    2      -15.547107
    3      -11.004043
    4      -10.998357
    5       -8.157338
    6       -8.070278
    7       -7.217173
    8       -6.977534
    9       -5.278239
   10       -4.973560
   11       -3.643361
   12       -3.435448
   13        1.199297
   14        2.438510
   15        3.097431
   16        4.507243
   17        5.530896
   18        6.185177
   19        6.947355
 
  0.1666667E+00  0.0000000E+00  0.1250000E+00  0.1736111E-02
    1      -15.757745
    2      -15.551290
    3      -11.043159
    4      -11.027110
    5       -8.164921
    6       -8.069610
    7       -7.137074
    8       -6.961912
    9       -5.246006
   10       -5.026707
   11       -3.630985
   12       -3.511306
   13        1.310742
   14        2.493938
   15        3.071782
   16        4.507553
   17        5.617779
   18        5.852400
   19        6.790301
 
  0.2500000E+00  0.0000000E+00  0.1250000E+00  0.1736111E-02
    1      -15.727623
    2      -15.559670
    3      -11.092195
    4      -11.066951
    5       -8.156306
    6       -8.064927
    7       -7.051900
    8       -6.945811
    9       -5.224639
   10       -5.103856
   11       -3.613126
   12       -3.588099
   13        1.494274
   14        2.562924
   15        3.099986
   16        4.558126
   17        5.499125
   18        5.722878
   19        6.476057
 
  0.3333333E+00  0.0000000E+00  0.1250000E+00  0.1736111E-02
    1      -15.691447
    2      -15.574131
    3      -11.140065
    4      -11.104848
    5       -8.133050
    6       -8.059164
    7       -6.974148
    8       -6.943498
    9       -5.208542
   10       -5.195041
   11       -3.651627
   12       -3.589094
   13        1.726054
   14        2.597507
   15        3.211128
   16        4.651781
   17        5.130748
   18        5.796268
   19        6.229702
 
  0.4166667E+00  0.0000000E+00  0.1250000E+00  0.1736111E-02
    1      -15.653772
    2      -15.596019
    3      -11.175691
    4      -11.129378
    5       -8.101307
    6       -8.055507
    7       -6.965115
    8       -6.912840
    9       -5.287971
   10       -5.190241
   11       -3.692989
   12       -3.557725
   13        1.974672
   14        2.549679
   15        3.423716
   16        4.673230
   17        4.880759
   18        5.724646
   19        6.067027
 
  0.5000000E+00  0.0000000E+00  0.1250000E+00  0.1736111E-02
    1      -15.625339
    2      -15.618959
    3      -11.190512
    4      -11.133697
    5       -8.069516
    6       -8.056050
    7       -7.013207
    8       -6.873422
    9       -5.369821
   10       -5.163647
   11       -3.710280
   12       -3.517848
   13        2.202772
   14        2.405453
   15        3.726712
   16        4.356053
   17        5.044639
   18        5.544262
   19        5.945787
 
 -0.4166667E+00  0.0000000E+00  0.1250000E+00  0.1736111E-02
    1      -15.660320
    2      -15.590311
    3      -11.180596
    4      -11.116903
    5       -8.060994
    6       -8.045539
    7       -7.082549
    8       -6.858426
    9       -5.428987
   10       -5.126239
   11       -3.708141
   12       -3.470186
   13        2.180039
   14        2.374965
   15        4.031996
   16        4.099028
   17        5.322052
   18        5.367440
   19        5.838899
 
 -0.3333333E+00  0.0000000E+00  0.1250000E+00  0.1736111E-02
    1      -15.697578
    2      -15.569443
    3      -11.147865
    4      -11.083848
    5       -8.069149
    6       -8.033930
    7       -7.161927
    8       -6.867323
    9       -5.457187
   10       -5.079720
   11       -3.694976
   12       -3.419287
   13        1.909422
   14        2.471433
   15        3.750135
   16        4.505803
   17        5.232434
   18        5.637655
   19        5.788573
 
 -0.2500000E+00  0.0000000E+00  0.1250000E+00  0.1736111E-02
    1      -15.732771
    2      -15.556181
    3      -11.100113
    4      -11.043650
    5       -8.079760
    6       -8.034599
    7       -7.236081
    8       -6.895176
    9       -5.452462
   10       -5.029795
   11       -3.679292
   12       -3.374000
   13        1.638143
   14        2.495648
   15        3.526278
   16        4.787447
   17        5.277208
   18        5.599490
   19        6.172334
 
 -0.1666667E+00  0.0000000E+00  0.1250000E+00  0.1736111E-02
    1      -15.761449
    2      -15.549019
    3      -11.049517
    4      -11.007314
    5       -8.094105
    6       -8.043626
    7       -7.287950
    8       -6.931660
    9       -5.420602
   10       -4.985123
   11       -3.666556
   12       -3.345751
   13        1.407018
   14        2.471652
   15        3.362860
   16        4.751456
   17        5.520003
   18        5.672386
   19        6.623011
 
 -0.8333333E-01  0.0000000E+00  0.1250000E+00  0.1736111E-02
    1      -15.779882
    2      -15.545996
    3      -11.009624
    4      -10.984971
    5       -8.114081
    6       -8.055516
    7       -7.303257
    8       -6.963551
    9       -5.372982
   10       -4.955558
   11       -3.658024
   12       -3.344865
   13        1.246823
   14        2.435260
   15        3.245665
   16        4.644499
   17        5.476221
   18        6.139786
   19        6.759128
 
  0.0000000E+00  0.8333333E-01  0.1250000E+00  0.3472222E-02
    1      -15.781733
    2      -15.549833
    3      -10.990840
    4      -10.982915
    5       -8.138639
    6       -8.068004
    7       -7.271774
    8       -6.984258
    9       -5.315851
   10       -4.956080
   11       -3.645266
   12       -3.378547
   13        1.193842
   14        2.397286
   15        3.167547
   16        4.522719
   17        5.482854
   18        6.479156