   12   12  200    1
  0.1085377E+02  0.4870000E-09  0.6460000E-09  0.4140000E-09  0.5000000E-15
  1.000000000000000E-004
  CAR 
 ethylene                                
     24    350     19
 
  0.0000000E+00  0.0000000E+00  0.0000000E+00  0.8680556E-03
    1      -15.809149
    2      -15.550906
    3      -11.004599
    4      -10.997551
    5       -8.052755
    6       -7.989245
    7       -7.335724
    8       -6.988186
    9       -5.300634
   10       -4.898800
   11       -3.634326
   12       -3.366209
   13        1.158691
   14        2.466066
   15        3.061805
   16        4.453930
   17        5.550646
   18        6.674394
   19        6.865901
 
  0.8333333E-01  0.0000000E+00  0.0000000E+00  0.1736111E-02
    1      -15.802118
    2      -15.552174
    3      -11.017738
    4      -11.008764
    5       -8.055754
    6       -7.987785
    7       -7.313378
    8       -6.978468
    9       -5.303497
   10       -4.913383
   11       -3.632065
   12       -3.378768
   13        1.207896
   14        2.484468
   15        3.068211
   16        4.466676
   17        5.580514
   18        6.352826
   19        6.765819
 
  0.1666667E+00  0.0000000E+00  0.0000000E+00  0.1736111E-02
    1      -15.781883
    2      -15.556567
    3      -11.052913
    4      -11.039666
    5       -8.060410
    6       -7.984441
    7       -7.253643
    8       -6.954103
    9       -5.309242
   10       -4.954471
   11       -3.626226
   12       -3.412875
   13        1.348823
   14        2.527132
   15        3.100324
   16        4.503600
   17        5.663508
   18        5.812483
   19        6.489529
 
  0.2500000E+00  0.0000000E+00  0.0000000E+00  0.1736111E-02
    1      -15.750996
    2      -15.565639
    3      -11.099122
    4      -11.082714
    5       -8.059101
    6       -7.982047
    7       -7.172861
    8       -6.927417
    9       -5.310613
   10       -5.015105
   11       -3.618707
   12       -3.459491
   13        1.562253
   14        2.559307
   15        3.189358
   16        4.556160
   17        5.289846
   18        5.777384
   19        6.120014
 
  0.3333333E+00  0.0000000E+00  0.0000000E+00  0.1736111E-02
    1      -15.713355
    2      -15.581293
    3      -11.142721
    4      -11.127310
    5       -8.048258
    6       -7.984162
    7       -7.087783
    8       -6.912642
    9       -5.299231
   10       -5.086022
   11       -3.610106
   12       -3.507889
   13        1.818328
   14        2.544286
   15        3.357331
   16        4.547427
   17        4.906964
   18        5.680487
   19        5.970016
 
  0.4166667E+00  0.0000000E+00  0.0000000E+00  0.1736111E-02
    1      -15.673595
    2      -15.604845
    3      -11.171663
    4      -11.162294
    5       -8.029975
    6       -7.993395
    7       -7.011603
    8       -6.920132
    9       -5.269526
   10       -5.157523
   11       -3.598332
   12       -3.549281
   13        2.079044
   14        2.461933
   15        3.599463
   16        4.253555
   17        4.908465
   18        5.349112
   19        6.108959
 
  0.5000000E+00  0.0000000E+00  0.0000000E+00  0.8680556E-03
    1      -15.636244
    2      -15.636244
    3      -11.178613
    4      -11.178612
    5       -8.009776
    6       -8.009776
    7       -6.953731
    8       -6.953731
    9       -5.220964
   10       -5.220963
   11       -3.579276
   12       -3.579276
   13        2.303830
   14        2.303831
   15        3.903136
   16        3.903137
   17        5.084821
   18        5.084822
   19        6.253302
 
  0.0000000E+00  0.8333333E-01  0.0000000E+00  0.1736111E-02
    1      -15.804975
    2      -15.555546
    3      -11.003903
    4      -10.997059
    5       -8.054410
    6       -7.993741
    7       -7.327701
    8       -6.992622
    9       -5.294067
   10       -4.906042
   11       -3.627526
   12       -3.368012
   13        1.177629
   14        2.444590
   15        3.067224
   16        4.418109
   17        5.562853
   18        6.684078
   19        6.861510
 
  0.8333333E-01  0.8333333E-01  0.0000000E+00  0.3472222E-02
    1      -15.798056
    2      -15.556646
    3      -11.017620
    4      -11.008001
    5       -8.057417
    6       -7.991159
    7       -7.306065
    8       -6.982896
    9       -5.296862
   10       -4.919946
   11       -3.626466
   12       -3.380622
   13        1.226294
   14        2.464329
   15        3.073231
   16        4.432703
   17        5.591215
   18        6.359769
   19        6.771031
 
  0.1666667E+00  0.8333333E-01  0.0000000E+00  0.3472222E-02
    1      -15.778173
    2      -15.560540
    3      -11.053557
    4      -11.038962
    5       -8.061508
    6       -7.985766
    7       -7.247994
    8       -6.958444
    9       -5.302504
   10       -4.959257
   11       -3.623833
   12       -3.414946
   13        1.365701
   14        2.511524
   15        3.103599
   16        4.474436
   17        5.670402
   18        5.823748
   19        6.475365
 
  0.2500000E+00  0.8333333E-01  0.0000000E+00  0.3472222E-02
    1      -15.747876
    2      -15.568829
    3      -11.100292
    4      -11.082578
    5       -8.058964
    6       -7.981663
    7       -7.169035
    8       -6.931417
    9       -5.303931
   10       -5.017523
   11       -3.620405
   12       -3.462144
   13        1.576888
   14        2.551505
   15        3.189431
   16        4.535512
   17        5.293446
   18        5.797437
   19        6.083282
 
  0.3333333E+00  0.8333333E-01  0.0000000E+00  0.3472222E-02
    1      -15.711041
    2      -15.583464
    3      -11.144211
    4      -11.127893
    5       -8.046833
    6       -7.982591
    7       -7.085580
    8       -6.915854
    9       -5.292949
   10       -5.085952
   11       -3.615332
   12       -3.511640
   13        1.830347
   14        2.544176
   15        3.355973
   16        4.555554
   17        4.883481
   18        5.679329
   19        5.956130
 
  0.4166667E+00  0.8333333E-01  0.0000000E+00  0.3472222E-02
    1      -15.672276
    2      -15.605858
    3      -11.173289
    4      -11.163474
    5       -8.027693
    6       -7.991095
    7       -7.010871
    8       -6.922185
    9       -5.264103
   10       -5.155242
   11       -3.605360
   12       -3.554628
   13        2.088446
   14        2.466458
   15        3.601379
   16        4.271645
   17        4.874300
   18        5.331035
   19        6.123026
 
  0.5000000E+00  0.8333333E-01  0.0000000E+00  0.1736111E-02
    1      -15.636060
    2      -15.636060
    3      -11.180147
    4      -11.180147
    5       -8.007217
    6       -8.007217
    7       -6.954425
    8       -6.954424
    9       -5.216886
   10       -5.216886
   11       -3.586091
   12       -3.586091
   13        2.310911
   14        2.310912
   15        3.912326
   16        3.912326
   17        5.058634
   18        5.058634
   19        6.290477
 
  0.0000000E+00  0.1666667E+00  0.0000000E+00  0.1736111E-02
    1      -15.792685
    2      -15.569106
    3      -11.001975
    4      -10.995747
    5       -8.058743
    6       -8.005926
    7       -7.304906
    8       -7.005915
    9       -5.274756
   10       -4.927113
   11       -3.607971
   12       -3.374010
   13        1.233771
   14        2.377484
   15        3.091342
   16        4.313193
   17        5.607946
   18        6.702085
   19        6.862672
 
  0.8333333E-01  0.1666667E+00  0.0000000E+00  0.3472222E-02
    1      -15.786113
    2      -15.569710
    3      -11.016918
    4      -11.006300
    5       -8.061522
    6       -8.000699
    7       -7.285128
    8       -6.996150
    9       -5.277403
   10       -4.939235
   11       -3.610069
   12       -3.386805
   13        1.280882
   14        2.400239
   15        3.097169
   16        4.331972
   17        5.631653
   18        6.376235
   19        6.792688
 
  0.1666667E+00  0.1666667E+00  0.0000000E+00  0.3472222E-02
    1      -15.767276
    2      -15.572164
    3      -11.054548
    4      -11.037822
    5       -8.063618
    6       -7.990320
    7       -7.231470
    8       -6.971379
    9       -5.282837
   10       -4.973738
   11       -3.615892
   12       -3.421918
   13        1.415915
   14        2.458181
   15        3.125297
   16        4.384853
   17        5.697401
   18        5.851189
   19        6.467056
 
  0.2500000E+00  0.1666667E+00  0.0000000E+00  0.3472222E-02
    1      -15.738711
    2      -15.578165
    3      -11.102705
    4      -11.082976
    5       -8.057572
    6       -7.981688
    7       -7.157544
    8       -6.943204
    9       -5.284525
   10       -5.025347
   11       -3.623345
   12       -3.470934
   13        1.620653
   14        2.518760
   15        3.204407
   16        4.464715
   17        5.313853
   18        5.799595
   19        6.078730
 
  0.3333333E+00  0.1666667E+00  0.0000000E+00  0.3472222E-02
    1      -15.704261
    2      -15.589846
    3      -11.147703
    4      -11.130049
    5       -8.042142
    6       -7.979139
    7       -7.078825
    8       -6.925295
    9       -5.274849
   10       -5.086647
   11       -3.627963
   12       -3.523588
   13        1.866418
   14        2.535300
   15        3.365419
   16        4.549895
   17        4.845730
   18        5.608944
   19        6.023462
 
  0.4166667E+00  0.1666667E+00  0.0000000E+00  0.3472222E-02
    1      -15.668433
    2      -15.608861
    3      -11.177417
    4      -11.166983
    5       -8.021025
    6       -7.985258
    7       -7.008500
    8       -6.928159
    9       -5.248675
   10       -5.149351
   11       -3.623529
   12       -3.570505
   13        2.116326
   14        2.474918
   15        3.615668
   16        4.321764
   17        4.780916
   18        5.264825
   19        6.200427
 
  0.5000000E+00  0.1666667E+00  0.0000000E+00  0.1736111E-02
    1      -15.635558
    2      -15.635558
    3      -11.184326
    4      -11.184325
    5       -8.000215
    6       -8.000215
    7       -6.956329
    8       -6.956329
    9       -5.205553
   10       -5.205552
   11       -3.604855
   12       -3.604855
   13        2.330226
   14        2.330226
   15        3.941646
   16        3.941646
   17        4.982529
   18        4.982530
   19        6.398056
 
  0.0000000E+00  0.2500000E+00  0.0000000E+00  0.1736111E-02
    1      -15.773005
    2      -15.590511
    3      -10.999239
    4      -10.994048
    5       -8.064077
    6       -8.022560
    7       -7.270586
    8       -7.027900
    9       -5.243848
   10       -4.960286
   11       -3.578021
   12       -3.385562
   13        1.325115
   14        2.263949
   15        3.148311
   16        4.151340
   17        5.699331
   18        6.694085
   19        6.887254
 
  0.8333333E-01  0.2500000E+00  0.0000000E+00  0.3472222E-02
    1      -15.767004
    2      -15.590356
    3      -11.015224
    4      -11.004722
    5       -8.065857
    6       -8.014689
    7       -7.253154
    8       -7.018015
    9       -5.246398
   10       -4.970063
   11       -3.584169
   12       -3.398783
   13        1.369819
   14        2.289872
   15        3.155757
   16        4.173837
   17        5.714965
   18        6.389903
   19        6.833449
 
  0.1666667E+00  0.2500000E+00  0.0000000E+00  0.3472222E-02
    1      -15.749864
    2      -15.590566
    3      -11.054536
    4      -11.037646
    5       -8.064165
    6       -7.998963
    7       -7.205338
    8       -6.992488
    9       -5.251808
   10       -4.997974
   11       -3.600876
   12       -3.435368
   13        1.498109
   14        2.359521
   15        3.186289
   16        4.237170
   17        5.750456
   18        5.885846
   19        6.500598
 
  0.2500000E+00  0.2500000E+00  0.0000000E+00  0.3472222E-02
    1      -15.724110
    2      -15.593005
    3      -11.104561
    4      -11.084978
    5       -8.053103
    6       -7.984557
    7       -7.138648
    8       -6.962239
    9       -5.254331
   10       -5.040038
   11       -3.622760
   12       -3.487334
   13        1.692796
   14        2.445441
   15        3.262316
   16        4.334011
   17        5.359016
   18        5.735213
   19        6.203104
 
  0.3333333E+00  0.2500000E+00  0.0000000E+00  0.3472222E-02
    1      -15.693507
    2      -15.600052
    3      -11.151328
    4      -11.134130
    5       -8.033657
    6       -7.976693
    7       -7.067241
    8       -6.940375
    9       -5.247173
   10       -5.090465
   11       -3.641037
   12       -3.544190
   13        1.926130
   14        2.499563
   15        3.414187
   16        4.461865
   17        4.862647
   18        5.481172
   19        6.201049
 
  0.4166667E+00  0.2500000E+00  0.0000000E+00  0.3472222E-02
    1      -15.662409
    2      -15.613743
    3      -11.182429
    4      -11.172388
    5       -8.010757
    6       -7.978490
    7       -7.004083
    8       -6.937553
    9       -5.225723
   10       -5.142582
   11       -3.645972
   12       -3.595141
   13        2.161236
   14        2.475022
   15        3.660891
   16        4.395255
   17        4.642496
   18        5.151529
   19        6.360813
 
  0.5000000E+00  0.2500000E+00  0.0000000E+00  0.1736111E-02
    1      -15.634876
    2      -15.634876
    3      -11.190018
    4      -11.190018
    5       -7.990648
    6       -7.990648
    7       -6.959001
    8       -6.959001
    9       -5.189647
   10       -5.189647
   11       -3.630884
   12       -3.630883
   13        2.356422
   14        2.356422
   15        3.995078
   16        3.995078
   17        4.864400
   18        4.864400
   19        6.564393
 
  0.0000000E+00  0.3333333E+00  0.0000000E+00  0.1736111E-02
    1      -15.747125
    2      -15.618118
    3      -10.996288
    4      -10.992547
    5       -8.068150
    6       -8.039819
    7       -7.228750
    8       -7.058067
    9       -5.203268
   10       -5.002952
   11       -3.541209
   12       -3.404122
   13        1.448121
   14        2.113414
   15        3.245522
   16        3.955124
   17        5.840552
   18        6.612388
   19        6.940822
 
  0.8333333E-01  0.3333333E+00  0.0000000E+00  0.3472222E-02
    1      -15.741884
    2      -15.617006
    3      -11.012600
    4      -11.004069
    5       -8.067836
    6       -8.030657
    7       -7.213578
    8       -7.047832
    9       -5.205900
   10       -5.010366
   11       -3.551105
   12       -3.417904
   13        1.489821
   14        2.142252
   15        3.256511
   16        3.979040
   17        5.843177
   18        6.378039
   19        6.881580
 
  0.1666667E+00  0.3333333E+00  0.0000000E+00  0.3472222E-02
    1      -15.727030
    2      -15.614400
    3      -11.052936
    4      -11.039080
    5       -8.060951
    6       -8.011482
    7       -7.171759
    8       -7.020947
    9       -5.211900
   10       -5.031424
   11       -3.578132
   12       -3.456306
   13        1.609621
   14        2.222450
   15        3.294958
   16        4.047113
   17        5.821151
   18        5.920093
   19        6.579959
 
  0.2500000E+00  0.3333333E+00  0.0000000E+00  0.3472222E-02
    1      -15.705039
    2      -15.612320
    3      -11.104663
    4      -11.088749
    5       -8.044514
    6       -7.991847
    7       -7.113204
    8       -6.987512
    9       -5.216339
   10       -5.062907
   11       -3.614335
   12       -3.511291
   13        1.791391
   14        2.332018
   15        3.375432
   16        4.152686
   17        5.420271
   18        5.665192
   19        6.401346
 
  0.3333333E+00  0.3333333E+00  0.0000000E+00  0.3472222E-02
    1      -15.679560
    2      -15.613451
    3      -11.153494
    4      -11.139658
    5       -8.021739
    6       -7.977873
    7       -7.050842
    8       -6.960069
    9       -5.213377
   10       -5.100313
   11       -3.647556
   12       -3.571451
   13        2.007674
   14        2.428018
   15        3.520052
   16        4.293418
   17        4.933007
   18        5.352166
   19        6.438457
 
  0.4166667E+00  0.3333333E+00  0.0000000E+00  0.3472222E-02
    1      -15.654721
    2      -15.620291
    3      -11.186608
    4      -11.178588
    5       -7.998546
    6       -7.973711
    7       -6.997184
    8       -6.949453
    9       -5.199081
   10       -5.138731
   11       -3.664856
   12       -3.624006
   13        2.219867
   14        2.455517
   15        3.751875
   16        4.442725
   17        4.513769
   18        5.014177
   19        6.582025
 
  0.5000000E+00  0.3333333E+00  0.0000000E+00  0.1736111E-02
    1      -15.634192
    2      -15.634191
    3      -11.195687
    4      -11.195686
    5       -7.981077
    6       -7.981077
    7       -6.961723
    8       -6.961722
    9       -5.173195
   10       -5.173195
   11       -3.657388
   12       -3.657388
   13        2.382360
   14        2.382361
   15        4.075262
   16        4.075262
   17        4.718784
   18        4.718785
   19        6.767770
 
  0.0000000E+00  0.4166667E+00  0.0000000E+00  0.1736111E-02
    1      -15.716635
    2      -15.649872
    3      -10.993771
    4      -10.991810
    5       -8.068776
    6       -8.054471
    7       -7.183359
    8       -7.095325
    9       -5.155638
   10       -5.052020
   11       -3.501706
   12       -3.430377
   13        1.597411
   14        1.941870
   15        3.382360
   16        3.749097
   17        6.024420
   18        6.445648
   19        7.021719
 
  0.8333333E-01  0.4166667E+00  0.0000000E+00  0.3472222E-02
    1      -15.712320
    2      -15.647691
    3      -11.009535
    4      -11.004741
    5       -8.065520
    6       -8.045910
    7       -7.170058
    8       -7.084454
    9       -5.158699
   10       -5.057438
   11       -3.514282
   12       -3.444549
   13        1.635788
   14        1.973678
   15        3.397819
   16        3.771903
   17        6.004390
   18        6.308711
   19        6.924576
 
  0.1666667E+00  0.4166667E+00  0.0000000E+00  0.3472222E-02
    1      -15.700230
    2      -15.641936
    3      -11.049867
    4      -11.042049
    5       -8.053038
    6       -8.026261
    7       -7.133526
    8       -7.055374
    9       -5.166299
   10       -5.072509
   11       -3.548883
   12       -3.484084
   13        1.746045
   14        2.063892
   15        3.446888
   16        3.838143
   17        5.888906
   18        5.940694
   19        6.699400
 
  0.2500000E+00  0.4166667E+00  0.0000000E+00  0.3472222E-02
    1      -15.682766
    2      -15.634768
    3      -11.102595
    4      -11.093658
    5       -8.032151
    6       -8.003424
    7       -7.082886
    8       -7.017478
    9       -5.174279
   10       -5.094131
   11       -3.596374
   12       -3.540412
   13        1.912617
   14        2.194428
   15        3.536659
   16        3.943841
   17        5.485141
   18        5.604959
   19        6.636912
 
  0.3333333E+00  0.4166667E+00  0.0000000E+00  0.3472222E-02
    1      -15.663421
    2      -15.629189
    3      -11.153252
    4      -11.145524
    5       -8.007934
    6       -7.983955
    7       -7.030294
    8       -6.982901
    9       -5.177770
   10       -5.118360
   11       -3.642955
   12       -3.600816
   13        2.107018
   14        2.328901
   15        3.678948
   16        4.087411
   17        5.024807
   18        5.234462
   19        6.705119
 
  0.4166667E+00  0.4166667E+00  0.0000000E+00  0.3472222E-02
    1      -15.646004
    2      -15.628172
    3      -11.188616
    4      -11.184154
    5       -7.986714
    6       -7.973136
    7       -6.987646
    8       -6.962668
    9       -5.173430
   10       -5.141557
   11       -3.673588
   12       -3.650674
   13        2.286699
   14        2.413463
   15        3.890689
   16        4.262604
   17        4.609055
   18        4.871623
   19        6.826965
 
  0.5000000E+00  0.4166667E+00  0.0000000E+00  0.1736111E-02
    1      -15.633692
    2      -15.633692
    3      -11.199821
    4      -11.199821
    5       -7.974053
    6       -7.974052
    7       -6.963756
    8       -6.963755
    9       -5.160779
   10       -5.160779
   11       -3.677111
   12       -3.677111
   13        2.401141
   14        2.401142
   15        4.175540
   16        4.175540
   17        4.570256
   18        4.570256
   19        6.963631
 
  0.0000000E+00  0.5000000E+00  0.0000000E+00  0.8680556E-03
    1      -15.683485
    2      -15.683485
    3      -10.992197
    4      -10.992196
    5       -8.064384
    6       -8.064384
    7       -7.137898
    8       -7.137897
    9       -5.104088
   10       -5.104088
   11       -3.463633
   12       -3.463632
   13        1.765408
   14        1.765408
   15        3.553382
   16        3.553383
   17        6.235172
   18        6.235173
   19        7.124751
 
  0.8333333E-01  0.5000000E+00  0.0000000E+00  0.1736111E-02
    1      -15.680211
    2      -15.680211
    3      -11.006703
    4      -11.006702
    5       -8.058067
    6       -8.058067
    7       -7.126026
    8       -7.126026
    9       -5.108051
   10       -5.108051
   11       -3.477565
   12       -3.477565
   13        1.800424
   14        1.800424
   15        3.573100
   16        3.573100
   17        6.172939
   18        6.172940
   19        6.965810
 
  0.1666667E+00  0.5000000E+00  0.0000000E+00  0.1736111E-02
    1      -15.671215
    2      -15.671215
    3      -11.045938
    4      -11.045938
    5       -8.040910
    6       -8.040909
    7       -7.093746
    8       -7.093746
    9       -5.118598
   10       -5.118598
   11       -3.516196
   12       -3.516196
   13        1.900687
   14        1.900688
   15        3.632304
   16        3.632304
   17        5.932207
   18        5.932208
   19        6.847073
 
  0.2500000E+00  0.5000000E+00  0.0000000E+00  0.1736111E-02
    1      -15.658797
    2      -15.658797
    3      -11.098645
    4      -11.098645
    5       -8.017659
    6       -8.017659
    7       -7.050093
    8       -7.050092
    9       -5.132243
   10       -5.132243
   11       -3.570408
   12       -3.570408
   13        2.050139
   14        2.050139
   15        3.731731
   16        3.731732
   17        5.546862
   18        5.546863
   19        6.876738
 
  0.3333333E+00  0.5000000E+00  0.0000000E+00  0.1736111E-02
    1      -15.646230
    2      -15.646229
    3      -11.150415
    4      -11.150415
    5       -7.994543
    6       -7.994543
    7       -7.006994
    8       -7.006994
    9       -5.144846
   10       -5.144846
   11       -3.626415
   12       -3.626414
   13        2.217413
   14        2.217413
   15        3.874739
   16        3.874740
   17        5.126032
   18        5.126032
   19        6.958867
 
  0.4166667E+00  0.5000000E+00  0.0000000E+00  0.1736111E-02
    1      -15.636935
    2      -15.636935
    3      -11.187769
    4      -11.187769
    5       -7.977661
    6       -7.977661
    7       -6.975836
    8       -6.975836
    9       -5.153264
   10       -5.153264
   11       -3.668658
   12       -3.668657
   13        2.354211
   14        2.354211
   15        4.066971
   16        4.066972
   17        4.734317
   18        4.734317
   19        7.029336
 
  0.5000000E+00  0.5000000E+00  0.0000000E+00  0.8680556E-03
    1      -15.633510
    2      -15.633510
    3      -11.201330
    4      -11.201330
    5       -7.971488
    6       -7.971488
    7       -6.964513
    8       -6.964512
    9       -5.156156
   10       -5.156156
   11       -3.684401
   12       -3.684401
   13        2.407964
   14        2.407964
   15        4.241988
   16        4.241989
   17        4.486094
   18        4.486094
   19        7.056008
 
  0.0000000E+00  0.0000000E+00  0.1250000E+00  0.1736111E-02
    1      -15.785586
    2      -15.545480
    3      -10.991264
    4      -10.983442
    5       -8.137543
    6       -8.065298
    7       -7.277315
    8       -6.980047
    9       -5.322213
   10       -4.949906
   11       -3.651436
   12       -3.376009
   13        1.175745
   14        2.418546
   15        3.158398
   16        4.555838
   17        5.480371
   18        6.434412
   19        6.697221
 
  0.8333333E-01  0.0000000E+00  0.1250000E+00  0.1736111E-02
    1      -15.777888
    2      -15.547036
    3      -11.004138
    4      -10.998431
    5       -8.157240
    6       -8.070200
    7       -7.217202
    8       -6.977590
    9       -5.278240
   10       -4.973562
   11       -3.643323
   12       -3.435407
   13        1.199209
   14        2.438439
   15        3.097427
   16        4.507264
   17        5.530937
   18        6.185227
   19        6.947301
 
  0.1666667E+00  0.0000000E+00  0.1250000E+00  0.1736111E-02
    1      -15.757682
    2      -15.551219
    3      -11.043250
    4      -11.027183
    5       -8.164827
    6       -8.069529
    7       -7.137108
    8       -6.961971
    9       -5.246004
   10       -5.026704
   11       -3.630948
   12       -3.511269
   13        1.310659
   14        2.493871
   15        3.071778
   16        4.507571
   17        5.617818
   18        5.852443
   19        6.790251
 
  0.2500000E+00  0.0000000E+00  0.1250000E+00  0.1736111E-02
    1      -15.727559
    2      -15.559599
    3      -11.092282
    4      -11.067024
    5       -8.156215
    6       -8.064845
    7       -7.051942
    8       -6.945874
    9       -5.224632
   10       -5.103848
   11       -3.613093
   12       -3.588067
   13        1.494197
   14        2.562860
   15        3.099986
   16        4.558139
   17        5.499155
   18        5.722911
   19        6.476084
 
  0.3333333E+00  0.0000000E+00  0.1250000E+00  0.1736111E-02
    1      -15.691381
    2      -15.574061
    3      -11.140147
    4      -11.104922
    5       -8.132962
    6       -8.059079
    7       -6.974199
    8       -6.943563
    9       -5.208531
   10       -5.195026
   11       -3.651599
   12       -3.589065
   13        1.725983
   14        2.597443
   15        3.211136
   16        4.651788
   17        5.130768
   18        5.796285
   19        6.229728
 
  0.4166667E+00  0.0000000E+00  0.1250000E+00  0.1736111E-02
    1      -15.653706
    2      -15.595950
    3      -11.175769
    4      -11.129453
    5       -8.101221
    6       -8.055419
    7       -6.965181
    8       -6.912901
    9       -5.287952
   10       -5.190228
   11       -3.692965
   12       -3.557698
   13        1.974604
   14        2.549613
   15        3.423734
   16        4.673234
   17        4.880767
   18        5.724641
   19        6.067051
 
  0.5000000E+00  0.0000000E+00  0.1250000E+00  0.1736111E-02
    1      -15.625271
    2      -15.618891
    3      -11.190586
    4      -11.133775
    5       -8.069431
    6       -8.055958
    7       -7.013270
    8       -6.873490
    9       -5.369801
   10       -5.163633
   11       -3.710257
   12       -3.517822
   13        2.202706
   14        2.405385
   15        3.726738
   16        4.356057
   17        5.044634
   18        5.544255
   19        5.945810
 
 -0.4166667E+00  0.0000000E+00  0.1250000E+00  0.1736111E-02
    1      -15.660253
    2      -15.590242
    3      -11.180669
    4      -11.116984
    5       -8.060898
    6       -8.045455
    7       -7.082607
    8       -6.858497
    9       -5.428968
   10       -5.126228
   11       -3.708119
   12       -3.470160
   13        2.179969
   14        2.374899
   15        4.031996
   16        4.099057
   17        5.322042
   18        5.367443
   19        5.838921
 
 -0.3333333E+00  0.0000000E+00  0.1250000E+00  0.1736111E-02
    1      -15.697513
    2      -15.569373
    3      -11.147937
    4      -11.083933
    5       -8.069048
    6       -8.033847
    7       -7.161978
    8       -6.867392
    9       -5.457172
   10       -5.079712
   11       -3.694952
   12       -3.419258
   13        1.909348
   14        2.471368
   15        3.750131
   16        4.505826
   17        5.232456
   18        5.637669
   19        5.788565
 
 -0.2500000E+00  0.0000000E+00  0.1250000E+00  0.1736111E-02
    1      -15.732707
    2      -15.556111
    3      -11.100185
    4      -11.043739
    5       -8.079656
    6       -8.034518
    7       -7.236125
    8       -6.895241
    9       -5.452454
   10       -5.029792
   11       -3.679264
   12       -3.373967
   13        1.638063
   14        2.495581
   15        3.526272
   16        4.787451
   17        5.277257
   18        5.599523
   19        6.172300
 
 -0.1666667E+00  0.0000000E+00  0.1250000E+00  0.1736111E-02
    1      -15.761386
    2      -15.548948
    3      -11.049590
    4      -11.007408
    5       -8.093999
    6       -8.043547
    7       -7.287988
    8       -6.931720
    9       -5.420599
   10       -4.985124
   11       -3.666524
   12       -3.345713
   13        1.406932
   14        2.471582
   15        3.362854
   16        4.751468
   17        5.520039
   18        5.672426
   19        6.622966
 
 -0.8333333E-01  0.0000000E+00  0.1250000E+00  0.1736111E-02
    1      -15.779819
    2      -15.545925
    3      -11.009697
    4      -10.985067
    5       -8.113975
    6       -8.055437
    7       -7.303289
    8       -6.963608
    9       -5.372983
   10       -4.955562
   11       -3.657989
   12       -3.344825
   13        1.246733
   14        2.435188
   15        3.245660
   16        4.644518
   17        5.476259
   18        6.139800
   19        6.759216
 
  0.0000000E+00  0.8333333E-01  0.1250000E+00  0.3472222E-02
    1      -15.781670
    2      -15.549762
    3      -10.990914
    4      -10.983011
    5       -8.138537
    6       -8.067925
    7       -7.271804
    8       -6.984312
    9       -5.315853
   10       -4.956084
   11       -3.645228
   12       -3.378505
   13        1.193751
   14        2.397213
   15        3.167543
   16        4.522739
   17        5.482891
   18        6.479155