<?xml version="1.0" encoding="ISO-8859-1"?>
<modeling>
 <generator>
  <i name="program" type="string">vasp </i>
  <i name="version" type="string">5.3.5  </i>
  <i name="subversion" type="string">31Mar14 (build Nov 02 2014 15:17:37) complex                          parallel </i>
  <i name="platform" type="string">ion-Intel-MKL </i>
  <i name="date" type="string">2017 03 11 </i>
  <i name="time" type="string">20:06:34 </i>
 </generator>
 <incar>
  <i type="string" name="SYSTEM">ethylene</i>
  <i type="string" name="PREC">accurate</i>
  <i type="int" name="NELM">   200</i>
  <i type="int" name="IBRION">     2</i>
  <i name="EDIFF">      0.00000001</i>
  <i name="EDIFFG">      0.00100000</i>
  <i type="int" name="NSW">   200</i>
  <i type="int" name="ISIF">     2</i>
  <i name="ENCUT">    800.00000000</i>
  <i type="int" name="ISMEAR">    -5</i>
  <i type="logical" name="LWAVE"> F  </i>
  <i type="logical" name="LCHARG"> F  </i>
  <i type="int" name="NELM">   200</i>
  <i type="string" name="GGA">PE</i>
 </incar>
 <kpoints>
  <generation param="Gamma">
   <v type="int" name="divisions">      12       12        8 </v>
   <v name="usershift">      0.00000000       0.00000000       0.00000000 </v>
   <v name="genvec1">      0.08333333       0.00000000       0.00000000 </v>
   <v name="genvec2">      0.00000000       0.08333333       0.00000000 </v>
   <v name="genvec3">      0.00000000       0.00000000       0.12500000 </v>
   <v name="shift">      0.00000000       0.00000000       0.00000000 </v>
  </generation>
  <varray name="kpointlist" >
   <v>       0.00000000       0.00000000       0.00000000 </v>
   <v>       0.08333333       0.00000000       0.00000000 </v>
   <v>       0.16666667       0.00000000       0.00000000 </v>
   <v>       0.25000000       0.00000000       0.00000000 </v>
   <v>       0.33333333       0.00000000       0.00000000 </v>
   <v>       0.41666667       0.00000000       0.00000000 </v>
   <v>       0.50000000       0.00000000       0.00000000 </v>
   <v>       0.00000000       0.08333333       0.00000000 </v>
   <v>       0.08333333       0.08333333       0.00000000 </v>
   <v>       0.16666667       0.08333333       0.00000000 </v>
   <v>       0.25000000       0.08333333       0.00000000 </v>
   <v>       0.33333333       0.08333333       0.00000000 </v>
   <v>       0.41666667       0.08333333       0.00000000 </v>
   <v>       0.50000000       0.08333333       0.00000000 </v>
   <v>       0.00000000       0.16666667       0.00000000 </v>
   <v>       0.08333333       0.16666667       0.00000000 </v>
   <v>       0.16666667       0.16666667       0.00000000 </v>
   <v>       0.25000000       0.16666667       0.00000000 </v>
   <v>       0.33333333       0.16666667       0.00000000 </v>
   <v>       0.41666667       0.16666667       0.00000000 </v>
   <v>       0.50000000       0.16666667       0.00000000 </v>
   <v>       0.00000000       0.25000000       0.00000000 </v>
   <v>       0.08333333       0.25000000       0.00000000 </v>
   <v>       0.16666667       0.25000000       0.00000000 </v>
   <v>       0.25000000       0.25000000       0.00000000 </v>
   <v>       0.33333333       0.25000000       0.00000000 </v>
   <v>       0.41666667       0.25000000       0.00000000 </v>
   <v>       0.50000000       0.25000000       0.00000000 </v>
   <v>       0.00000000       0.33333333       0.00000000 </v>
   <v>       0.08333333       0.33333333       0.00000000 </v>
   <v>       0.16666667       0.33333333       0.00000000 </v>
   <v>       0.25000000       0.33333333       0.00000000 </v>
   <v>       0.33333333       0.33333333       0.00000000 </v>
   <v>       0.41666667       0.33333333       0.00000000 </v>
   <v>       0.50000000       0.33333333       0.00000000 </v>
   <v>       0.00000000       0.41666667       0.00000000 </v>
   <v>       0.08333333       0.41666667       0.00000000 </v>
   <v>       0.16666667       0.41666667       0.00000000 </v>
   <v>       0.25000000       0.41666667       0.00000000 </v>
   <v>       0.33333333       0.41666667       0.00000000 </v>
   <v>       0.41666667       0.41666667       0.00000000 </v>
   <v>       0.50000000       0.41666667       0.00000000 </v>
   <v>       0.00000000       0.50000000       0.00000000 </v>
   <v>       0.08333333       0.50000000       0.00000000 </v>
   <v>       0.16666667       0.50000000       0.00000000 </v>
   <v>       0.25000000       0.50000000       0.00000000 </v>
   <v>       0.33333333       0.50000000       0.00000000 </v>
   <v>       0.41666667       0.50000000       0.00000000 </v>
   <v>       0.50000000       0.50000000       0.00000000 </v>
   <v>       0.00000000       0.00000000       0.12500000 </v>
   <v>       0.08333333       0.00000000       0.12500000 </v>
   <v>       0.16666667       0.00000000       0.12500000 </v>
   <v>       0.25000000       0.00000000       0.12500000 </v>
   <v>       0.33333333       0.00000000       0.12500000 </v>
   <v>       0.41666667       0.00000000       0.12500000 </v>
   <v>       0.50000000       0.00000000       0.12500000 </v>
   <v>      -0.41666667       0.00000000       0.12500000 </v>
   <v>      -0.33333333       0.00000000       0.12500000 </v>
   <v>      -0.25000000       0.00000000       0.12500000 </v>
   <v>      -0.16666667       0.00000000       0.12500000 </v>
   <v>      -0.08333333       0.00000000       0.12500000 </v>
   <v>       0.00000000       0.08333333       0.12500000 </v>
   <v>       0.08333333       0.08333333       0.12500000 </v>
   <v>       0.16666667       0.08333333       0.12500000 </v>
   <v>       0.25000000       0.08333333       0.12500000 </v>
   <v>       0.33333333       0.08333333       0.12500000 </v>
   <v>       0.41666667       0.08333333       0.12500000 </v>
   <v>       0.50000000       0.08333333       0.12500000 </v>
   <v>      -0.41666667       0.08333333       0.12500000 </v>
   <v>      -0.33333333       0.08333333       0.12500000 </v>
   <v>      -0.25000000       0.08333333       0.12500000 </v>
   <v>      -0.16666667       0.08333333       0.12500000 </v>
   <v>      -0.08333333       0.08333333       0.12500000 </v>
   <v>       0.00000000       0.16666667       0.12500000 </v>
   <v>       0.08333333       0.16666667       0.12500000 </v>
   <v>       0.16666667       0.16666667       0.12500000 </v>
   <v>       0.25000000       0.16666667       0.12500000 </v>
   <v>       0.33333333       0.16666667       0.12500000 </v>
   <v>       0.41666667       0.16666667       0.12500000 </v>
   <v>       0.50000000       0.16666667       0.12500000 </v>
   <v>      -0.41666667       0.16666667       0.12500000 </v>
   <v>      -0.33333333       0.16666667       0.12500000 </v>
   <v>      -0.25000000       0.16666667       0.12500000 </v>
   <v>      -0.16666667       0.16666667       0.12500000 </v>
   <v>      -0.08333333       0.16666667       0.12500000 </v>
   <v>       0.00000000       0.25000000       0.12500000 </v>
   <v>       0.08333333       0.25000000       0.12500000 </v>
   <v>       0.16666667       0.25000000       0.12500000 </v>
   <v>       0.25000000       0.25000000       0.12500000 </v>
   <v>       0.33333333       0.25000000       0.12500000 </v>
   <v>       0.41666667       0.25000000       0.12500000 </v>
   <v>       0.50000000       0.25000000       0.12500000 </v>
   <v>      -0.41666667       0.25000000       0.12500000 </v>
   <v>      -0.33333333       0.25000000       0.12500000 </v>
   <v>      -0.25000000       0.25000000       0.12500000 </v>
   <v>      -0.16666667       0.25000000       0.12500000 </v>
   <v>      -0.08333333       0.25000000       0.12500000 </v>
   <v>       0.00000000       0.33333333       0.12500000 </v>
   <v>       0.08333333       0.33333333       0.12500000 </v>
   <v>       0.16666667       0.33333333       0.12500000 </v>
   <v>       0.25000000       0.33333333       0.12500000 </v>
   <v>       0.33333333       0.33333333       0.12500000 </v>
   <v>       0.41666667       0.33333333       0.12500000 </v>
   <v>       0.50000000       0.33333333       0.12500000 </v>
   <v>      -0.41666667       0.33333333       0.12500000 </v>
   <v>      -0.33333333       0.33333333       0.12500000 </v>
   <v>      -0.25000000       0.33333333       0.12500000 </v>
   <v>      -0.16666667       0.33333333       0.12500000 </v>
   <v>      -0.08333333       0.33333333       0.12500000 </v>
   <v>       0.00000000       0.41666667       0.12500000 </v>
   <v>       0.08333333       0.41666667       0.12500000 </v>
   <v>       0.16666667       0.41666667       0.12500000 </v>
   <v>       0.25000000       0.41666667       0.12500000 </v>
   <v>       0.33333333       0.41666667       0.12500000 </v>
   <v>       0.41666667       0.41666667       0.12500000 </v>
   <v>       0.50000000       0.41666667       0.12500000 </v>
   <v>      -0.41666667       0.41666667       0.12500000 </v>
   <v>      -0.33333333       0.41666667       0.12500000 </v>
   <v>      -0.25000000       0.41666667       0.12500000 </v>
   <v>      -0.16666667       0.41666667       0.12500000 </v>
   <v>      -0.08333333       0.41666667       0.12500000 </v>
   <v>       0.00000000       0.50000000       0.12500000 </v>
   <v>       0.08333333       0.50000000       0.12500000 </v>
   <v>       0.16666667       0.50000000       0.12500000 </v>
   <v>       0.25000000       0.50000000       0.12500000 </v>
   <v>       0.33333333       0.50000000       0.12500000 </v>
   <v>       0.41666667       0.50000000       0.12500000 </v>
   <v>       0.50000000       0.50000000       0.12500000 </v>
   <v>      -0.41666667       0.50000000       0.12500000 </v>
   <v>      -0.33333333       0.50000000       0.12500000 </v>
   <v>      -0.25000000       0.50000000       0.12500000 </v>
   <v>      -0.16666667       0.50000000       0.12500000 </v>
   <v>      -0.08333333       0.50000000       0.12500000 </v>
   <v>       0.00000000       0.00000000       0.25000000 </v>
   <v>       0.08333333       0.00000000       0.25000000 </v>
   <v>       0.16666667       0.00000000       0.25000000 </v>
   <v>       0.25000000       0.00000000       0.25000000 </v>
   <v>       0.33333333       0.00000000       0.25000000 </v>
   <v>       0.41666667       0.00000000       0.25000000 </v>
   <v>       0.50000000       0.00000000       0.25000000 </v>
   <v>      -0.41666667       0.00000000       0.25000000 </v>
   <v>      -0.33333333       0.00000000       0.25000000 </v>
   <v>      -0.25000000       0.00000000       0.25000000 </v>
   <v>      -0.16666667       0.00000000       0.25000000 </v>
   <v>      -0.08333333       0.00000000       0.25000000 </v>
   <v>       0.00000000       0.08333333       0.25000000 </v>
   <v>       0.08333333       0.08333333       0.25000000 </v>
   <v>       0.16666667       0.08333333       0.25000000 </v>
   <v>       0.25000000       0.08333333       0.25000000 </v>
   <v>       0.33333333       0.08333333       0.25000000 </v>
   <v>       0.41666667       0.08333333       0.25000000 </v>
   <v>       0.50000000       0.08333333       0.25000000 </v>
   <v>      -0.41666667       0.08333333       0.25000000 </v>
   <v>      -0.33333333       0.08333333       0.25000000 </v>
   <v>      -0.25000000       0.08333333       0.25000000 </v>
   <v>      -0.16666667       0.08333333       0.25000000 </v>
   <v>      -0.08333333       0.08333333       0.25000000 </v>
   <v>       0.00000000       0.16666667       0.25000000 </v>
   <v>       0.08333333       0.16666667       0.25000000 </v>
   <v>       0.16666667       0.16666667       0.25000000 </v>
   <v>       0.25000000       0.16666667       0.25000000 </v>
   <v>       0.33333333       0.16666667       0.25000000 </v>
   <v>       0.41666667       0.16666667       0.25000000 </v>
   <v>       0.50000000       0.16666667       0.25000000 </v>
   <v>      -0.41666667       0.16666667       0.25000000 </v>
   <v>      -0.33333333       0.16666667       0.25000000 </v>
   <v>      -0.25000000       0.16666667       0.25000000 </v>
   <v>      -0.16666667       0.16666667       0.25000000 </v>
   <v>      -0.08333333       0.16666667       0.25000000 </v>
   <v>       0.00000000       0.25000000       0.25000000 </v>
   <v>       0.08333333       0.25000000       0.25000000 </v>
   <v>       0.16666667       0.25000000       0.25000000 </v>
   <v>       0.25000000       0.25000000       0.25000000 </v>
   <v>       0.33333333       0.25000000       0.25000000 </v>
   <v>       0.41666667       0.25000000       0.25000000 </v>
   <v>       0.50000000       0.25000000       0.25000000 </v>
   <v>      -0.41666667       0.25000000       0.25000000 </v>
   <v>      -0.33333333       0.25000000       0.25000000 </v>
   <v>      -0.25000000       0.25000000       0.25000000 </v>
   <v>      -0.16666667       0.25000000       0.25000000 </v>
   <v>      -0.08333333       0.25000000       0.25000000 </v>
   <v>       0.00000000       0.33333333       0.25000000 </v>
   <v>       0.08333333       0.33333333       0.25000000 </v>
   <v>       0.16666667       0.33333333       0.25000000 </v>
   <v>       0.25000000       0.33333333       0.25000000 </v>
   <v>       0.33333333       0.33333333       0.25000000 </v>
   <v>       0.41666667       0.33333333       0.25000000 </v>
   <v>       0.50000000       0.33333333       0.25000000 </v>
   <v>      -0.41666667       0.33333333       0.25000000 </v>
   <v>      -0.33333333       0.33333333       0.25000000 </v>
   <v>      -0.25000000       0.33333333       0.25000000 </v>
   <v>      -0.16666667       0.33333333       0.25000000 </v>
   <v>      -0.08333333       0.33333333       0.25000000 </v>
   <v>       0.00000000       0.41666667       0.25000000 </v>
   <v>       0.08333333       0.41666667       0.25000000 </v>
   <v>       0.16666667       0.41666667       0.25000000 </v>
   <v>       0.25000000       0.41666667       0.25000000 </v>
   <v>       0.33333333       0.41666667       0.25000000 </v>
   <v>       0.41666667       0.41666667       0.25000000 </v>
   <v>       0.50000000       0.41666667       0.25000000 </v>
   <v>      -0.41666667       0.41666667       0.25000000 </v>
   <v>      -0.33333333       0.41666667       0.25000000 </v>
   <v>      -0.25000000       0.41666667       0.25000000 </v>
   <v>      -0.16666667       0.41666667       0.25000000 </v>
   <v>      -0.08333333       0.41666667       0.25000000 </v>
   <v>       0.00000000       0.50000000       0.25000000 </v>
   <v>       0.08333333       0.50000000       0.25000000 </v>
   <v>       0.16666667       0.50000000       0.25000000 </v>
   <v>       0.25000000       0.50000000       0.25000000 </v>
   <v>       0.33333333       0.50000000       0.25000000 </v>
   <v>       0.41666667       0.50000000       0.25000000 </v>
   <v>       0.50000000       0.50000000       0.25000000 </v>
   <v>      -0.41666667       0.50000000       0.25000000 </v>
   <v>      -0.33333333       0.50000000       0.25000000 </v>
   <v>      -0.25000000       0.50000000       0.25000000 </v>
   <v>      -0.16666667       0.50000000       0.25000000 </v>
   <v>      -0.08333333       0.50000000       0.25000000 </v>
   <v>       0.00000000       0.00000000       0.37500000 </v>
   <v>       0.08333333       0.00000000       0.37500000 </v>
   <v>       0.16666667       0.00000000       0.37500000 </v>
   <v>       0.25000000       0.00000000       0.37500000 </v>
   <v>       0.33333333       0.00000000       0.37500000 </v>
   <v>       0.41666667       0.00000000       0.37500000 </v>
   <v>       0.50000000       0.00000000       0.37500000 </v>
   <v>      -0.41666667       0.00000000       0.37500000 </v>
   <v>      -0.33333333       0.00000000       0.37500000 </v>
   <v>      -0.25000000       0.00000000       0.37500000 </v>
   <v>      -0.16666667       0.00000000       0.37500000 </v>
   <v>      -0.08333333       0.00000000       0.37500000 </v>
   <v>       0.00000000       0.08333333       0.37500000 </v>
   <v>       0.08333333       0.08333333       0.37500000 </v>
   <v>       0.16666667       0.08333333       0.37500000 </v>
   <v>       0.25000000       0.08333333       0.37500000 </v>
   <v>       0.33333333       0.08333333       0.37500000 </v>
   <v>       0.41666667       0.08333333       0.37500000 </v>
   <v>       0.50000000       0.08333333       0.37500000 </v>
   <v>      -0.41666667       0.08333333       0.37500000 </v>
   <v>      -0.33333333       0.08333333       0.37500000 </v>
   <v>      -0.25000000       0.08333333       0.37500000 </v>
   <v>      -0.16666667       0.08333333       0.37500000 </v>
   <v>      -0.08333333       0.08333333       0.37500000 </v>
   <v>       0.00000000       0.16666667       0.37500000 </v>
   <v>       0.08333333       0.16666667       0.37500000 </v>
   <v>       0.16666667       0.16666667       0.37500000 </v>
   <v>       0.25000000       0.16666667       0.37500000 </v>
   <v>       0.33333333       0.16666667       0.37500000 </v>
   <v>       0.41666667       0.16666667       0.37500000 </v>
   <v>       0.50000000       0.16666667       0.37500000 </v>
   <v>      -0.41666667       0.16666667       0.37500000 </v>
   <v>      -0.33333333       0.16666667       0.37500000 </v>
   <v>      -0.25000000       0.16666667       0.37500000 </v>
   <v>      -0.16666667       0.16666667       0.37500000 </v>
   <v>      -0.08333333       0.16666667       0.37500000 </v>
   <v>       0.00000000       0.25000000       0.37500000 </v>
   <v>       0.08333333       0.25000000       0.37500000 </v>
   <v>       0.16666667       0.25000000       0.37500000 </v>
   <v>       0.25000000       0.25000000       0.37500000 </v>
   <v>       0.33333333       0.25000000       0.37500000 </v>
   <v>       0.41666667       0.25000000       0.37500000 </v>
   <v>       0.50000000       0.25000000       0.37500000 </v>
   <v>      -0.41666667       0.25000000       0.37500000 </v>
   <v>      -0.33333333       0.25000000       0.37500000 </v>
   <v>      -0.25000000       0.25000000       0.37500000 </v>
   <v>      -0.16666667       0.25000000       0.37500000 </v>
   <v>      -0.08333333       0.25000000       0.37500000 </v>
   <v>       0.00000000       0.33333333       0.37500000 </v>
   <v>       0.08333333       0.33333333       0.37500000 </v>
   <v>       0.16666667       0.33333333       0.37500000 </v>
   <v>       0.25000000       0.33333333       0.37500000 </v>
   <v>       0.33333333       0.33333333       0.37500000 </v>
   <v>       0.41666667       0.33333333       0.37500000 </v>
   <v>       0.50000000       0.33333333       0.37500000 </v>
   <v>      -0.41666667       0.33333333       0.37500000 </v>
   <v>      -0.33333333       0.33333333       0.37500000 </v>
   <v>      -0.25000000       0.33333333       0.37500000 </v>
   <v>      -0.16666667       0.33333333       0.37500000 </v>
   <v>      -0.08333333       0.33333333       0.37500000 </v>
   <v>       0.00000000       0.41666667       0.37500000 </v>
   <v>       0.08333333       0.41666667       0.37500000 </v>
   <v>       0.16666667       0.41666667       0.37500000 </v>
   <v>       0.25000000       0.41666667       0.37500000 </v>
   <v>       0.33333333       0.41666667       0.37500000 </v>
   <v>       0.41666667       0.41666667       0.37500000 </v>
   <v>       0.50000000       0.41666667       0.37500000 </v>
   <v>      -0.41666667       0.41666667       0.37500000 </v>
   <v>      -0.33333333       0.41666667       0.37500000 </v>
   <v>      -0.25000000       0.41666667       0.37500000 </v>
   <v>      -0.16666667       0.41666667       0.37500000 </v>
   <v>      -0.08333333       0.41666667       0.37500000 </v>
   <v>       0.00000000       0.50000000       0.37500000 </v>
   <v>       0.08333333       0.50000000       0.37500000 </v>
   <v>       0.16666667       0.50000000       0.37500000 </v>
   <v>       0.25000000       0.50000000       0.37500000 </v>
   <v>       0.33333333       0.50000000       0.37500000 </v>
   <v>       0.41666667       0.50000000       0.37500000 </v>
   <v>       0.50000000       0.50000000       0.37500000 </v>
   <v>      -0.41666667       0.50000000       0.37500000 </v>
   <v>      -0.33333333       0.50000000       0.37500000 </v>
   <v>      -0.25000000       0.50000000       0.37500000 </v>
   <v>      -0.16666667       0.50000000       0.37500000 </v>
   <v>      -0.08333333       0.50000000       0.37500000 </v>
   <v>       0.00000000       0.00000000       0.50000000 </v>
   <v>       0.08333333       0.00000000       0.50000000 </v>
   <v>       0.16666667       0.00000000       0.50000000 </v>
   <v>       0.25000000       0.00000000       0.50000000 </v>
   <v>       0.33333333       0.00000000       0.50000000 </v>
   <v>       0.41666667       0.00000000       0.50000000 </v>
   <v>       0.50000000       0.00000000       0.50000000 </v>
   <v>       0.00000000       0.08333333       0.50000000 </v>
   <v>       0.08333333       0.08333333       0.50000000 </v>
   <v>       0.16666667       0.08333333       0.50000000 </v>
   <v>       0.25000000       0.08333333       0.50000000 </v>
   <v>       0.33333333       0.08333333       0.50000000 </v>
   <v>       0.41666667       0.08333333       0.50000000 </v>
   <v>       0.50000000       0.08333333       0.50000000 </v>
   <v>       0.00000000       0.16666667       0.50000000 </v>
   <v>       0.08333333       0.16666667       0.50000000 </v>
   <v>       0.16666667       0.16666667       0.50000000 </v>
   <v>       0.25000000       0.16666667       0.50000000 </v>
   <v>       0.33333333       0.16666667       0.50000000 </v>
   <v>       0.41666667       0.16666667       0.50000000 </v>
   <v>       0.50000000       0.16666667       0.50000000 </v>
   <v>       0.00000000       0.25000000       0.50000000 </v>
   <v>       0.08333333       0.25000000       0.50000000 </v>
   <v>       0.16666667       0.25000000       0.50000000 </v>
   <v>       0.25000000       0.25000000       0.50000000 </v>
   <v>       0.33333333       0.25000000       0.50000000 </v>
   <v>       0.41666667       0.25000000       0.50000000 </v>
   <v>       0.50000000       0.25000000       0.50000000 </v>
   <v>       0.00000000       0.33333333       0.50000000 </v>
   <v>       0.08333333       0.33333333       0.50000000 </v>
   <v>       0.16666667       0.33333333       0.50000000 </v>
   <v>       0.25000000       0.33333333       0.50000000 </v>
   <v>       0.33333333       0.33333333       0.50000000 </v>
   <v>       0.41666667       0.33333333       0.50000000 </v>
   <v>       0.50000000       0.33333333       0.50000000 </v>
   <v>       0.00000000       0.41666667       0.50000000 </v>
   <v>       0.08333333       0.41666667       0.50000000 </v>
   <v>       0.16666667       0.41666667       0.50000000 </v>
   <v>       0.25000000       0.41666667       0.50000000 </v>
   <v>       0.33333333       0.41666667       0.50000000 </v>
   <v>       0.41666667       0.41666667       0.50000000 </v>
   <v>       0.50000000       0.41666667       0.50000000 </v>
   <v>       0.00000000       0.50000000       0.50000000 </v>
   <v>       0.08333333       0.50000000       0.50000000 </v>
   <v>       0.16666667       0.50000000       0.50000000 </v>
   <v>       0.25000000       0.50000000       0.50000000 </v>
   <v>       0.33333333       0.50000000       0.50000000 </v>
   <v>       0.41666667       0.50000000       0.50000000 </v>
   <v>       0.50000000       0.50000000       0.50000000 </v>
  </varray>
  <varray name="weights" >
   <v>       0.00086806 </v>
   <v>       0.00173611 </v>
   <v>       0.00173611 </v>
   <v>       0.00173611 </v>
   <v>       0.00173611 </v>
   <v>       0.00173611 </v>
   <v>       0.00086806 </v>
   <v>       0.00173611 </v>
   <v>       0.00347222 </v>
   <v>       0.00347222 </v>
   <v>       0.00347222 </v>
   <v>       0.00347222 </v>
   <v>       0.00347222 </v>
   <v>       0.00173611 </v>
   <v>       0.00173611 </v>
   <v>       0.00347222 </v>
   <v>       0.00347222 </v>
   <v>       0.00347222 </v>
   <v>       0.00347222 </v>
   <v>       0.00347222 </v>
   <v>       0.00173611 </v>
   <v>       0.00173611 </v>
   <v>       0.00347222 </v>
   <v>       0.00347222 </v>
   <v>       0.00347222 </v>
   <v>       0.00347222 </v>
   <v>       0.00347222 </v>
   <v>       0.00173611 </v>
   <v>       0.00173611 </v>
   <v>       0.00347222 </v>
   <v>       0.00347222 </v>
   <v>       0.00347222 </v>
   <v>       0.00347222 </v>
   <v>       0.00347222 </v>
   <v>       0.00173611 </v>
   <v>       0.00173611 </v>
   <v>       0.00347222 </v>
   <v>       0.00347222 </v>
   <v>       0.00347222 </v>
   <v>       0.00347222 </v>
   <v>       0.00347222 </v>
   <v>       0.00173611 </v>
   <v>       0.00086806 </v>
   <v>       0.00173611 </v>
   <v>       0.00173611 </v>
   <v>       0.00173611 </v>
   <v>       0.00173611 </v>
   <v>       0.00173611 </v>
   <v>       0.00086806 </v>
   <v>       0.00173611 </v>
   <v>       0.00173611 </v>
   <v>       0.00173611 </v>
   <v>       0.00173611 </v>
   <v>       0.00173611 </v>
   <v>       0.00173611 </v>
   <v>       0.00173611 </v>
   <v>       0.00173611 </v>
   <v>       0.00173611 </v>
   <v>       0.00173611 </v>
   <v>       0.00173611 </v>
   <v>       0.00173611 </v>
   <v>       0.00347222 </v>
   <v>       0.00347222 </v>
   <v>       0.00347222 </v>
   <v>       0.00347222 </v>
   <v>       0.00347222 </v>
   <v>       0.00347222 </v>
   <v>       0.00347222 </v>
   <v>       0.00347222 </v>
   <v>       0.00347222 </v>
   <v>       0.00347222 </v>
   <v>       0.00347222 </v>
   <v>       0.00347222 </v>
   <v>       0.00347222 </v>
   <v>       0.00347222 </v>
   <v>       0.00347222 </v>
   <v>       0.00347222 </v>
   <v>       0.00347222 </v>
   <v>       0.00347222 </v>
   <v>       0.00347222 </v>
   <v>       0.00347222 </v>
   <v>       0.00347222 </v>
   <v>       0.00347222 </v>
   <v>       0.00347222 </v>
   <v>       0.00347222 </v>
   <v>       0.00347222 </v>
   <v>       0.00347222 </v>
   <v>       0.00347222 </v>
   <v>       0.00347222 </v>
   <v>       0.00347222 </v>
   <v>       0.00347222 </v>
   <v>       0.00347222 </v>
   <v>       0.00347222 </v>
   <v>       0.00347222 </v>
   <v>       0.00347222 </v>
   <v>       0.00347222 </v>
   <v>       0.00347222 </v>
   <v>       0.00347222 </v>
   <v>       0.00347222 </v>
   <v>       0.00347222 </v>
   <v>       0.00347222 </v>
   <v>       0.00347222 </v>
   <v>       0.00347222 </v>
   <v>       0.00347222 </v>
   <v>       0.00347222 </v>
   <v>       0.00347222 </v>
   <v>       0.00347222 </v>
   <v>       0.00347222 </v>
   <v>       0.00347222 </v>
   <v>       0.00347222 </v>
   <v>       0.00347222 </v>
   <v>       0.00347222 </v>
   <v>       0.00347222 </v>
   <v>       0.00347222 </v>
   <v>       0.00347222 </v>
   <v>       0.00347222 </v>
   <v>       0.00347222 </v>
   <v>       0.00347222 </v>
   <v>       0.00347222 </v>
   <v>       0.00347222 </v>
   <v>       0.00347222 </v>
   <v>       0.00173611 </v>
   <v>       0.00173611 </v>
   <v>       0.00173611 </v>
   <v>       0.00173611 </v>
   <v>       0.00173611 </v>
   <v>       0.00173611 </v>
   <v>       0.00173611 </v>
   <v>       0.00173611 </v>
   <v>       0.00173611 </v>
   <v>       0.00173611 </v>
   <v>       0.00173611 </v>
   <v>       0.00173611 </v>
   <v>       0.00173611 </v>
   <v>       0.00173611 </v>
   <v>       0.00173611 </v>
   <v>       0.00173611 </v>
   <v>       0.00173611 </v>
   <v>       0.00173611 </v>
   <v>       0.00173611 </v>
   <v>       0.00173611 </v>
   <v>       0.00173611 </v>
   <v>       0.00173611 </v>
   <v>       0.00173611 </v>
   <v>       0.00173611 </v>
   <v>       0.00347222 </v>
   <v>       0.00347222 </v>
   <v>       0.00347222 </v>
   <v>       0.00347222 </v>
   <v>       0.00347222 </v>
   <v>       0.00347222 </v>
   <v>       0.00347222 </v>
   <v>       0.00347222 </v>
   <v>       0.00347222 </v>
   <v>       0.00347222 </v>
   <v>       0.00347222 </v>
   <v>       0.00347222 </v>
   <v>       0.00347222 </v>
   <v>       0.00347222 </v>
   <v>       0.00347222 </v>
   <v>       0.00347222 </v>
   <v>       0.00347222 </v>
   <v>       0.00347222 </v>
   <v>       0.00347222 </v>
   <v>       0.00347222 </v>
   <v>       0.00347222 </v>
   <v>       0.00347222 </v>
   <v>       0.00347222 </v>
   <v>       0.00347222 </v>
   <v>       0.00347222 </v>
   <v>       0.00347222 </v>
   <v>       0.00347222 </v>
   <v>       0.00347222 </v>
   <v>       0.00347222 </v>
   <v>       0.00347222 </v>
   <v>       0.00347222 </v>
   <v>       0.00347222 </v>
   <v>       0.00347222 </v>
   <v>       0.00347222 </v>
   <v>       0.00347222 </v>
   <v>       0.00347222 </v>
   <v>       0.00347222 </v>
   <v>       0.00347222 </v>
   <v>       0.00347222 </v>
   <v>       0.00347222 </v>
   <v>       0.00347222 </v>
   <v>       0.00347222 </v>
   <v>       0.00347222 </v>
   <v>       0.00347222 </v>
   <v>       0.00347222 </v>
   <v>       0.00347222 </v>
   <v>       0.00347222 </v>
   <v>       0.00347222 </v>
   <v>       0.00347222 </v>
   <v>       0.00347222 </v>
   <v>       0.00347222 </v>
   <v>       0.00347222 </v>
   <v>       0.00347222 </v>
   <v>       0.00347222 </v>
   <v>       0.00347222 </v>
   <v>       0.00347222 </v>
   <v>       0.00347222 </v>
   <v>       0.00347222 </v>
   <v>       0.00347222 </v>
   <v>       0.00347222 </v>
   <v>       0.00173611 </v>
   <v>       0.00173611 </v>
   <v>       0.00173611 </v>
   <v>       0.00173611 </v>
   <v>       0.00173611 </v>
   <v>       0.00173611 </v>
   <v>       0.00173611 </v>
   <v>       0.00173611 </v>
   <v>       0.00173611 </v>
   <v>       0.00173611 </v>
   <v>       0.00173611 </v>
   <v>       0.00173611 </v>
   <v>       0.00173611 </v>
   <v>       0.00173611 </v>
   <v>       0.00173611 </v>
   <v>       0.00173611 </v>
   <v>       0.00173611 </v>
   <v>       0.00173611 </v>
   <v>       0.00173611 </v>
   <v>       0.00173611 </v>
   <v>       0.00173611 </v>
   <v>       0.00173611 </v>
   <v>       0.00173611 </v>
   <v>       0.00173611 </v>
   <v>       0.00347222 </v>
   <v>       0.00347222 </v>
   <v>       0.00347222 </v>
   <v>       0.00347222 </v>
   <v>       0.00347222 </v>
   <v>       0.00347222 </v>
   <v>       0.00347222 </v>
   <v>       0.00347222 </v>
   <v>       0.00347222 </v>
   <v>       0.00347222 </v>
   <v>       0.00347222 </v>
   <v>       0.00347222 </v>
   <v>       0.00347222 </v>
   <v>       0.00347222 </v>
   <v>       0.00347222 </v>
   <v>       0.00347222 </v>
   <v>       0.00347222 </v>
   <v>       0.00347222 </v>
   <v>       0.00347222 </v>
   <v>       0.00347222 </v>
   <v>       0.00347222 </v>
   <v>       0.00347222 </v>
   <v>       0.00347222 </v>
   <v>       0.00347222 </v>
   <v>       0.00347222 </v>
   <v>       0.00347222 </v>
   <v>       0.00347222 </v>
   <v>       0.00347222 </v>
   <v>       0.00347222 </v>
   <v>       0.00347222 </v>
   <v>       0.00347222 </v>
   <v>       0.00347222 </v>
   <v>       0.00347222 </v>
   <v>       0.00347222 </v>
   <v>       0.00347222 </v>
   <v>       0.00347222 </v>
   <v>       0.00347222 </v>
   <v>       0.00347222 </v>
   <v>       0.00347222 </v>
   <v>       0.00347222 </v>
   <v>       0.00347222 </v>
   <v>       0.00347222 </v>
   <v>       0.00347222 </v>
   <v>       0.00347222 </v>
   <v>       0.00347222 </v>
   <v>       0.00347222 </v>
   <v>       0.00347222 </v>
   <v>       0.00347222 </v>
   <v>       0.00347222 </v>
   <v>       0.00347222 </v>
   <v>       0.00347222 </v>
   <v>       0.00347222 </v>
   <v>       0.00347222 </v>
   <v>       0.00347222 </v>
   <v>       0.00347222 </v>
   <v>       0.00347222 </v>
   <v>       0.00347222 </v>
   <v>       0.00347222 </v>
   <v>       0.00347222 </v>
   <v>       0.00347222 </v>
   <v>       0.00173611 </v>
   <v>       0.00173611 </v>
   <v>       0.00173611 </v>
   <v>       0.00173611 </v>
   <v>       0.00173611 </v>
   <v>       0.00173611 </v>
   <v>       0.00173611 </v>
   <v>       0.00173611 </v>
   <v>       0.00173611 </v>
   <v>       0.00173611 </v>
   <v>       0.00173611 </v>
   <v>       0.00173611 </v>
   <v>       0.00086806 </v>
   <v>       0.00173611 </v>
   <v>       0.00173611 </v>
   <v>       0.00173611 </v>
   <v>       0.00173611 </v>
   <v>       0.00173611 </v>
   <v>       0.00086806 </v>
   <v>       0.00173611 </v>
   <v>       0.00347222 </v>
   <v>       0.00347222 </v>
   <v>       0.00347222 </v>
   <v>       0.00347222 </v>
   <v>       0.00347222 </v>
   <v>       0.00173611 </v>
   <v>       0.00173611 </v>
   <v>       0.00347222 </v>
   <v>       0.00347222 </v>
   <v>       0.00347222 </v>
   <v>       0.00347222 </v>
   <v>       0.00347222 </v>
   <v>       0.00173611 </v>
   <v>       0.00173611 </v>
   <v>       0.00347222 </v>
   <v>       0.00347222 </v>
   <v>       0.00347222 </v>
   <v>       0.00347222 </v>
   <v>       0.00347222 </v>
   <v>       0.00173611 </v>
   <v>       0.00173611 </v>
   <v>       0.00347222 </v>
   <v>       0.00347222 </v>
   <v>       0.00347222 </v>
   <v>       0.00347222 </v>
   <v>       0.00347222 </v>
   <v>       0.00173611 </v>
   <v>       0.00173611 </v>
   <v>       0.00347222 </v>
   <v>       0.00347222 </v>
   <v>       0.00347222 </v>
   <v>       0.00347222 </v>
   <v>       0.00347222 </v>
   <v>       0.00173611 </v>
   <v>       0.00086806 </v>
   <v>       0.00173611 </v>
   <v>       0.00173611 </v>
   <v>       0.00173611 </v>
   <v>       0.00173611 </v>
   <v>       0.00173611 </v>
   <v>       0.00086806 </v>
  </varray>
  <varray name="tetrahedronlist"  type="int" >
   <v type="int" >        2        1        2        9       50 </v>
   <v type="int" >        2        1        8        9       50 </v>
   <v type="int" >        2        8        9       50       62 </v>
   <v type="int" >        2        2        9       50       51 </v>
   <v type="int" >        2        9       50       51       63 </v>
   <v type="int" >        2        9       50       62       63 </v>
   <v type="int" >        2        2        3       10       51 </v>
   <v type="int" >        2        2        9       10       51 </v>
   <v type="int" >        2        9       10       51       63 </v>
   <v type="int" >        2        3       10       51       52 </v>
   <v type="int" >        2       10       51       52       64 </v>
   <v type="int" >        2       10       51       63       64 </v>
   <v type="int" >        2        3        4       11       52 </v>
   <v type="int" >        2        3       10       11       52 </v>
   <v type="int" >        2       10       11       52       64 </v>
   <v type="int" >        2        4       11       52       53 </v>
   <v type="int" >        2       11       52       53       65 </v>
   <v type="int" >        2       11       52       64       65 </v>
   <v type="int" >        2        4        5       12       53 </v>
   <v type="int" >        2        4       11       12       53 </v>
   <v type="int" >        2       11       12       53       65 </v>
   <v type="int" >        2        5       12       53       54 </v>
   <v type="int" >        2       12       53       54       66 </v>
   <v type="int" >        2       12       53       65       66 </v>
   <v type="int" >        2        5        6       13       54 </v>
   <v type="int" >        2        5       12       13       54 </v>
   <v type="int" >        2       12       13       54       66 </v>
   <v type="int" >        2        6       13       54       55 </v>
   <v type="int" >        2       13       54       55       67 </v>
   <v type="int" >        2       13       54       66       67 </v>
   <v type="int" >        2        6        7       14       55 </v>
   <v type="int" >        2        6       13       14       55 </v>
   <v type="int" >        2       13       14       55       67 </v>
   <v type="int" >        2        7       14       55       56 </v>
   <v type="int" >        2       14       55       56       68 </v>
   <v type="int" >        2       14       55       67       68 </v>
   <v type="int" >        2        6        7       13       56 </v>
   <v type="int" >        2        7       13       14       56 </v>
   <v type="int" >        2       13       14       56       68 </v>
   <v type="int" >        2        6       13       56       57 </v>
   <v type="int" >        2       13       56       57       69 </v>
   <v type="int" >        2       13       56       68       69 </v>
   <v type="int" >        2        5        6       12       57 </v>
   <v type="int" >        2        6       12       13       57 </v>
   <v type="int" >        2       12       13       57       69 </v>
   <v type="int" >        2        5       12       57       58 </v>
   <v type="int" >        2       12       57       58       70 </v>
   <v type="int" >        2       12       57       69       70 </v>
   <v type="int" >        2        4        5       11       58 </v>
   <v type="int" >        2        5       11       12       58 </v>
   <v type="int" >        2       11       12       58       70 </v>
   <v type="int" >        2        4       11       58       59 </v>
   <v type="int" >        2       11       58       59       71 </v>
   <v type="int" >        2       11       58       70       71 </v>
   <v type="int" >        2        3        4       10       59 </v>
   <v type="int" >        2        4       10       11       59 </v>
   <v type="int" >        2       10       11       59       71 </v>
   <v type="int" >        2        3       10       59       60 </v>
   <v type="int" >        2       10       59       60       72 </v>
   <v type="int" >        2       10       59       71       72 </v>
   <v type="int" >        2        2        3        9       60 </v>
   <v type="int" >        2        3        9       10       60 </v>
   <v type="int" >        2        9       10       60       72 </v>
   <v type="int" >        2        2        9       60       61 </v>
   <v type="int" >        2        9       60       61       73 </v>
   <v type="int" >        2        9       60       72       73 </v>
   <v type="int" >        2        1        2        8       61 </v>
   <v type="int" >        2        2        8        9       61 </v>
   <v type="int" >        2        8        9       61       73 </v>
   <v type="int" >        2        1        8       50       61 </v>
   <v type="int" >        2        8       50       61       62 </v>
   <v type="int" >        2        8       61       62       73 </v>
   <v type="int" >        2        8        9       16       62 </v>
   <v type="int" >        2        8       15       16       62 </v>
   <v type="int" >        2       15       16       62       74 </v>
   <v type="int" >        2        9       16       62       63 </v>
   <v type="int" >        2       16       62       63       75 </v>
   <v type="int" >        2       16       62       74       75 </v>
   <v type="int" >        2        9       10       17       63 </v>
   <v type="int" >        2        9       16       17       63 </v>
   <v type="int" >        2       16       17       63       75 </v>
   <v type="int" >        2       10       17       63       64 </v>
   <v type="int" >        2       17       63       64       76 </v>
   <v type="int" >        2       17       63       75       76 </v>
   <v type="int" >        2       10       11       18       64 </v>
   <v type="int" >        2       10       17       18       64 </v>
   <v type="int" >        2       17       18       64       76 </v>
   <v type="int" >        2       11       18       64       65 </v>
   <v type="int" >        2       18       64       65       77 </v>
   <v type="int" >        2       18       64       76       77 </v>
   <v type="int" >        2       11       12       19       65 </v>
   <v type="int" >        2       11       18       19       65 </v>
   <v type="int" >        2       18       19       65       77 </v>
   <v type="int" >        2       12       19       65       66 </v>
   <v type="int" >        2       19       65       66       78 </v>
   <v type="int" >        2       19       65       77       78 </v>
   <v type="int" >        2       12       13       20       66 </v>
   <v type="int" >        2       12       19       20       66 </v>
   <v type="int" >        2       19       20       66       78 </v>
   <v type="int" >        2       13       20       66       67 </v>
   <v type="int" >        2       20       66       67       79 </v>
   <v type="int" >        2       20       66       78       79 </v>
   <v type="int" >        2       13       14       21       67 </v>
   <v type="int" >        2       13       20       21       67 </v>
   <v type="int" >        2       20       21       67       79 </v>
   <v type="int" >        2       14       21       67       68 </v>
   <v type="int" >        2       21       67       68       80 </v>
   <v type="int" >        2       21       67       79       80 </v>
   <v type="int" >        2       13       14       20       68 </v>
   <v type="int" >        2       14       20       21       68 </v>
   <v type="int" >        2       20       21       68       80 </v>
   <v type="int" >        2       13       20       68       69 </v>
   <v type="int" >        2       20       68       69       81 </v>
   <v type="int" >        2       20       68       80       81 </v>
   <v type="int" >        2       12       13       19       69 </v>
   <v type="int" >        2       13       19       20       69 </v>
   <v type="int" >        2       19       20       69       81 </v>
   <v type="int" >        2       12       19       69       70 </v>
   <v type="int" >        2       19       69       70       82 </v>
   <v type="int" >        2       19       69       81       82 </v>
   <v type="int" >        2       11       12       18       70 </v>
   <v type="int" >        2       12       18       19       70 </v>
   <v type="int" >        2       18       19       70       82 </v>
   <v type="int" >        2       11       18       70       71 </v>
   <v type="int" >        2       18       70       71       83 </v>
   <v type="int" >        2       18       70       82       83 </v>
   <v type="int" >        2       10       11       17       71 </v>
   <v type="int" >        2       11       17       18       71 </v>
   <v type="int" >        2       17       18       71       83 </v>
   <v type="int" >        2       10       17       71       72 </v>
   <v type="int" >        2       17       71       72       84 </v>
   <v type="int" >        2       17       71       83       84 </v>
   <v type="int" >        2        9       10       16       72 </v>
   <v type="int" >        2       10       16       17       72 </v>
   <v type="int" >        2       16       17       72       84 </v>
   <v type="int" >        2        9       16       72       73 </v>
   <v type="int" >        2       16       72       73       85 </v>
   <v type="int" >        2       16       72       84       85 </v>
   <v type="int" >        2        8        9       15       73 </v>
   <v type="int" >        2        9       15       16       73 </v>
   <v type="int" >        2       15       16       73       85 </v>
   <v type="int" >        2        8       15       62       73 </v>
   <v type="int" >        2       15       62       73       74 </v>
   <v type="int" >        2       15       73       74       85 </v>
   <v type="int" >        2       15       16       23       74 </v>
   <v type="int" >        2       15       22       23       74 </v>
   <v type="int" >        2       22       23       74       86 </v>
   <v type="int" >        2       16       23       74       75 </v>
   <v type="int" >        2       23       74       75       87 </v>
   <v type="int" >        2       23       74       86       87 </v>
   <v type="int" >        2       16       17       24       75 </v>
   <v type="int" >        2       16       23       24       75 </v>
   <v type="int" >        2       23       24       75       87 </v>
   <v type="int" >        2       17       24       75       76 </v>
   <v type="int" >        2       24       75       76       88 </v>
   <v type="int" >        2       24       75       87       88 </v>
   <v type="int" >        2       17       18       25       76 </v>
   <v type="int" >        2       17       24       25       76 </v>
   <v type="int" >        2       24       25       76       88 </v>
   <v type="int" >        2       18       25       76       77 </v>
   <v type="int" >        2       25       76       77       89 </v>
   <v type="int" >        2       25       76       88       89 </v>
   <v type="int" >        2       18       19       26       77 </v>
   <v type="int" >        2       18       25       26       77 </v>
   <v type="int" >        2       25       26       77       89 </v>
   <v type="int" >        2       19       26       77       78 </v>
   <v type="int" >        2       26       77       78       90 </v>
   <v type="int" >        2       26       77       89       90 </v>
   <v type="int" >        2       19       20       27       78 </v>
   <v type="int" >        2       19       26       27       78 </v>
   <v type="int" >        2       26       27       78       90 </v>
   <v type="int" >        2       20       27       78       79 </v>
   <v type="int" >        2       27       78       79       91 </v>
   <v type="int" >        2       27       78       90       91 </v>
   <v type="int" >        2       20       21       28       79 </v>
   <v type="int" >        2       20       27       28       79 </v>
   <v type="int" >        2       27       28       79       91 </v>
   <v type="int" >        2       21       28       79       80 </v>
   <v type="int" >        2       28       79       80       92 </v>
   <v type="int" >        2       28       79       91       92 </v>
   <v type="int" >        2       20       21       27       80 </v>
   <v type="int" >        2       21       27       28       80 </v>
   <v type="int" >        2       27       28       80       92 </v>
   <v type="int" >        2       20       27       80       81 </v>
   <v type="int" >        2       27       80       81       93 </v>
   <v type="int" >        2       27       80       92       93 </v>
   <v type="int" >        2       19       20       26       81 </v>
   <v type="int" >        2       20       26       27       81 </v>
   <v type="int" >        2       26       27       81       93 </v>
   <v type="int" >        2       19       26       81       82 </v>
   <v type="int" >        2       26       81       82       94 </v>
   <v type="int" >        2       26       81       93       94 </v>
   <v type="int" >        2       18       19       25       82 </v>
   <v type="int" >        2       19       25       26       82 </v>
   <v type="int" >        2       25       26       82       94 </v>
   <v type="int" >        2       18       25       82       83 </v>
   <v type="int" >        2       25       82       83       95 </v>
   <v type="int" >        2       25       82       94       95 </v>
   <v type="int" >        2       17       18       24       83 </v>
   <v type="int" >        2       18       24       25       83 </v>
   <v type="int" >        2       24       25       83       95 </v>
   <v type="int" >        2       17       24       83       84 </v>
   <v type="int" >        2       24       83       84       96 </v>
   <v type="int" >        2       24       83       95       96 </v>
   <v type="int" >        2       16       17       23       84 </v>
   <v type="int" >        2       17       23       24       84 </v>
   <v type="int" >        2       23       24       84       96 </v>
   <v type="int" >        2       16       23       84       85 </v>
   <v type="int" >        2       23       84       85       97 </v>
   <v type="int" >        2       23       84       96       97 </v>
   <v type="int" >        2       15       16       22       85 </v>
   <v type="int" >        2       16       22       23       85 </v>
   <v type="int" >        2       22       23       85       97 </v>
   <v type="int" >        2       15       22       74       85 </v>
   <v type="int" >        2       22       74       85       86 </v>
   <v type="int" >        2       22       85       86       97 </v>
   <v type="int" >        2       22       23       30       86 </v>
   <v type="int" >        2       22       29       30       86 </v>
   <v type="int" >        2       29       30       86       98 </v>
   <v type="int" >        2       23       30       86       87 </v>
   <v type="int" >        2       30       86       87       99 </v>
   <v type="int" >        2       30       86       98       99 </v>
   <v type="int" >        2       23       24       31       87 </v>
   <v type="int" >        2       23       30       31       87 </v>
   <v type="int" >        2       30       31       87       99 </v>
   <v type="int" >        2       24       31       87       88 </v>
   <v type="int" >        2       31       87       88      100 </v>
   <v type="int" >        2       31       87       99      100 </v>
   <v type="int" >        2       24       25       32       88 </v>
   <v type="int" >        2       24       31       32       88 </v>
   <v type="int" >        2       31       32       88      100 </v>
   <v type="int" >        2       25       32       88       89 </v>
   <v type="int" >        2       32       88       89      101 </v>
   <v type="int" >        2       32       88      100      101 </v>
   <v type="int" >        2       25       26       33       89 </v>
   <v type="int" >        2       25       32       33       89 </v>
   <v type="int" >        2       32       33       89      101 </v>
   <v type="int" >        2       26       33       89       90 </v>
   <v type="int" >        2       33       89       90      102 </v>
   <v type="int" >        2       33       89      101      102 </v>
   <v type="int" >        2       26       27       34       90 </v>
   <v type="int" >        2       26       33       34       90 </v>
   <v type="int" >        2       33       34       90      102 </v>
   <v type="int" >        2       27       34       90       91 </v>
   <v type="int" >        2       34       90       91      103 </v>
   <v type="int" >        2       34       90      102      103 </v>
   <v type="int" >        2       27       28       35       91 </v>
   <v type="int" >        2       27       34       35       91 </v>
   <v type="int" >        2       34       35       91      103 </v>
   <v type="int" >        2       28       35       91       92 </v>
   <v type="int" >        2       35       91       92      104 </v>
   <v type="int" >        2       35       91      103      104 </v>
   <v type="int" >        2       27       28       34       92 </v>
   <v type="int" >        2       28       34       35       92 </v>
   <v type="int" >        2       34       35       92      104 </v>
   <v type="int" >        2       27       34       92       93 </v>
   <v type="int" >        2       34       92       93      105 </v>
   <v type="int" >        2       34       92      104      105 </v>
   <v type="int" >        2       26       27       33       93 </v>
   <v type="int" >        2       27       33       34       93 </v>
   <v type="int" >        2       33       34       93      105 </v>
   <v type="int" >        2       26       33       93       94 </v>
   <v type="int" >        2       33       93       94      106 </v>
   <v type="int" >        2       33       93      105      106 </v>
   <v type="int" >        2       25       26       32       94 </v>
   <v type="int" >        2       26       32       33       94 </v>
   <v type="int" >        2       32       33       94      106 </v>
   <v type="int" >        2       25       32       94       95 </v>
   <v type="int" >        2       32       94       95      107 </v>
   <v type="int" >        2       32       94      106      107 </v>
   <v type="int" >        2       24       25       31       95 </v>
   <v type="int" >        2       25       31       32       95 </v>
   <v type="int" >        2       31       32       95      107 </v>
   <v type="int" >        2       24       31       95       96 </v>
   <v type="int" >        2       31       95       96      108 </v>
   <v type="int" >        2       31       95      107      108 </v>
   <v type="int" >        2       23       24       30       96 </v>
   <v type="int" >        2       24       30       31       96 </v>
   <v type="int" >        2       30       31       96      108 </v>
   <v type="int" >        2       23       30       96       97 </v>
   <v type="int" >        2       30       96       97      109 </v>
   <v type="int" >        2       30       96      108      109 </v>
   <v type="int" >        2       22       23       29       97 </v>
   <v type="int" >        2       23       29       30       97 </v>
   <v type="int" >        2       29       30       97      109 </v>
   <v type="int" >        2       22       29       86       97 </v>
   <v type="int" >        2       29       86       97       98 </v>
   <v type="int" >        2       29       97       98      109 </v>
   <v type="int" >        2       29       30       37       98 </v>
   <v type="int" >        2       29       36       37       98 </v>
   <v type="int" >        2       36       37       98      110 </v>
   <v type="int" >        2       30       37       98       99 </v>
   <v type="int" >        2       37       98       99      111 </v>
   <v type="int" >        2       37       98      110      111 </v>
   <v type="int" >        2       30       31       38       99 </v>
   <v type="int" >        2       30       37       38       99 </v>
   <v type="int" >        2       37       38       99      111 </v>
   <v type="int" >        2       31       38       99      100 </v>
   <v type="int" >        2       38       99      100      112 </v>
   <v type="int" >        2       38       99      111      112 </v>
   <v type="int" >        2       31       32       39      100 </v>
   <v type="int" >        2       31       38       39      100 </v>
   <v type="int" >        2       38       39      100      112 </v>
   <v type="int" >        2       32       39      100      101 </v>
   <v type="int" >        2       39      100      101      113 </v>
   <v type="int" >        2       39      100      112      113 </v>
   <v type="int" >        2       32       33       40      101 </v>
   <v type="int" >        2       32       39       40      101 </v>
   <v type="int" >        2       39       40      101      113 </v>
   <v type="int" >        2       33       40      101      102 </v>
   <v type="int" >        2       40      101      102      114 </v>
   <v type="int" >        2       40      101      113      114 </v>
   <v type="int" >        2       33       34       41      102 </v>
   <v type="int" >        2       33       40       41      102 </v>
   <v type="int" >        2       40       41      102      114 </v>
   <v type="int" >        2       34       41      102      103 </v>
   <v type="int" >        2       41      102      103      115 </v>
   <v type="int" >        2       41      102      114      115 </v>
   <v type="int" >        2       34       35       42      103 </v>
   <v type="int" >        2       34       41       42      103 </v>
   <v type="int" >        2       41       42      103      115 </v>
   <v type="int" >        2       35       42      103      104 </v>
   <v type="int" >        2       42      103      104      116 </v>
   <v type="int" >        2       42      103      115      116 </v>
   <v type="int" >        2       34       35       41      104 </v>
   <v type="int" >        2       35       41       42      104 </v>
   <v type="int" >        2       41       42      104      116 </v>
   <v type="int" >        2       34       41      104      105 </v>
   <v type="int" >        2       41      104      105      117 </v>
   <v type="int" >        2       41      104      116      117 </v>
   <v type="int" >        2       33       34       40      105 </v>
   <v type="int" >        2       34       40       41      105 </v>
   <v type="int" >        2       40       41      105      117 </v>
   <v type="int" >        2       33       40      105      106 </v>
   <v type="int" >        2       40      105      106      118 </v>
   <v type="int" >        2       40      105      117      118 </v>
   <v type="int" >        2       32       33       39      106 </v>
   <v type="int" >        2       33       39       40      106 </v>
   <v type="int" >        2       39       40      106      118 </v>
   <v type="int" >        2       32       39      106      107 </v>
   <v type="int" >        2       39      106      107      119 </v>
   <v type="int" >        2       39      106      118      119 </v>
   <v type="int" >        2       31       32       38      107 </v>
   <v type="int" >        2       32       38       39      107 </v>
   <v type="int" >        2       38       39      107      119 </v>
   <v type="int" >        2       31       38      107      108 </v>
   <v type="int" >        2       38      107      108      120 </v>
   <v type="int" >        2       38      107      119      120 </v>
   <v type="int" >        2       30       31       37      108 </v>
   <v type="int" >        2       31       37       38      108 </v>
   <v type="int" >        2       37       38      108      120 </v>
   <v type="int" >        2       30       37      108      109 </v>
   <v type="int" >        2       37      108      109      121 </v>
   <v type="int" >        2       37      108      120      121 </v>
   <v type="int" >        2       29       30       36      109 </v>
   <v type="int" >        2       30       36       37      109 </v>
   <v type="int" >        2       36       37      109      121 </v>
   <v type="int" >        2       29       36       98      109 </v>
   <v type="int" >        2       36       98      109      110 </v>
   <v type="int" >        2       36      109      110      121 </v>
   <v type="int" >        2       36       37       44      110 </v>
   <v type="int" >        2       36       43       44      110 </v>
   <v type="int" >        2       43       44      110      122 </v>
   <v type="int" >        2       37       44      110      111 </v>
   <v type="int" >        2       44      110      111      123 </v>
   <v type="int" >        2       44      110      122      123 </v>
   <v type="int" >        2       37       38       45      111 </v>
   <v type="int" >        2       37       44       45      111 </v>
   <v type="int" >        2       44       45      111      123 </v>
   <v type="int" >        2       38       45      111      112 </v>
   <v type="int" >        2       45      111      112      124 </v>
   <v type="int" >        2       45      111      123      124 </v>
   <v type="int" >        2       38       39       46      112 </v>
   <v type="int" >        2       38       45       46      112 </v>
   <v type="int" >        2       45       46      112      124 </v>
   <v type="int" >        2       39       46      112      113 </v>
   <v type="int" >        2       46      112      113      125 </v>
   <v type="int" >        2       46      112      124      125 </v>
   <v type="int" >        2       39       40       47      113 </v>
   <v type="int" >        2       39       46       47      113 </v>
   <v type="int" >        2       46       47      113      125 </v>
   <v type="int" >        2       40       47      113      114 </v>
   <v type="int" >        2       47      113      114      126 </v>
   <v type="int" >        2       47      113      125      126 </v>
   <v type="int" >        2       40       41       48      114 </v>
   <v type="int" >        2       40       47       48      114 </v>
   <v type="int" >        2       47       48      114      126 </v>
   <v type="int" >        2       41       48      114      115 </v>
   <v type="int" >        2       48      114      115      127 </v>
   <v type="int" >        2       48      114      126      127 </v>
   <v type="int" >        2       41       42       49      115 </v>
   <v type="int" >        2       41       48       49      115 </v>
   <v type="int" >        2       48       49      115      127 </v>
   <v type="int" >        2       42       49      115      116 </v>
   <v type="int" >        2       49      115      116      128 </v>
   <v type="int" >        2       49      115      127      128 </v>
   <v type="int" >        2       41       42       48      116 </v>
   <v type="int" >        2       42       48       49      116 </v>
   <v type="int" >        2       48       49      116      128 </v>
   <v type="int" >        2       41       48      116      117 </v>
   <v type="int" >        2       48      116      117      129 </v>
   <v type="int" >        2       48      116      128      129 </v>
   <v type="int" >        2       40       41       47      117 </v>
   <v type="int" >        2       41       47       48      117 </v>
   <v type="int" >        2       47       48      117      129 </v>
   <v type="int" >        2       40       47      117      118 </v>
   <v type="int" >        2       47      117      118      130 </v>
   <v type="int" >        2       47      117      129      130 </v>
   <v type="int" >        2       39       40       46      118 </v>
   <v type="int" >        2       40       46       47      118 </v>
   <v type="int" >        2       46       47      118      130 </v>
   <v type="int" >        2       39       46      118      119 </v>
   <v type="int" >        2       46      118      119      131 </v>
   <v type="int" >        2       46      118      130      131 </v>
   <v type="int" >        2       38       39       45      119 </v>
   <v type="int" >        2       39       45       46      119 </v>
   <v type="int" >        2       45       46      119      131 </v>
   <v type="int" >        2       38       45      119      120 </v>
   <v type="int" >        2       45      119      120      132 </v>
   <v type="int" >        2       45      119      131      132 </v>
   <v type="int" >        2       37       38       44      120 </v>
   <v type="int" >        2       38       44       45      120 </v>
   <v type="int" >        2       44       45      120      132 </v>
   <v type="int" >        2       37       44      120      121 </v>
   <v type="int" >        2       44      120      121      133 </v>
   <v type="int" >        2       44      120      132      133 </v>
   <v type="int" >        2       36       37       43      121 </v>
   <v type="int" >        2       37       43       44      121 </v>
   <v type="int" >        2       43       44      121      133 </v>
   <v type="int" >        2       36       43      110      121 </v>
   <v type="int" >        2       43      110      121      122 </v>
   <v type="int" >        2       43      121      122      133 </v>
   <v type="int" >        2       37       43       44      122 </v>
   <v type="int" >        2       36       37       43      122 </v>
   <v type="int" >        2       36       37      110      122 </v>
   <v type="int" >        2       37       44      122      123 </v>
   <v type="int" >        2       37      111      122      123 </v>
   <v type="int" >        2       37      110      111      122 </v>
   <v type="int" >        2       38       44       45      123 </v>
   <v type="int" >        2       37       38       44      123 </v>
   <v type="int" >        2       37       38      111      123 </v>
   <v type="int" >        2       38       45      123      124 </v>
   <v type="int" >        2       38      112      123      124 </v>
   <v type="int" >        2       38      111      112      123 </v>
   <v type="int" >        2       39       45       46      124 </v>
   <v type="int" >        2       38       39       45      124 </v>
   <v type="int" >        2       38       39      112      124 </v>
   <v type="int" >        2       39       46      124      125 </v>
   <v type="int" >        2       39      113      124      125 </v>
   <v type="int" >        2       39      112      113      124 </v>
   <v type="int" >        2       40       46       47      125 </v>
   <v type="int" >        2       39       40       46      125 </v>
   <v type="int" >        2       39       40      113      125 </v>
   <v type="int" >        2       40       47      125      126 </v>
   <v type="int" >        2       40      114      125      126 </v>
   <v type="int" >        2       40      113      114      125 </v>
   <v type="int" >        2       41       47       48      126 </v>
   <v type="int" >        2       40       41       47      126 </v>
   <v type="int" >        2       40       41      114      126 </v>
   <v type="int" >        2       41       48      126      127 </v>
   <v type="int" >        2       41      115      126      127 </v>
   <v type="int" >        2       41      114      115      126 </v>
   <v type="int" >        2       42       48       49      127 </v>
   <v type="int" >        2       41       42       48      127 </v>
   <v type="int" >        2       41       42      115      127 </v>
   <v type="int" >        2       42       49      127      128 </v>
   <v type="int" >        2       42      116      127      128 </v>
   <v type="int" >        2       42      115      116      127 </v>
   <v type="int" >        2       41       48       49      128 </v>
   <v type="int" >        2       41       42       49      128 </v>
   <v type="int" >        2       41       42      116      128 </v>
   <v type="int" >        2       41       48      128      129 </v>
   <v type="int" >        2       41      117      128      129 </v>
   <v type="int" >        2       41      116      117      128 </v>
   <v type="int" >        2       40       47       48      129 </v>
   <v type="int" >        2       40       41       48      129 </v>
   <v type="int" >        2       40       41      117      129 </v>
   <v type="int" >        2       40       47      129      130 </v>
   <v type="int" >        2       40      118      129      130 </v>
   <v type="int" >        2       40      117      118      129 </v>
   <v type="int" >        2       39       46       47      130 </v>
   <v type="int" >        2       39       40       47      130 </v>
   <v type="int" >        2       39       40      118      130 </v>
   <v type="int" >        2       39       46      130      131 </v>
   <v type="int" >        2       39      119      130      131 </v>
   <v type="int" >        2       39      118      119      130 </v>
   <v type="int" >        2       38       45       46      131 </v>
   <v type="int" >        2       38       39       46      131 </v>
   <v type="int" >        2       38       39      119      131 </v>
   <v type="int" >        2       38       45      131      132 </v>
   <v type="int" >        2       38      120      131      132 </v>
   <v type="int" >        2       38      119      120      131 </v>
   <v type="int" >        2       37       44       45      132 </v>
   <v type="int" >        2       37       38       45      132 </v>
   <v type="int" >        2       37       38      120      132 </v>
   <v type="int" >        2       37       44      132      133 </v>
   <v type="int" >        2       37      121      132      133 </v>
   <v type="int" >        2       37      120      121      132 </v>
   <v type="int" >        2       36       43       44      133 </v>
   <v type="int" >        2       36       37       44      133 </v>
   <v type="int" >        2       36       37      121      133 </v>
   <v type="int" >        2       36       43      122      133 </v>
   <v type="int" >        2       36      110      122      133 </v>
   <v type="int" >        2       36      110      121      133 </v>
   <v type="int" >        2       30       36       37      110 </v>
   <v type="int" >        2       29       30       36      110 </v>
   <v type="int" >        2       29       30       98      110 </v>
   <v type="int" >        2       30       37      110      111 </v>
   <v type="int" >        2       30       99      110      111 </v>
   <v type="int" >        2       30       98       99      110 </v>
   <v type="int" >        2       31       37       38      111 </v>
   <v type="int" >        2       30       31       37      111 </v>
   <v type="int" >        2       30       31       99      111 </v>
   <v type="int" >        2       31       38      111      112 </v>
   <v type="int" >        2       31      100      111      112 </v>
   <v type="int" >        2       31       99      100      111 </v>
   <v type="int" >        2       32       38       39      112 </v>
   <v type="int" >        2       31       32       38      112 </v>
   <v type="int" >        2       31       32      100      112 </v>
   <v type="int" >        2       32       39      112      113 </v>
   <v type="int" >        2       32      101      112      113 </v>
   <v type="int" >        2       32      100      101      112 </v>
   <v type="int" >        2       33       39       40      113 </v>
   <v type="int" >        2       32       33       39      113 </v>
   <v type="int" >        2       32       33      101      113 </v>
   <v type="int" >        2       33       40      113      114 </v>
   <v type="int" >        2       33      102      113      114 </v>
   <v type="int" >        2       33      101      102      113 </v>
   <v type="int" >        2       34       40       41      114 </v>
   <v type="int" >        2       33       34       40      114 </v>
   <v type="int" >        2       33       34      102      114 </v>
   <v type="int" >        2       34       41      114      115 </v>
   <v type="int" >        2       34      103      114      115 </v>
   <v type="int" >        2       34      102      103      114 </v>
   <v type="int" >        2       35       41       42      115 </v>
   <v type="int" >        2       34       35       41      115 </v>
   <v type="int" >        2       34       35      103      115 </v>
   <v type="int" >        2       35       42      115      116 </v>
   <v type="int" >        2       35      104      115      116 </v>
   <v type="int" >        2       35      103      104      115 </v>
   <v type="int" >        2       34       41       42      116 </v>
   <v type="int" >        2       34       35       42      116 </v>
   <v type="int" >        2       34       35      104      116 </v>
   <v type="int" >        2       34       41      116      117 </v>
   <v type="int" >        2       34      105      116      117 </v>
   <v type="int" >        2       34      104      105      116 </v>
   <v type="int" >        2       33       40       41      117 </v>
   <v type="int" >        2       33       34       41      117 </v>
   <v type="int" >        2       33       34      105      117 </v>
   <v type="int" >        2       33       40      117      118 </v>
   <v type="int" >        2       33      106      117      118 </v>
   <v type="int" >        2       33      105      106      117 </v>
   <v type="int" >        2       32       39       40      118 </v>
   <v type="int" >        2       32       33       40      118 </v>
   <v type="int" >        2       32       33      106      118 </v>
   <v type="int" >        2       32       39      118      119 </v>
   <v type="int" >        2       32      107      118      119 </v>
   <v type="int" >        2       32      106      107      118 </v>
   <v type="int" >        2       31       38       39      119 </v>
   <v type="int" >        2       31       32       39      119 </v>
   <v type="int" >        2       31       32      107      119 </v>
   <v type="int" >        2       31       38      119      120 </v>
   <v type="int" >        2       31      108      119      120 </v>
   <v type="int" >        2       31      107      108      119 </v>
   <v type="int" >        2       30       37       38      120 </v>
   <v type="int" >        2       30       31       38      120 </v>
   <v type="int" >        2       30       31      108      120 </v>
   <v type="int" >        2       30       37      120      121 </v>
   <v type="int" >        2       30      109      120      121 </v>
   <v type="int" >        2       30      108      109      120 </v>
   <v type="int" >        2       29       36       37      121 </v>
   <v type="int" >        2       29       30       37      121 </v>
   <v type="int" >        2       29       30      109      121 </v>
   <v type="int" >        2       29       36      110      121 </v>
   <v type="int" >        2       29       98      110      121 </v>
   <v type="int" >        2       29       98      109      121 </v>
   <v type="int" >        2       23       29       30       98 </v>
   <v type="int" >        2       22       23       29       98 </v>
   <v type="int" >        2       22       23       86       98 </v>
   <v type="int" >        2       23       30       98       99 </v>
   <v type="int" >        2       23       87       98       99 </v>
   <v type="int" >        2       23       86       87       98 </v>
   <v type="int" >        2       24       30       31       99 </v>
   <v type="int" >        2       23       24       30       99 </v>
   <v type="int" >        2       23       24       87       99 </v>
   <v type="int" >        2       24       31       99      100 </v>
   <v type="int" >        2       24       88       99      100 </v>
   <v type="int" >        2       24       87       88       99 </v>
   <v type="int" >        2       25       31       32      100 </v>
   <v type="int" >        2       24       25       31      100 </v>
   <v type="int" >        2       24       25       88      100 </v>
   <v type="int" >        2       25       32      100      101 </v>
   <v type="int" >        2       25       89      100      101 </v>
   <v type="int" >        2       25       88       89      100 </v>
   <v type="int" >        2       26       32       33      101 </v>
   <v type="int" >        2       25       26       32      101 </v>
   <v type="int" >        2       25       26       89      101 </v>
   <v type="int" >        2       26       33      101      102 </v>
   <v type="int" >        2       26       90      101      102 </v>
   <v type="int" >        2       26       89       90      101 </v>
   <v type="int" >        2       27       33       34      102 </v>
   <v type="int" >        2       26       27       33      102 </v>
   <v type="int" >        2       26       27       90      102 </v>
   <v type="int" >        2       27       34      102      103 </v>
   <v type="int" >        2       27       91      102      103 </v>
   <v type="int" >        2       27       90       91      102 </v>
   <v type="int" >        2       28       34       35      103 </v>
   <v type="int" >        2       27       28       34      103 </v>
   <v type="int" >        2       27       28       91      103 </v>
   <v type="int" >        2       28       35      103      104 </v>
   <v type="int" >        2       28       92      103      104 </v>
   <v type="int" >        2       28       91       92      103 </v>
   <v type="int" >        2       27       34       35      104 </v>
   <v type="int" >        2       27       28       35      104 </v>
   <v type="int" >        2       27       28       92      104 </v>
   <v type="int" >        2       27       34      104      105 </v>
   <v type="int" >        2       27       93      104      105 </v>
   <v type="int" >        2       27       92       93      104 </v>
   <v type="int" >        2       26       33       34      105 </v>
   <v type="int" >        2       26       27       34      105 </v>
   <v type="int" >        2       26       27       93      105 </v>
   <v type="int" >        2       26       33      105      106 </v>
   <v type="int" >        2       26       94      105      106 </v>
   <v type="int" >        2       26       93       94      105 </v>
   <v type="int" >        2       25       32       33      106 </v>
   <v type="int" >        2       25       26       33      106 </v>
   <v type="int" >        2       25       26       94      106 </v>
   <v type="int" >        2       25       32      106      107 </v>
   <v type="int" >        2       25       95      106      107 </v>
   <v type="int" >        2       25       94       95      106 </v>
   <v type="int" >        2       24       31       32      107 </v>
   <v type="int" >        2       24       25       32      107 </v>
   <v type="int" >        2       24       25       95      107 </v>
   <v type="int" >        2       24       31      107      108 </v>
   <v type="int" >        2       24       96      107      108 </v>
   <v type="int" >        2       24       95       96      107 </v>
   <v type="int" >        2       23       30       31      108 </v>
   <v type="int" >        2       23       24       31      108 </v>
   <v type="int" >        2       23       24       96      108 </v>
   <v type="int" >        2       23       30      108      109 </v>
   <v type="int" >        2       23       97      108      109 </v>
   <v type="int" >        2       23       96       97      108 </v>
   <v type="int" >        2       22       29       30      109 </v>
   <v type="int" >        2       22       23       30      109 </v>
   <v type="int" >        2       22       23       97      109 </v>
   <v type="int" >        2       22       29       98      109 </v>
   <v type="int" >        2       22       86       98      109 </v>
   <v type="int" >        2       22       86       97      109 </v>
   <v type="int" >        2       16       22       23       86 </v>
   <v type="int" >        2       15       16       22       86 </v>
   <v type="int" >        2       15       16       74       86 </v>
   <v type="int" >        2       16       23       86       87 </v>
   <v type="int" >        2       16       75       86       87 </v>
   <v type="int" >        2       16       74       75       86 </v>
   <v type="int" >        2       17       23       24       87 </v>
   <v type="int" >        2       16       17       23       87 </v>
   <v type="int" >        2       16       17       75       87 </v>
   <v type="int" >        2       17       24       87       88 </v>
   <v type="int" >        2       17       76       87       88 </v>
   <v type="int" >        2       17       75       76       87 </v>
   <v type="int" >        2       18       24       25       88 </v>
   <v type="int" >        2       17       18       24       88 </v>
   <v type="int" >        2       17       18       76       88 </v>
   <v type="int" >        2       18       25       88       89 </v>
   <v type="int" >        2       18       77       88       89 </v>
   <v type="int" >        2       18       76       77       88 </v>
   <v type="int" >        2       19       25       26       89 </v>
   <v type="int" >        2       18       19       25       89 </v>
[...]
       <r>   -5.3965    1.0000 </r>
       <r>   -3.6154    1.0000 </r>
       <r>   -3.6154    1.0000 </r>
       <r>    1.8884    0.0000 </r>
       <r>    1.8884    0.0000 </r>
       <r>    4.2723    0.0000 </r>
       <r>    4.2723    0.0000 </r>
       <r>    5.4744    0.0000 </r>
       <r>    5.4744    0.0000 </r>
       <r>    6.9258    0.0000 </r>
      </set>
      <set comment="kpoint 347">
       <r>  -15.5563    1.0000 </r>
       <r>  -15.5563    1.0000 </r>
       <r>  -10.9946    1.0000 </r>
       <r>  -10.9946    1.0000 </r>
       <r>   -8.4369    1.0000 </r>
       <r>   -8.4369    1.0000 </r>
       <r>   -6.9354    1.0000 </r>
       <r>   -6.9354    1.0000 </r>
       <r>   -5.4736    1.0000 </r>
       <r>   -5.4736    1.0000 </r>
       <r>   -3.6256    1.0000 </r>
       <r>   -3.6256    1.0000 </r>
       <r>    2.0309    0.0000 </r>
       <r>    2.0309    0.0000 </r>
       <r>    4.2743    0.0000 </r>
       <r>    4.2743    0.0000 </r>
       <r>    5.7336    0.0000 </r>
       <r>    5.7336    0.0000 </r>
       <r>    6.5724    0.0000 </r>
      </set>
      <set comment="kpoint 348">
       <r>  -15.5460    1.0000 </r>
       <r>  -15.5460    1.0000 </r>
       <r>  -11.0297    1.0000 </r>
       <r>  -11.0297    1.0000 </r>
       <r>   -8.4202    1.0000 </r>
       <r>   -8.4202    1.0000 </r>
       <r>   -6.8890    1.0000 </r>
       <r>   -6.8890    1.0000 </r>
       <r>   -5.5500    1.0000 </r>
       <r>   -5.5500    1.0000 </r>
       <r>   -3.6382    1.0000 </r>
       <r>   -3.6382    1.0000 </r>
       <r>    2.1848    0.0000 </r>
       <r>    2.1848    0.0000 </r>
       <r>    4.3162    0.0000 </r>
       <r>    4.3162    0.0000 </r>
       <r>    5.8696    0.0000 </r>
       <r>    5.8696    0.0000 </r>
       <r>    6.3661    0.0000 </r>
      </set>
      <set comment="kpoint 349">
       <r>  -15.5385    1.0000 </r>
       <r>  -15.5385    1.0000 </r>
       <r>  -11.0553    1.0000 </r>
       <r>  -11.0553    1.0000 </r>
       <r>   -8.4068    1.0000 </r>
       <r>   -8.4068    1.0000 </r>
       <r>   -6.8554    1.0000 </r>
       <r>   -6.8554    1.0000 </r>
       <r>   -5.6057    1.0000 </r>
       <r>   -5.6057    1.0000 </r>
       <r>   -3.6487    1.0000 </r>
       <r>   -3.6487    1.0000 </r>
       <r>    2.3056    0.0000 </r>
       <r>    2.3056    0.0000 </r>
       <r>    4.3813    0.0000 </r>
       <r>    4.3813    0.0000 </r>
       <r>    5.7049    0.0000 </r>
       <r>    5.7049    0.0000 </r>
       <r>    6.5315    0.0000 </r>
      </set>
      <set comment="kpoint 350">
       <r>  -15.5357    1.0000 </r>
       <r>  -15.5357    1.0000 </r>
       <r>  -11.0647    1.0000 </r>
       <r>  -11.0647    1.0000 </r>
       <r>   -8.4016    1.0000 </r>
       <r>   -8.4016    1.0000 </r>
       <r>   -6.8432    1.0000 </r>
       <r>   -6.8432    1.0000 </r>
       <r>   -5.6260    1.0000 </r>
       <r>   -5.6260    1.0000 </r>
       <r>   -3.6528    1.0000 </r>
       <r>   -3.6528    1.0000 </r>
       <r>    2.3517    0.0000 </r>
       <r>    2.3517    0.0000 </r>
       <r>    4.4167    0.0000 </r>
       <r>    4.4167    0.0000 </r>
       <r>    5.6067    0.0000 </r>
       <r>    5.6067    0.0000 </r>
       <r>    6.6558    0.0000 </r>
      </set>
     </set>
    </set>
   </array>
  </eigenvalues>
  <separator name="orbital magnetization" >
   <v name="MAGDIPOLOUT">      0.00000000      0.00000000      0.00000000</v>
  </separator>
  <dos>
   <i name="efermi">     -3.30521158 </i>
   <total>
    <array>
     <dimension dim="1">gridpoints</dimension>
     <dimension dim="2">spin</dimension>
     <field>energy</field>
     <field>total</field>
     <field>integrated</field>
     <set>
      <set comment="spin 1">
       <r>   -17.8091     0.0000     0.0000 </r>
       <r>   -17.7175     0.0000     0.0000 </r>
       <r>   -17.6258     0.0000     0.0000 </r>
       <r>   -17.5342     0.0000     0.0000 </r>
       <r>   -17.4425     0.0000     0.0000 </r>
       <r>   -17.3509     0.0000     0.0000 </r>
       <r>   -17.2592     0.0000     0.0000 </r>
       <r>   -17.1676     0.0000     0.0000 </r>
       <r>   -17.0759     0.0000     0.0000 </r>
       <r>   -16.9843     0.0000     0.0000 </r>
       <r>   -16.8926     0.0000     0.0000 </r>
       <r>   -16.8010     0.0000     0.0000 </r>
       <r>   -16.7093     0.0000     0.0000 </r>
       <r>   -16.6177     0.0000     0.0000 </r>
       <r>   -16.5260     0.0000     0.0000 </r>
       <r>   -16.4344     0.0000     0.0000 </r>
       <r>   -16.3427     0.0000     0.0000 </r>
       <r>   -16.2511     0.0000     0.0000 </r>
       <r>   -16.1594     0.0000     0.0000 </r>
       <r>   -16.0678     0.0000     0.0000 </r>
       <r>   -15.9761     0.0000     0.0000 </r>
       <r>   -15.8845     0.0000     0.0000 </r>
       <r>   -15.7928     1.2979     0.0094 </r>
       <r>   -15.7012     6.7969     0.3777 </r>
       <r>   -15.6095    22.1504     1.5836 </r>
       <r>   -15.5178     0.0000     4.0000 </r>
       <r>   -15.4262     0.0000     4.0000 </r>
       <r>   -15.3345     0.0000     4.0000 </r>
       <r>   -15.2429     0.0000     4.0000 </r>
       <r>   -15.1512     0.0000     4.0000 </r>
       <r>   -15.0596     0.0000     4.0000 </r>
       <r>   -14.9679     0.0000     4.0000 </r>
       <r>   -14.8763     0.0000     4.0000 </r>
       <r>   -14.7846     0.0000     4.0000 </r>
       <r>   -14.6930     0.0000     4.0000 </r>
       <r>   -14.6013     0.0000     4.0000 </r>
       <r>   -14.5097     0.0000     4.0000 </r>
       <r>   -14.4180     0.0000     4.0000 </r>
       <r>   -14.3264     0.0000     4.0000 </r>
       <r>   -14.2347     0.0000     4.0000 </r>
       <r>   -14.1431     0.0000     4.0000 </r>
       <r>   -14.0514     0.0000     4.0000 </r>
       <r>   -13.9598     0.0000     4.0000 </r>
       <r>   -13.8681     0.0000     4.0000 </r>
       <r>   -13.7765     0.0000     4.0000 </r>
       <r>   -13.6848     0.0000     4.0000 </r>
       <r>   -13.5932     0.0000     4.0000 </r>
       <r>   -13.5015     0.0000     4.0000 </r>
       <r>   -13.4099     0.0000     4.0000 </r>
       <r>   -13.3182     0.0000     4.0000 </r>
       <r>   -13.2265     0.0000     4.0000 </r>
       <r>   -13.1349     0.0000     4.0000 </r>
       <r>   -13.0432     0.0000     4.0000 </r>
       <r>   -12.9516     0.0000     4.0000 </r>
       <r>   -12.8599     0.0000     4.0000 </r>
       <r>   -12.7683     0.0000     4.0000 </r>
       <r>   -12.6766     0.0000     4.0000 </r>
       <r>   -12.5850     0.0000     4.0000 </r>
       <r>   -12.4933     0.0000     4.0000 </r>
       <r>   -12.4017     0.0000     4.0000 </r>
       <r>   -12.3100     0.0000     4.0000 </r>
       <r>   -12.2184     0.0000     4.0000 </r>
       <r>   -12.1267     0.0000     4.0000 </r>
       <r>   -12.0351     0.0000     4.0000 </r>
       <r>   -11.9434     0.0000     4.0000 </r>
       <r>   -11.8518     0.0000     4.0000 </r>
       <r>   -11.7601     0.0000     4.0000 </r>
       <r>   -11.6685     0.0000     4.0000 </r>
       <r>   -11.5768     0.0000     4.0000 </r>
       <r>   -11.4852     0.0000     4.0000 </r>
       <r>   -11.3935     0.0000     4.0000 </r>
       <r>   -11.3019     0.0000     4.0000 </r>
       <r>   -11.2102     0.0000     4.0000 </r>
       <r>   -11.1185    12.6904     4.8199 </r>
       <r>   -11.0269    16.5492     6.0996 </r>
       <r>   -10.9352    13.0164     7.7409 </r>
       <r>   -10.8436     0.0000     8.0000 </r>
       <r>   -10.7519     0.0000     8.0000 </r>
       <r>   -10.6603     0.0000     8.0000 </r>
       <r>   -10.5686     0.0000     8.0000 </r>
       <r>   -10.4770     0.0000     8.0000 </r>
       <r>   -10.3853     0.0000     8.0000 </r>
       <r>   -10.2937     0.0000     8.0000 </r>
       <r>   -10.2020     0.0000     8.0000 </r>
       <r>   -10.1104     0.0000     8.0000 </r>
       <r>   -10.0187     0.0000     8.0000 </r>
       <r>    -9.9271     0.0000     8.0000 </r>
       <r>    -9.8354     0.0000     8.0000 </r>
       <r>    -9.7438     0.0000     8.0000 </r>
       <r>    -9.6521     0.0000     8.0000 </r>
       <r>    -9.5605     0.0000     8.0000 </r>
       <r>    -9.4688     0.0000     8.0000 </r>
       <r>    -9.3772     0.0000     8.0000 </r>
       <r>    -9.2855     0.0000     8.0000 </r>
       <r>    -9.1939     0.0000     8.0000 </r>
       <r>    -9.1022     0.0000     8.0000 </r>
       <r>    -9.0106     0.0000     8.0000 </r>
       <r>    -8.9189     0.0000     8.0000 </r>
       <r>    -8.8272     0.0000     8.0000 </r>
       <r>    -8.7356     0.0000     8.0000 </r>
       <r>    -8.6439     0.0000     8.0000 </r>
       <r>    -8.5523     0.0000     8.0000 </r>
       <r>    -8.4606     5.3427     8.0792 </r>
       <r>    -8.3690    10.2654     8.9279 </r>
       <r>    -8.2773     6.9794     9.6945 </r>
       <r>    -8.1857     6.7004    10.3221 </r>
       <r>    -8.0940     9.4787    11.0016 </r>
       <r>    -8.0024     6.4649    11.8949 </r>
       <r>    -7.9107     0.0000    12.0000 </r>
       <r>    -7.8191     0.0000    12.0000 </r>
       <r>    -7.7274     0.0000    12.0000 </r>
       <r>    -7.6358     0.0000    12.0000 </r>
       <r>    -7.5441     0.0000    12.0000 </r>
       <r>    -7.4525     0.0000    12.0000 </r>
       <r>    -7.3608     0.0000    12.0000 </r>
       <r>    -7.2692     1.2892    12.0457 </r>
       <r>    -7.1775     3.0679    12.2402 </r>
       <r>    -7.0859     6.5675    12.6563 </r>
       <r>    -6.9942    18.7952    13.7741 </r>
       <r>    -6.9026     8.7813    15.2701 </r>
       <r>    -6.8109     4.5180    15.8599 </r>
       <r>    -6.7193     0.0000    16.0000 </r>
       <r>    -6.6276     0.0000    16.0000 </r>
       <r>    -6.5359     0.0000    16.0000 </r>
       <r>    -6.4443     0.0000    16.0000 </r>
       <r>    -6.3526     0.0000    16.0000 </r>
       <r>    -6.2610     0.0000    16.0000 </r>
       <r>    -6.1693     0.0000    16.0000 </r>
       <r>    -6.0777     0.0000    16.0000 </r>
       <r>    -5.9860     0.0000    16.0000 </r>
       <r>    -5.8944     0.0000    16.0000 </r>
       <r>    -5.8027     0.0000    16.0000 </r>
       <r>    -5.7111     0.7786    16.0046 </r>
       <r>    -5.6194     2.3427    16.1740 </r>
       <r>    -5.5278     3.3038    16.4323 </r>
       <r>    -5.4361     4.8179    16.7977 </r>
       <r>    -5.3445     8.9471    17.3916 </r>
       <r>    -5.2528    11.0898    18.4455 </r>
       <r>    -5.1612     7.2847    19.2825 </r>
       <r>    -5.0695     3.2385    19.7190 </r>
       <r>    -4.9779     1.5715    19.9343 </r>
       <r>    -4.8862     0.0000    20.0000 </r>
       <r>    -4.7946     0.0000    20.0000 </r>
       <r>    -4.7029     0.0000    20.0000 </r>
       <r>    -4.6113     0.0000    20.0000 </r>
       <r>    -4.5196     0.0000    20.0000 </r>
       <r>    -4.4279     0.0000    20.0000 </r>
       <r>    -4.3363     0.0000    20.0000 </r>
       <r>    -4.2446     0.0000    20.0000 </r>
       <r>    -4.1530     0.0000    20.0000 </r>
       <r>    -4.0613     0.0000    20.0000 </r>
       <r>    -3.9697     0.0244    20.0000 </r>
       <r>    -3.8780     1.4203    20.0718 </r>
       <r>    -3.7864     3.1974    20.2763 </r>
       <r>    -3.6947     7.5935    20.7272 </r>
       <r>    -3.6031    18.2185    21.9809 </r>
       <r>    -3.5114     7.4805    23.2935 </r>
       <r>    -3.4198     4.0389    23.7913 </r>
       <r>    -3.3281     0.0000    24.0000 </r>
       <r>    -3.2365     0.0000    24.0000 </r>
       <r>    -3.1448     0.0000    24.0000 </r>
       <r>    -3.0532     0.0000    24.0000 </r>
       <r>    -2.9615     0.0000    24.0000 </r>
       <r>    -2.8699     0.0000    24.0000 </r>
       <r>    -2.7782     0.0000    24.0000 </r>
       <r>    -2.6866     0.0000    24.0000 </r>
       <r>    -2.5949     0.0000    24.0000 </r>
       <r>    -2.5033     0.0000    24.0000 </r>
       <r>    -2.4116     0.0000    24.0000 </r>
       <r>    -2.3200     0.0000    24.0000 </r>
       <r>    -2.2283     0.0000    24.0000 </r>
       <r>    -2.1366     0.0000    24.0000 </r>
       <r>    -2.0450     0.0000    24.0000 </r>
       <r>    -1.9533     0.0000    24.0000 </r>
       <r>    -1.8617     0.0000    24.0000 </r>
       <r>    -1.7700     0.0000    24.0000 </r>
       <r>    -1.6784     0.0000    24.0000 </r>
       <r>    -1.5867     0.0000    24.0000 </r>
       <r>    -1.4951     0.0000    24.0000 </r>
       <r>    -1.4034     0.0000    24.0000 </r>
       <r>    -1.3118     0.0000    24.0000 </r>
       <r>    -1.2201     0.0000    24.0000 </r>
       <r>    -1.1285     0.0000    24.0000 </r>
       <r>    -1.0368     0.0000    24.0000 </r>
       <r>    -0.9452     0.0000    24.0000 </r>
       <r>    -0.8535     0.0000    24.0000 </r>
       <r>    -0.7619     0.0000    24.0000 </r>
       <r>    -0.6702     0.0000    24.0000 </r>
       <r>    -0.5786     0.0000    24.0000 </r>
       <r>    -0.4869     0.0000    24.0000 </r>
       <r>    -0.3953     0.0000    24.0000 </r>
       <r>    -0.3036     0.0000    24.0000 </r>
       <r>    -0.2120     0.0000    24.0000 </r>
       <r>    -0.1203     0.0000    24.0000 </r>
       <r>    -0.0287     0.0000    24.0000 </r>
       <r>     0.0630     0.0000    24.0000 </r>
       <r>     0.1547     0.0000    24.0000 </r>
       <r>     0.2463     0.0000    24.0000 </r>
       <r>     0.3380     0.0000    24.0000 </r>
       <r>     0.4296     0.0000    24.0000 </r>
       <r>     0.5213     0.0000    24.0000 </r>
       <r>     0.6129     0.0000    24.0000 </r>
       <r>     0.7046     0.0000    24.0000 </r>
       <r>     0.7962     0.0000    24.0000 </r>
       <r>     0.8879     0.0000    24.0000 </r>
       <r>     0.9795     0.0000    24.0000 </r>
       <r>     1.0712     0.0000    24.0000 </r>
       <r>     1.1628     0.0067    24.0000 </r>
       <r>     1.2545     0.7922    24.0424 </r>
       <r>     1.3461     1.0930    24.1278 </r>
       <r>     1.4378     1.3875    24.2401 </r>
       <r>     1.5294     1.6756    24.3802 </r>
       <r>     1.6211     2.0426    24.5497 </r>
       <r>     1.7127     2.5410    24.7586 </r>
       <r>     1.8044     3.1742    25.0300 </r>
       <r>     1.8960     3.3326    25.3288 </r>
       <r>     1.9877     3.5582    25.6439 </r>
       <r>     2.0793     3.9264    25.9888 </r>
       <r>     2.1710     5.0143    26.3906 </r>
       <r>     2.2627     5.1929    26.8649 </r>
       <r>     2.3543     5.1909    27.3572 </r>
       <r>     2.4460     3.2856    27.7887 </r>
       <r>     2.5376     1.0102    27.9757 </r>
       <r>     2.6293     0.0000    28.0000 </r>
       <r>     2.7209     0.0000    28.0000 </r>
       <r>     2.8126     0.0000    28.0000 </r>
       <r>     2.9042     0.0000    28.0000 </r>
       <r>     2.9959     0.0000    28.0000 </r>
       <r>     3.0875     0.5347    28.0052 </r>
       <r>     3.1792     0.8972    28.0842 </r>
       <r>     3.2708     0.9929    28.1702 </r>
       <r>     3.3625     1.1012    28.2665 </r>
       <r>     3.4541     1.2165    28.3727 </r>
       <r>     3.5458     1.3221    28.4889 </r>
       <r>     3.6374     1.4571    28.6158 </r>
       <r>     3.7291     1.6404    28.7575 </r>
       <r>     3.8207     1.7933    28.9152 </r>
       <r>     3.9124     1.9310    29.0857 </r>
       <r>     4.0040     2.1712    29.2727 </r>
       <r>     4.0957     2.5332    29.4868 </r>
       <r>     4.1873     3.0299    29.7404 </r>
       <r>     4.2790     3.6735    30.0458 </r>
       <r>     4.3706     4.4026    30.4152 </r>
       <r>     4.4623     4.3681    30.8325 </r>
       <r>     4.5540     4.1453    31.2303 </r>
       <r>     4.6456     2.8044    31.5385 </r>
       <r>     4.7373     2.2289    31.7676 </r>
       <r>     4.8289     1.8500    31.9545 </r>
       <r>     4.9206     2.1065    32.1346 </r>
       <r>     5.0122     2.4537    32.3433 </r>
       <r>     5.1039     2.8434    32.5826 </r>
       <r>     5.1955     3.4482    32.8618 </r>
       <r>     5.2872     3.6692    33.1932 </r>
       <r>     5.3788     3.5467    33.5127 </r>
       <r>     5.4705     3.5691    33.8382 </r>
       <r>     5.5621     4.0101    34.1857 </r>
       <r>     5.6538     3.9329    34.5502 </r>
       <r>     5.7454     3.9515    34.9152 </r>
       <r>     5.8371     3.0431    35.2307 </r>
       <r>     5.9287     2.7032    35.4946 </r>
       <r>     6.0204     2.3445    35.7214 </r>
       <r>     6.1120     2.0078    35.9310 </r>
       <r>     6.2037     2.0214    36.1038 </r>
       <r>     6.2953     2.7038    36.3288 </r>
       <r>     6.3870     2.6197    36.5667 </r>
       <r>     6.4786     2.5917    36.8069 </r>
       <r>     6.5703     1.9604    37.0149 </r>
       <r>     6.6619     1.6936    37.1808 </r>
       <r>     6.7536     1.9364    37.3414 </r>
       <r>     6.8453     1.8348    37.5271 </r>
       <r>     6.9369     1.4545    37.6733 </r>
       <r>     7.0286     1.2032    37.7950 </r>
       <r>     7.1202     0.6652    37.8879 </r>
       <r>     7.2119     0.3589    37.9305 </r>
       <r>     7.3035     0.2673    37.9589 </r>
       <r>     7.3952     0.1736    37.9789 </r>
       <r>     7.4868     0.1036    37.9915 </r>
       <r>     7.5785     0.0439    37.9982 </r>
       <r>     7.6701     0.0013    38.0000 </r>
       <r>     7.7618     0.0000    38.0000 </r>
       <r>     7.8534     0.0000    38.0000 </r>
       <r>     7.9451     0.0000    38.0000 </r>
       <r>     8.0367     0.0000    38.0000 </r>
       <r>     8.1284     0.0000    38.0000 </r>
       <r>     8.2200     0.0000    38.0000 </r>
       <r>     8.3117     0.0000    38.0000 </r>
       <r>     8.4033     0.0000    38.0000 </r>
       <r>     8.4950     0.0000    38.0000 </r>
       <r>     8.5866     0.0000    38.0000 </r>
       <r>     8.6783     0.0000    38.0000 </r>
       <r>     8.7699     0.0000    38.0000 </r>
       <r>     8.8616     0.0000    38.0000 </r>
       <r>     8.9533     0.0000    38.0000 </r>
       <r>     9.0449     0.0000    38.0000 </r>
       <r>     9.1366     0.0000    38.0000 </r>
       <r>     9.2282     0.0000    38.0000 </r>
       <r>     9.3199     0.0000    38.0000 </r>
       <r>     9.4115     0.0000    38.0000 </r>
       <r>     9.5032     0.0000    38.0000 </r>
       <r>     9.5948     0.0000    38.0000 </r>
       <r>     9.6865     0.0000    38.0000 </r>
      </set>
     </set>
    </array>
   </total>
  </dos>
 </calculation>
 <structure name="finalpos" >
  <crystal>
   <varray name="basis" >
    <v>       4.86999989       0.00000000       0.00000000 </v>
    <v>       0.00000000       6.46000004       0.00000000 </v>
    <v>       0.00000000       0.00000000       4.14000010 </v>
   </varray>
   <i name="volume">    130.24522871 </i>
   <varray name="rec_basis" >
    <v>       0.20533881       0.00000000       0.00000000 </v>
    <v>       0.00000000       0.15479876       0.00000000 </v>
    <v>       0.00000000       0.00000000       0.24154589 </v>
   </varray>
  </crystal>
  <varray name="positions" >
   <v>       0.88705890       0.05395008       0.96449313 </v>
   <v>       0.11294111       0.94604991       0.03550685 </v>
   <v>       0.61294110       0.55395009       0.53550687 </v>
   <v>       0.38705890       0.44604991       0.46449316 </v>
   <v>       0.80737860       0.17522051       0.12289093 </v>
   <v>       0.19262139       0.82477951       0.87710908 </v>
   <v>       0.69262140       0.67522049       0.37710908 </v>
   <v>       0.30737860       0.32477951       0.62289092 </v>
   <v>       0.77050960       0.02599791       0.74342808 </v>
   <v>       0.22949037       0.97400210       0.25657189 </v>
   <v>       0.72949040       0.52599790       0.75657192 </v>
   <v>       0.27050963       0.47400210       0.24342811 </v>
  </varray>
 </structure>
</modeling>
