ethylene                                
           1
     4.870000    0.000000    0.000000
     0.000000    6.460000    0.000000
     0.000000    0.000000    4.140000
   C    H 
   4   8
Direct configuration=     1
   0.88344002  0.05382000  0.95924997
   0.11656000  0.94617999  0.04075000
   0.61655998  0.55382001  0.54075003
   0.38344002  0.44617999  0.45925000
   0.81309998  0.16980000  0.11850000
   0.18690000  0.83020002  0.88150001
   0.68690002  0.66979998  0.38150001
   0.31309998  0.33020002  0.61849999
   0.75699997  0.02870000  0.73109996
   0.24300000  0.97130001  0.26890001
   0.74300003  0.52869999  0.76890004
   0.25700000  0.47130001  0.23109999
Direct configuration=     2
   0.89714559  0.04167341  0.95126363
   0.10285442  0.95832658  0.04873634
   0.60285441  0.54167342  0.54873637
   0.39714559  0.45832658  0.45126366
   0.80695162  0.17748124  0.12709051
   0.19304836  0.82251877  0.87290949
   0.69304838  0.67748123  0.37290949
   0.30695162  0.32251877  0.62709051
   0.76669367  0.02872662  0.74432169
   0.23330630  0.97127338  0.25567828
   0.73330633  0.52872662  0.75567831
   0.26669370  0.47127338  0.24432172
Direct configuration=     3
   0.88662095  0.05100089  0.95739642
   0.11337906  0.94899909  0.04260355
   0.61337905  0.55100091  0.54260358
   0.38662095  0.44899909  0.45739645
   0.81167300  0.17158274  0.12049378
   0.18832698  0.82841727  0.87950623
   0.68832700  0.67158273  0.37950623
   0.31167300  0.32841727  0.62049377
   0.75924978  0.02870618  0.73416860
   0.24075019  0.97129383  0.26583137
   0.74075022  0.52870617  0.76583140
   0.25924981  0.47129383  0.23416863
Direct configuration=     4
   0.88484814  0.05251323  0.95831744
   0.11515188  0.94748675  0.04168253
   0.61515186  0.55251325  0.54168256
   0.38484814  0.44748675  0.45831747
   0.80893034  0.17356481  0.12120250
   0.19106965  0.82643520  0.87879751
   0.69106966  0.67356480  0.37879751
   0.30893034  0.32643520  0.62120249
   0.76788410  0.02773839  0.74375015
   0.23211587  0.97226162  0.25624982
   0.73211590  0.52773838  0.75624985
   0.26788413  0.47226162  0.24375018
Direct configuration=     5
   0.88541444  0.05203013  0.95802323
   0.11458557  0.94796985  0.04197674
   0.61458556  0.55203015  0.54197677
   0.38541444  0.44796985  0.45802326
   0.80980645  0.17293166  0.12097610
   0.19019353  0.82706835  0.87902390
   0.69019355  0.67293165  0.37902390
   0.30980645  0.32706835  0.62097610
   0.76512597  0.02804754  0.74068944
   0.23487400  0.97195247  0.25931053
   0.73487403  0.52804753  0.75931056
   0.26512600  0.47195247  0.24068947
Direct configuration=     6
   0.88747464  0.05349885  0.96407319
   0.11252537  0.94650113  0.03592678
   0.61252536  0.55349887  0.53592681
   0.38747464  0.44650113  0.46407322
   0.80799243  0.17392372  0.12076744
   0.19200755  0.82607629  0.87923257
   0.69200757  0.67392371  0.37923257
   0.30799243  0.32607629  0.62076743
   0.76992465  0.02682566  0.74448647
   0.23007532  0.97317434  0.25551350
   0.73007535  0.52682566  0.75551353
   0.26992468  0.47317434  0.24448650
Direct configuration=     7
   0.88736602  0.05342142  0.96375422
   0.11263399  0.94657857  0.03624575
   0.61263398  0.55342143  0.53624578
   0.38736602  0.44657857  0.46375425
   0.80808807  0.17387142  0.12077844
   0.19191191  0.82612859  0.87922157
   0.69191193  0.67387141  0.37922157
   0.30808807  0.32612859  0.62077843
   0.76967165  0.02689008  0.74428628
   0.23032832  0.97310992  0.25571369
   0.73032835  0.52689008  0.75571372
   0.26967168  0.47310992  0.24428631
Direct configuration=     8
   0.88712098  0.05373659  0.96411101
   0.11287904  0.94626340  0.03588897
   0.61287902  0.55373660  0.53588899
   0.38712098  0.44626340  0.46411104
   0.80774845  0.17447098  0.12167740
   0.19225153  0.82552904  0.87832261
   0.69225155  0.67447096  0.37832261
   0.30774845  0.32552904  0.62167739
   0.77003518  0.02650069  0.74390914
   0.22996479  0.97349932  0.25609083
   0.72996482  0.52650068  0.75609086
   0.27003521  0.47349932  0.24390917
Direct configuration=     9
   0.88686308  0.05406829  0.96448651
   0.11313694  0.94593170  0.03551346
   0.61313692  0.55406830  0.53551349
   0.38686308  0.44593170  0.46448654
   0.80739101  0.17510199  0.12262354
   0.19260898  0.82489802  0.87737647
   0.69260899  0.67510198  0.37737647
   0.30739101  0.32489802  0.62262353
   0.77041778  0.02609086  0.74351221
   0.22958219  0.97390915  0.25648776
   0.72958222  0.52609085  0.75648779
   0.27041781  0.47390915  0.24351224
Direct configuration=    10
   0.88736868  0.05376308  0.96450359
   0.11263134  0.94623690  0.03549639
   0.61263132  0.55376310  0.53549641
   0.38736868  0.44623690  0.46450362
   0.80735898  0.17540798  0.12331390
   0.19264101  0.82459203  0.87668610
   0.69264102  0.67540797  0.37668610
   0.30735898  0.32459203  0.62331390
   0.77065485  0.02585088  0.74329500
   0.22934512  0.97414913  0.25670497
   0.72934515  0.52585087  0.75670500
   0.27065488  0.47414913  0.24329503
Direct configuration=    11
   0.88705890  0.05395008  0.96449313
   0.11294111  0.94604991  0.03550685
   0.61294110  0.55395009  0.53550687
   0.38705890  0.44604991  0.46449316
   0.80737860  0.17522051  0.12289093
   0.19262139  0.82477951  0.87710908
   0.69262140  0.67522049  0.37710908
   0.30737860  0.32477951  0.62289092
   0.77050960  0.02599791  0.74342808
   0.22949037  0.97400210  0.25657189
   0.72949040  0.52599790  0.75657192
   0.27050963  0.47400210  0.24342811
