ethylene                                
           1
     4.870000    0.000000    0.000000
     0.000000    6.460000    0.000000
     0.000000    0.000000    4.140000
   C    H 
   4   8
Direct configuration=     1
   0.88344002  0.05382000  0.95924997
   0.11656000  0.94617999  0.04075000
   0.61655998  0.55382001  0.54075003
   0.38344002  0.44617999  0.45925000
   0.81309998  0.16980000  0.11850000
   0.18690000  0.83020002  0.88150001
   0.68690002  0.66979998  0.38150001
   0.31309998  0.33020002  0.61849999
   0.75699997  0.02870000  0.73109996
   0.24300000  0.97130001  0.26890001
   0.74300003  0.52869999  0.76890004
   0.25700000  0.47130001  0.23109999
Direct configuration=     2
   0.89721146  0.04163293  0.95127297
   0.10278855  0.95836705  0.04872701
   0.60278854  0.54163295  0.54872703
   0.39721146  0.45836705  0.45127300
   0.80698586  0.17743903  0.12704459
   0.19301413  0.82256098  0.87295542
   0.69301414  0.67743902  0.37295542
   0.30698586  0.32256098  0.62704458
   0.76674547  0.02872817  0.74441243
   0.23325450  0.97127184  0.25558754
   0.73325453  0.52872816  0.75558757
   0.26674550  0.47127184  0.24441246
Direct configuration=     3
   0.88793898  0.04983864  0.95664398
   0.11206104  0.95016135  0.04335599
   0.61206102  0.54983865  0.54335602
   0.38793898  0.45016135  0.45664401
   0.81110257  0.17229558  0.12129141
   0.18889741  0.82770444  0.87870860
   0.68889743  0.67229556  0.37870860
   0.31110257  0.32770444  0.62129140
   0.76018370  0.02870920  0.73544898
   0.23981627  0.97129080  0.26455099
   0.73981630  0.52870920  0.76455102
   0.26018373  0.47129080  0.23544901
Direct configuration=     4
   0.88662897  0.05099793  0.95740280
   0.11337105  0.94900205  0.04259718
   0.61337103  0.55099795  0.54259720
   0.38662897  0.44900205  0.45740283
   0.81168418  0.17156891  0.12047861
   0.18831581  0.82843110  0.87952140
   0.68831582  0.67156890  0.37952140
   0.31168418  0.32843110  0.62047860
   0.75925666  0.02870652  0.73418263
   0.24074331  0.97129348  0.26581734
   0.74074334  0.52870652  0.76581737
   0.25925669  0.47129348  0.23418266
Direct configuration=     5
   0.88482823  0.05251842  0.95830345
   0.11517178  0.94748157  0.04169653
   0.61517177  0.55251843  0.54169655
   0.38482823  0.44748157  0.45830348
   0.80894497  0.17355198  0.12119245
   0.19105501  0.82644803  0.87880756
   0.69105503  0.67355197  0.37880756
   0.30894497  0.32644803  0.62119244
   0.76788475  0.02773674  0.74375762
   0.23211522  0.97226327  0.25624235
   0.73211525  0.52773673  0.75624238
   0.26788478  0.47226327  0.24375765
Direct configuration=     6
   0.88540904  0.05202800  0.95801295
   0.11459097  0.94797199  0.04198702
   0.61459096  0.55202801  0.54198705
   0.38540904  0.44797199  0.45801298
   0.80982848  0.17291236  0.12096221
   0.19017151  0.82708766  0.87903780
   0.69017152  0.67291234  0.37903780
   0.30982848  0.32708766  0.62096220
   0.76510183  0.02804953  0.74066929
   0.23489814  0.97195047  0.25933068
   0.73489817  0.52804953  0.75933071
   0.26510186  0.47195047  0.24066932
Direct configuration=     7
   0.88746303  0.05348949  0.96403760
   0.11253699  0.94651050  0.03596237
   0.61253697  0.55348950  0.53596240
   0.38746303  0.44651050  0.46403763
   0.80800829  0.17391489  0.12076703
   0.19199169  0.82608513  0.87923298
   0.69199171  0.67391487  0.37923298
   0.30800829  0.32608513  0.62076702
   0.76990453  0.02682713  0.74447495
   0.23009544  0.97317288  0.25552502
   0.73009547  0.52682712  0.75552505
   0.26990456  0.47317288  0.24447498
Direct configuration=     8
   0.88736682  0.05342103  0.96375540
   0.11263320  0.94657896  0.03624458
   0.61263318  0.55342104  0.53624460
   0.38736682  0.44657896  0.46375543
   0.80809355  0.17386793  0.12077617
   0.19190643  0.82613209  0.87922384
   0.69190645  0.67386791  0.37922384
   0.30809355  0.32613209  0.62077616
   0.76967956  0.02688439  0.74429668
   0.23032041  0.97311562  0.25570329
   0.73032044  0.52688438  0.75570332
   0.26967959  0.47311562  0.24429671
Direct configuration=     9
   0.88712342  0.05373438  0.96411162
   0.11287659  0.94626561  0.03588835
   0.61287658  0.55373439  0.53588838
   0.38712342  0.44626561  0.46411165
   0.80775211  0.17447025  0.12167914
   0.19224787  0.82552976  0.87832087
   0.69224789  0.67447024  0.37832087
   0.30775211  0.32552976  0.62167913
   0.77003911  0.02649465  0.74391414
   0.22996086  0.97350535  0.25608583
   0.72996089  0.52649465  0.75608586
   0.27003914  0.47350535  0.24391417
Direct configuration=    10
   0.88686634  0.05406536  0.96448788
   0.11313368  0.94593463  0.03551209
   0.61313366  0.55406537  0.53551212
   0.38686634  0.44593463  0.46448791
   0.80739147  0.17510645  0.12263291
   0.19260852  0.82489356  0.87736710
   0.69260853  0.67510644  0.37736710
   0.30739147  0.32489356  0.62263290
   0.77041889  0.02608299  0.74351008
   0.22958108  0.97391701  0.25648989
   0.72958111  0.52608299  0.75648992
   0.27041892  0.47391701  0.24351011
Direct configuration=    11
   0.88736245  0.05376255  0.96449844
   0.11263756  0.94623743  0.03550153
   0.61263755  0.55376257  0.53550156
   0.38736245  0.44623743  0.46449847
   0.80736774  0.17539770  0.12330254
   0.19263224  0.82460232  0.87669747
   0.69263226  0.67539768  0.37669747
   0.30736774  0.32460232  0.62330253
   0.77064952  0.02585052  0.74330197
   0.22935045  0.97414949  0.25669800
   0.72935048  0.52585051  0.75669803
   0.27064955  0.47414949  0.24330200
Direct configuration=    12
   0.88705876  0.05394792  0.96449198
   0.11294126  0.94605207  0.03550800
   0.61294124  0.55394793  0.53550802
   0.38705876  0.44605207  0.46449201
   0.80738227  0.17521941  0.12289262
   0.19261772  0.82478060  0.87710738
   0.69261773  0.67521940  0.37710738
   0.30738227  0.32478060  0.62289262
   0.77050834  0.02599283  0.74342936
   0.22949163  0.97400718  0.25657061
   0.72949166  0.52599282  0.75657064
   0.27050837  0.47400718  0.24342939
