   32   32    1    1
  0.9341735E+01  0.4932875E-09  0.4932875E-09  0.1419195E-08  0.5000000E-15
  1.000000000000000E-004
  CAR 
 graphite                                
    128     76     84
 
  0.0000000E+00  0.0000000E+00  0.0000000E+00  0.6944444E-02
    1      -15.387169
    2      -15.293571
    3      -15.293207
    4      -15.195306
    5      -10.097194
    6      -10.083916
    7      -10.081569
    8      -10.061799
    9      -10.059824
   10      -10.047664
   11      -10.045612
   12      -10.045580
   13      -10.042551
   14      -10.028170
   15      -10.013496
   16      -10.010459
   17       -9.033908
   18       -9.031474
   19       -9.026552
   20       -9.012112
   21       -9.008470
   22       -9.008396
   23       -9.008235
   24       -9.005131
   25       -9.001984
   26       -8.979381
   27       -8.977681
   28       -8.973307
   29       -4.088647
   30       -3.419265
   31       -3.417980
   32       -2.624052
   33       -2.205322
   34       -2.203240
   35       -2.193071
   36       -2.189606
   37       -2.188679
   38       -2.188672
   39       -2.185552
   40       -2.177687
   41       -2.175072
   42       -2.173209
   43       -2.170360
   44       -2.160296
   45        1.181197
   46        1.189365
   47        1.190968
   48        1.193417
   49        1.194326
   50        1.196230
   51        1.197954
   52        1.206436
   53        1.555498
   54        1.564233
   55        1.565939
   56        1.832547
   57        1.835745
   58        1.847667
   59        1.848393
   60        1.848657
   61        1.852276
   62        2.048865
   63        2.069491
   64        2.071941
   65        5.702009
   66        5.705008
   67        5.716930
   68        5.856831
   69        5.861910
   70        5.862179
   71        5.862537
   72        5.865065
   73        5.869664
   74        6.245294
   75        6.247135
   76        6.248468
   77        8.089830
   78       10.314464
   79       10.317502
   80       11.456402
   81       11.460194
   82       11.490443
   83       11.586091
   84       11.594012
 
  0.1666667E+00  0.0000000E+00  0.0000000E+00  0.1388889E-01
    1      -15.222027
    2      -15.129393
    3      -15.129025
    4      -15.032205
    5      -11.379401
    6      -11.309839
    7      -11.309510
    8      -11.237705
    9      -10.512476
   10      -10.504485
   11      -10.452197
   12      -10.451103
   13      -10.443310
   14      -10.443045
   15      -10.389370
   16      -10.380782
   17       -8.393161
   18       -8.390980
   19       -8.345236
   20       -8.344425
   21       -8.342289
   22       -8.341483
   23       -8.293701
   24       -8.291177
   25       -7.552226
   26       -7.503661
   27       -7.501751
   28       -7.451854
   29       -3.888482
   30       -3.223405
   31       -3.222130
   32       -2.694357
   33       -2.682609
   34       -2.674404
   35       -2.674041
   36       -2.663366
   37       -2.660981
   38       -2.653847
   39       -2.641921
   40       -2.434210
   41       -2.040935
   42       -2.026267
   43       -2.024115
   44       -2.009189
   45        0.517393
   46        0.531314
   47        0.539492
   48        0.543158
   49        0.551153
   50        0.847812
   51        0.854618
   52        0.857921
   53        0.867175
   54        1.000770
   55        1.002573
   56        1.351919
   57        1.360485
   58        1.522097
   59        1.726181
   60        1.729147
   61        1.739079
   62        1.740139
   63        2.084660
   64        2.101088
   65        5.925101
   66        5.933790
   67        6.141627
   68        6.142887
   69        6.144093
   70        6.148541
   71        6.523523
   72        6.525519
   73        6.656798
   74        6.960144
   75        6.963669
   76        7.392637
   77        8.294416
   78       10.501784
   79       10.504755
   80       11.546445
   81       11.668478
   82       11.669317
   83       11.787981
   84       12.191914
 
  0.3333333E+00  0.0000000E+00  0.0000000E+00  0.1388889E-01
    1      -14.728378
    2      -14.638663
    3      -14.638280
    4      -14.544657
    5      -12.785539
    6      -12.707147
    7      -12.706742
    8      -12.625467
    9      -10.931810
   10      -10.928053
   11      -10.865611
   12      -10.864605
   13      -10.861240
   14      -10.860716
   15      -10.796067
   16      -10.792155
   17       -7.221430
   18       -7.215723
   19       -7.177450
   20       -7.176143
   21       -7.171153
   22       -7.170515
   23       -7.130777
   24       -7.125112
   25       -5.441479
   26       -5.402228
   27       -5.400060
   28       -5.360027
   29       -3.848128
   30       -3.838060
   31       -3.821695
   32       -3.820771
   33       -3.812160
   34       -3.809748
   35       -3.793517
   36       -3.783354
   37       -3.292338
   38       -2.641088
   39       -2.639844
   40       -1.870871
   41       -1.567242
   42       -1.553255
   43       -1.550906
   44       -1.536650
   45       -1.116738
   46       -1.099372
   47       -1.095511
   48       -1.078261
   49       -1.002354
   50       -0.423273
   51       -0.421958
   52        0.050811
   53        0.061035
   54        0.064294
   55        0.075483
   56        0.245827
   57        1.070426
   58        1.075489
   59        1.539469
   60        1.542199
   61        1.547097
   62        1.548026
   63        2.050726
   64        2.059238
   65        6.471358
   66        6.474661
   67        6.716037
   68        6.716983
   69        6.717363
   70        6.721527
   71        7.018579
   72        7.021077
   73        8.818016
   74        8.909106
   75        9.099734
   76        9.102457
   77        9.465586
   78       11.054775
   79       11.057508
   80       11.305038
   81       11.828335
   82       11.889876
   83       11.891200
   84       12.095795
 
  0.5000000E+00  0.0000000E+00  0.0000000E+00  0.6944444E-02
    1      -13.913496
    2      -13.910832
    3      -13.829826
    4      -13.826836
    5      -13.826816
    6      -13.824450
    7      -13.739705
    8      -13.736973
    9      -11.079663
   10      -11.078045
   11      -11.012407
   12      -11.010548
   13      -11.010529
   14      -11.009083
   15      -10.941143
   16      -10.939452
   17       -6.321606
   18       -6.320075
   19       -6.298015
   20       -6.298000
   21       -6.297856
   22       -6.294088
   23       -6.275065
   24       -6.272487
   25       -4.743099
   26       -4.741301
   27       -4.728290
   28       -4.725894
   29       -4.724354
   30       -4.724346
   31       -4.707555
   32       -4.706589
   33       -3.228270
   34       -3.224797
   35       -3.200807
   36       -3.195303
   37       -3.195272
   38       -3.195186
   39       -3.167618
   40       -3.165192
   41       -2.317606
   42       -2.315446
   43       -1.692926
   44       -1.690615
   45       -1.690493
   46       -1.687771
   47       -0.958076
   48       -0.955596
   49       -0.834124
   50       -0.831216
   51       -0.821230
   52       -0.819513
   53       -0.819504
   54       -0.813774
   55       -0.806553
   56       -0.798211
   57        0.958752
   58        0.960672
   59        1.456508
   60        1.460084
   61        1.460264
   62        1.461284
   63        2.017042
   64        2.019315
   65        6.806620
   66        6.808894
   67        7.019121
   68        7.020130
   69        7.020301
   70        7.024588
   71        7.234767
   72        7.237402
   73        9.928535
   74        9.929306
   75       11.227767
   76       11.231343
   77       11.334868
   78       11.341850
   79       11.343544
   80       11.348629
   81       11.668789
   82       11.672089
   83       11.965657
   84       11.972378
 
  0.0000000E+00  0.1666667E+00  0.0000000E+00  0.1388889E-01
    1      -15.222024
    2      -15.129387
    3      -15.129024
    4      -15.032201
    5      -11.379413
    6      -11.309866
    7      -11.309514
    8      -11.237726
    9      -10.512566
   10      -10.504276
   11      -10.452393
   12      -10.451106
   13      -10.443291
   14      -10.442492
   15      -10.389399
   16      -10.380506
   17       -8.394009
   18       -8.391330
   19       -8.346685
   20       -8.345226
   21       -8.342292
   22       -8.341277
   23       -8.294356
   24       -8.291383
   25       -7.551361
   26       -7.502004
   27       -7.501726
   28       -7.451034
   29       -3.888492
   30       -3.223418
   31       -3.222139
   32       -2.693279
   33       -2.682422
   34       -2.674041
   35       -2.672179
   36       -2.663398
   37       -2.660980
   38       -2.652614
   39       -2.641955
   40       -2.434224
   41       -2.041889
   42       -2.026445
   43       -2.026266
   44       -2.010690
   45        0.517741
   46        0.533892
   47        0.543155
   48        0.543373
   49        0.552710
   50        0.846661
   51        0.854513
   52        0.854615
   53        0.862505
   54        1.000355
   55        1.001556
   56        1.352001
   57        1.361387
   58        1.521199
   59        1.726470
   60        1.729128
   61        1.739442
   62        1.741817
   63        2.084765
   64        2.102312
   65        5.923161
   66        5.933668
   67        6.138290
   68        6.142747
   69        6.144118
   70        6.148030
   71        6.521864
   72        6.525201
   73        6.658456
   74        6.962655
   75        6.964061
   76        7.394008
   77        8.294409
   78       10.501756
   79       10.504728
   80       11.545850
   81       11.667990
   82       11.668583
   83       11.787355
   84       12.206883
 
  0.1666667E+00  0.1666667E+00  0.0000000E+00  0.1388889E-01
    1      -14.892408
    2      -14.801726
    3      -14.801349
    4      -14.706665
    5      -11.999403
    6      -11.996612
    7      -11.926991
    8      -11.923931
    9      -11.923908
   10      -11.921356
   11      -11.849014
   12      -11.846141
   13       -9.672941
   14       -9.639118
   15       -9.637410
   16       -9.607276
   17       -8.624174
   18       -8.605615
   19       -8.602735
   20       -8.577332
   21       -6.445460
   22       -6.442099
   23       -6.403218
   24       -6.399015
   25       -6.398995
   26       -6.396721
   27       -6.355826
   28       -6.352598
   29       -4.023393
   30       -3.996292
   31       -3.993986
   32       -3.966245
   33       -3.489897
   34       -2.833910
   35       -2.832655
   36       -2.366717
   37       -2.364341
   38       -2.348385
   39       -2.346436
   40       -2.346429
   41       -2.343065
   42       -2.328001
   43       -2.324741
   44       -2.057162
   45       -0.507281
   46       -0.498126
   47       -0.494036
   48       -0.486580
   49       -0.112249
   50       -0.110324
   51        0.173868
   52        0.179381
   53        0.182445
   54        0.191051
   55        0.424902
   56        0.427185
   57        0.427252
   58        0.429956
   59        1.034656
   60        1.037020
   61        2.155161
   62        2.430471
   63        2.433433
   64        2.638847
   65        5.605078
   66        5.648844
   67        5.652693
   68        5.864802
   69        7.619085
   70        7.621636
   71        7.911938
   72        7.915809
   73        7.915926
   74        7.917459
   75        8.283151
   76        8.285627
   77        8.705623
   78       10.877703
   79       10.880535
   80       12.235731
   81       12.238455
   82       12.428354
   83       12.447046
   84       12.476462
 
  0.3333333E+00  0.1666667E+00  0.0000000E+00  0.1388889E-01
    1      -14.237236
    2      -14.150410
    3      -14.150005
    4      -14.059557
    5      -13.267002
    6      -13.185815
    7      -13.185436
    8      -13.101106
    9      -12.313949
   10      -12.238287
   11      -12.238016
   12      -12.159684
   13       -9.646772
   14       -9.591713
   15       -9.590928
   16       -9.534869
   17       -7.756832
   18       -7.720851
   19       -7.718594
   20       -7.681621
   21       -5.457382
   22       -5.430245
   23       -5.427818
   24       -5.398979
   25       -5.290006
   26       -5.259017
   27       -5.257908
   28       -5.226654
   29       -4.308590
   30       -4.276532
   31       -4.274400
   32       -4.241869
   33       -3.267112
   34       -3.246844
   35       -3.245022
   36       -3.223830
   37       -2.702740
   38       -2.228043
   39       -2.209914
   40       -2.205947
   41       -2.186915
   42       -2.065775
   43       -2.064366
   44       -1.728346
   45       -1.712024
   46       -1.709956
   47       -1.693369
   48       -1.554766
   49       -1.316608
   50       -0.952823
   51       -0.951588
   52       -0.830527
   53       -0.819240
   54       -0.815594
   55       -0.803203
   56       -0.443594
   57       -0.251323
   58        0.118861
   59        0.120197
   60        0.765701
   61        2.467584
   62        2.840518
   63        2.843154
   64        3.204003
   65        5.337446
   66        5.502294
   67        5.505321
   68        5.726591
   69        8.415351
   70        8.631060
   71        8.632594
   72        8.861395
   73        9.526945
   74        9.904073
   75       10.121486
   76       10.124028
   77       10.395571
   78       10.745660
   79       11.597852
   80       11.601327
   81       11.961936
   82       12.140294
   83       12.298780
   84       12.303027
 
  0.5000000E+00  0.1666667E+00  0.0000000E+00  0.1388889E-01
    1      -14.238356
    2      -14.151515
    3      -14.151133
    4      -14.060669
    5      -13.265414
    6      -13.184243
    7      -13.183839
    8      -13.099526
    9      -12.315122
   10      -12.239459
   11      -12.239194
   12      -12.160861
   13       -9.643151
   14       -9.587678
   15       -9.587269
   16       -9.530751
   17       -7.755764
   18       -7.718772
   19       -7.718222
   20       -7.680312
   21       -5.462656
   22       -5.434966
   23       -5.433981
   24       -5.404593
   25       -5.296474
   26       -5.265940
   27       -5.263485
   28       -5.232613
   29       -4.313667
   30       -4.281965
   31       -4.279142
   32       -4.247009
   33       -3.259255
   34       -3.239492
   35       -3.236136
   36       -3.215555
   37       -2.704265
   38       -2.221916
   39       -2.203156
   40       -2.201005
   41       -2.181080
   42       -2.067292
   43       -2.065870
   44       -1.723185
   45       -1.707227
   46       -1.704384
   47       -1.688054
   48       -1.552702
   49       -1.318191
   50       -0.950753
   51       -0.949497
   52       -0.836879
   53       -0.824902
   54       -0.823034
   55       -0.810654
   56       -0.445350
   57       -0.249223
   58        0.116811
   59        0.118286
   60        0.763378
   61        2.471173
   62        2.847108
   63        2.848748
   64        3.214339
   65        5.330112
   66        5.499030
   67        5.500585
   68        5.723630
   69        8.413743
   70        8.629289
   71        8.631399
   72        8.861001
   73        9.525111
   74        9.902547
   75       10.118320
   76       10.121456
   77       10.391556
   78       10.748229
   79       11.596178
   80       11.599591
   81       11.960669
   82       12.140007
   83       12.299456
   84       12.303428
 
 -0.3333333E+00  0.1666667E+00  0.0000000E+00  0.1388889E-01
    1      -14.893075
    2      -14.802382
    3      -14.802020
    4      -14.707326
    5      -12.001497
    6      -11.995899
    7      -11.927759
    8      -11.927483
    9      -11.922213
   10      -11.921814
   11      -11.851251
   12      -11.845633
   13       -9.659288
   14       -9.623962
   15       -9.623713
   16       -9.592069
   17       -8.630799
   18       -8.610678
   19       -8.610369
   20       -8.583392
   21       -6.449791
   22       -6.448157
   23       -6.406383
   24       -6.405092
   25       -6.404708
   26       -6.402964
   27       -6.360287
   28       -6.358906
   29       -4.032474
   30       -4.004386
   31       -4.004173
   32       -3.975419
   33       -3.490827
   34       -2.834858
   35       -2.833591
   36       -2.361694
   37       -2.354276
   38       -2.343460
   39       -2.341160
   40       -2.336308
   41       -2.333474
   42       -2.322723
   43       -2.315470
   44       -2.058131
   45       -0.501949
   46       -0.492491
   47       -0.492180
   48       -0.483056
   49       -0.116721
   50       -0.108645
   51        0.170187
   52        0.176532
   53        0.176863
   54        0.183624
   55        0.420286
   56        0.421910
   57        0.429230
   58        0.430751
   59        1.028434
   60        1.038432
   61        2.163359
   62        2.444742
   63        2.445984
   64        2.658890
   65        5.592189
   66        5.642296
   67        5.643678
   68        5.859845
   69        7.617508
   70        7.620383
   71        7.909688
   72        7.912837
   73        7.912998
   74        7.915415
   75        8.279671
   76        8.283546
   77        8.704483
   78       10.876258
   79       10.879088
   80       12.239657
   81       12.244756
   82       12.428186
   83       12.475675
   84       12.485723
 
 -0.1666667E+00  0.1666667E+00  0.0000000E+00  0.1388889E-01
    1      -15.222247
    2      -15.129605
    3      -15.129247
    4      -15.032421
    5      -11.385714
    6      -11.316230
    7      -11.315870
    8      -11.244176
    9      -10.503161
   10      -10.501273
   11      -10.443040
   12      -10.441006
   13      -10.440980
   14      -10.439090
   15      -10.379595
   16      -10.377540
   17       -8.395463
   18       -8.393696
   19       -8.348158
   20       -8.345207
   21       -8.345184
   22       -8.344760
   23       -8.295706
   24       -8.294071
   25       -7.555048
   26       -7.506283
   27       -7.504765
   28       -7.454614
   29       -3.888803
   30       -3.223738
   31       -3.222455
   32       -2.693692
   33       -2.691814
   34       -2.674293
   35       -2.673046
   36       -2.673038
   37       -2.669956
   38       -2.653496
   39       -2.650830
   40       -2.434550
   41       -2.030193
   42       -2.015803
   43       -2.013132
   44       -1.998712
   45        0.510012
   46        0.532156
   47        0.540489
   48        0.544268
   49        0.554643
   50        0.844555
   51        0.853088
   52        0.857084
   53        0.863383
   54        0.990153
   55        0.992088
   56        1.361886
   57        1.363689
   58        1.509044
   59        1.739791
   60        1.740834
   61        1.741103
   62        1.744538
   63        2.101461
   64        2.103865
   65        5.921948
   66        5.924863
   67        6.135762
   68        6.140723
   69        6.140985
   70        6.141811
   71        6.519260
   72        6.521747
   73        6.662155
   74        6.962721
   75        6.965667
   76        7.394013
   77        8.294017
   78       10.501253
   79       10.504226
   80       11.576425
   81       11.698221
   82       11.699762
   83       11.817737
   84       12.190376
 
  0.0000000E+00  0.3333333E+00  0.0000000E+00  0.1388889E-01
    1      -14.728362
    2      -14.638635
    3      -14.638276
    4      -14.544640
    5      -12.785504
    6      -12.707084
    7      -12.706735
    8      -12.625432
    9      -10.932121
   10      -10.927827
   11      -10.866361
   12      -10.864610
   13      -10.861232
   14      -10.859970
   15      -10.796294
   16      -10.791849
   17       -7.222080
   18       -7.216476
   19       -7.178038
   20       -7.177441
   21       -7.171179
   22       -7.170993
   23       -7.131278
   24       -7.125617
   25       -5.440488
   26       -5.400335
   27       -5.400042
   28       -5.359102
   29       -3.847041
   30       -3.837759
   31       -3.820770
   32       -3.819481
   33       -3.811571
   34       -3.809746
   35       -3.792250
   36       -3.783099
   37       -3.292381
   38       -2.641143
   39       -2.639888
   40       -1.870930
   41       -1.568289
   42       -1.553494
   43       -1.553256
   44       -1.538370
   45       -1.114582
   46       -1.096014
   47       -1.095502
   48       -1.076843
   49       -1.002592
   50       -0.423538
   51       -0.422321
   52        0.049551
   53        0.060835
   54        0.061033
   55        0.072460
   56        0.245436
   57        1.070524
   58        1.076259
   59        1.539774
   60        1.542159
   61        1.547420
   62        1.549466
   63        2.050958
   64        2.060214
   65        6.469543
   66        6.474492
   67        6.712701
   68        6.716931
   69        6.717302
   70        6.720922
   71        7.016784
   72        7.020731
   73        8.819127
   74        8.909091
   75        9.101182
   76        9.102920
   77        9.466522
   78       11.054662
   79       11.057399
   80       11.304957
   81       11.827645
   82       11.889407
   83       11.890184
   84       12.095116
 
  0.1666667E+00  0.3333333E+00  0.0000000E+00  0.1388889E-01
    1      -14.237223
    2      -14.150385
    3      -14.150002
    4      -14.059542
    5      -13.266967
    6      -13.185751
    7      -13.185427
    8      -13.101068
    9      -12.313994
   10      -12.238363
   11      -12.238030
   12      -12.159729
   13       -9.646713
   14       -9.591590
   15       -9.590925
   16       -9.534803
   17       -7.757165
   18       -7.720855
   19       -7.719389
   20       -7.682104
   21       -5.456957
   22       -5.429529
   23       -5.427815
   24       -5.398669
   25       -5.291285
   26       -5.260535
   27       -5.259020
   28       -5.228013
   29       -4.307292
   30       -4.274404
   31       -4.273984
   32       -4.240613
   33       -3.265597
   34       -3.245018
   35       -3.243783
   36       -3.222249
   37       -2.702776
   38       -2.226790
   39       -2.208207
   40       -2.205944
   41       -2.186248
   42       -2.065815
   43       -2.064399
   44       -1.729682
   45       -1.712975
   46       -1.712027
   47       -1.695151
   48       -1.554967
   49       -1.316662
   50       -0.953096
   51       -0.951802
   52       -0.831094
   53       -0.819243
   54       -0.817385
   55       -0.805177
   56       -0.443290
   57       -0.251616
   58        0.119282
   59        0.120483
   60        0.766130
   61        2.468023
   62        2.841354
   63        2.843222
   64        3.204418
   65        5.337111
   66        5.502205
   67        5.504082
   68        5.725648
   69        8.414260
   70        8.629892
   71        8.631556
   72        8.860238
   73        9.526947
   74        9.905096
   75       10.122661
   76       10.124703
   77       10.396539
   78       10.745624
   79       11.597669
   80       11.601185
   81       11.961960
   82       12.140608
   83       12.299339
   84       12.303288
 
  0.3333333E+00  0.3333333E+00  0.0000000E+00  0.1388889E-01
    1      -13.430816
    2      -13.428252
    3      -13.425889
    4      -13.350335
    5      -13.346739
    6      -13.346716
    7      -13.345763
    8      -13.344001
    9      -13.342100
   10      -13.262839
   11      -13.260339
   12      -13.257875
   13       -8.428869
   14       -8.378827
   15       -8.376642
   16       -8.369579
   17       -8.366345
   18       -8.360166
   19       -8.358408
   20       -8.309466
   21       -6.325122
   22       -6.324837
   23       -6.323188
   24       -6.322888
   25       -3.559080
   26       -3.551675
   27       -3.548896
   28       -3.543672
   29       -3.539779
   30       -3.535189
   31       -3.533827
   32       -3.533807
   33       -3.529411
   34       -3.525292
   35       -3.518333
   36       -3.513735
   37       -2.201984
   38       -2.195905
   39       -2.190754
   40       -2.189395
   41       -2.184889
   42       -2.184881
   43       -2.184002
   44       -2.179814
   45       -2.176588
   46       -2.174306
   47       -2.171087
   48       -2.162978
   49       -1.743251
   50       -1.741151
   51       -1.738033
   52       -1.135631
   53       -1.132280
   54       -1.132212
   55       -1.131094
   56       -1.128909
   57       -1.126818
   58       -0.422768
   59       -0.420460
   60       -0.417103
   61        3.745722
   62        4.188230
   63        4.192513
   64        4.195313
   65        4.196073
   66        4.212119
   67        4.214076
   68        4.704522
   69       10.408563
   70       10.412384
   71       10.413075
   72       10.537339
   73       10.549588
   74       10.552430
   75       10.573317
   76       10.574319
   77       10.576111
   78       10.576206
   79       10.576407
   80       10.589726
   81       10.740420
   82       10.746449
   83       10.749353
   84       12.518200
 
  0.5000000E+00  0.3333333E+00  0.0000000E+00  0.1388889E-01
    1      -14.239010
    2      -14.152150
    3      -14.151799
    4      -14.061316
    5      -13.268747
    6      -13.187503
    7      -13.187229
    8      -13.102841
    9      -12.310342
   10      -12.234754
   11      -12.234345
   12      -12.156089
   13       -9.635605
   14       -9.580049
   15       -9.579843
   16       -9.523267
   17       -7.765786
   18       -7.729521
   19       -7.728403
   20       -7.691243
   21       -5.459319
   22       -5.431524
   23       -5.430976
   24       -5.401487
   25       -5.300594
   26       -5.270666
   27       -5.267763
   28       -5.237587
   29       -4.315030
   30       -4.282886
   31       -4.280576
   32       -4.247911
   33       -3.258207
   34       -3.238439
   35       -3.235585
   36       -3.214763
   37       -2.705263
   38       -2.226743
   39       -2.207555
   40       -2.205897
   41       -2.185537
   42       -2.068385
   43       -2.066932
   44       -1.719773
   45       -1.703967
   46       -1.700569
   47       -1.684768
   48       -1.557608
   49       -1.319300
   50       -0.955949
   51       -0.954550
   52       -0.831473
   53       -0.819792
   54       -0.817369
   55       -0.805517
   56       -0.438668
   57       -0.254697
   58        0.123887
   59        0.125210
   60        0.770870
   61        2.478486
   62        2.854098
   63        2.855444
   64        3.219621
   65        5.330180
   66        5.491787
   67        5.493817
   68        5.710453
   69        8.412202
   70        8.624100
   71        8.627055
   72        8.851829
   73        9.524184
   74        9.901657
   75       10.118742
   76       10.121228
   77       10.394647
   78       10.743424
   79       11.593260
   80       11.596916
   81       11.967456
   82       12.137832
   83       12.301130
   84       12.304976
 
 -0.3333333E+00  0.3333333E+00  0.0000000E+00  0.1388889E-01
    1      -14.729249
    2      -14.639508
    3      -14.639167
    4      -14.545519
    5      -12.789138
    6      -12.710685
    7      -12.710404
    8      -12.629064
    9      -10.924497
   10      -10.922814
   11      -10.858600
   12      -10.856632
   13      -10.856610
   14      -10.855148
   15      -10.788664
   16      -10.786909
   17       -7.224753
   18       -7.222891
   19       -7.181696
   20       -7.178463
   21       -7.178444
   22       -7.178121
   23       -7.134323
   24       -7.132608
   25       -5.446367
   26       -5.406773
   27       -5.405071
   28       -5.364674
   29       -3.844335
   30       -3.842746
   31       -3.817862
   32       -3.817255
   33       -3.817245
   34       -3.814178
   35       -3.790061
   36       -3.787877
   37       -3.293637
   38       -2.642435
   39       -2.641158
   40       -1.872263
   41       -1.558176
   42       -1.544468
   43       -1.541519
   44       -1.527852
   45       -1.119010
   46       -1.101257
   47       -1.098285
   48       -1.080249
   49       -1.007788
   50       -0.429223
   51       -0.427801
   52        0.052768
   53        0.063228
   54        0.067094
   55        0.076991
   56        0.239235
   57        1.079765
   58        1.081583
   59        1.550612
   60        1.551798
   61        1.552060
   62        1.555298
   63        2.062861
   64        2.065167
   65        6.466874
   66        6.469527
   67        6.707248
   68        6.712113
   69        6.712464
   70        6.713188
   71        7.009070
   72        7.011634
   73        8.817136
   74        8.907693
   75        9.098187
   76        9.100681
   77        9.465097
   78       11.052834
   79       11.055588
   80       11.302524
   81       11.855356
   82       11.915560
   83       11.917469
   84       12.120968
 
 -0.1666667E+00  0.3333333E+00  0.0000000E+00  0.1388889E-01
    1      -14.893063
    2      -14.802362
    3      -14.802016
    4      -14.707314
    5      -12.001906
    6      -11.995622
    7      -11.928920
    8      -11.927527
    9      -11.921859
   10      -11.920963
   11      -11.851545
   12      -11.845206
   13       -9.658641
   14       -9.623719
   15       -9.622557
   16       -9.591314
   17       -8.632502
   18       -8.613602
   19       -8.610387
   20       -8.584750
   21       -6.450691
   22       -6.446763
   23       -6.407402
   24       -6.406378
   25       -6.402967
   26       -6.400998
   27       -6.361138
   28       -6.357099
   29       -4.031575
   30       -4.004180
   31       -4.002386
   32       -3.974307
   33       -3.490857
   34       -2.834899
   35       -2.833619
   36       -2.362933
   37       -2.354292
   38       -2.343797
   39       -2.343460
   40       -2.335495
   41       -2.333474
   42       -2.323933
   43       -2.315120
   44       -2.058173
   45       -0.500637
   46       -0.492175
   47       -0.488876
   48       -0.479242
   49       -0.116787