   4   4   0   0
  0.9128901E+01  0.2467155E-09  0.2467155E-09  0.6927515E-09  0.5000000E-15
  1.000000000000000E-004
  CAR 
 graphite                                
     18.12937811    -17.19816745  301      4.39265995      1.00000000
    -17.198  0.0000E+00  0.0000E+00
    -17.080  0.0000E+00  0.0000E+00
    -16.963  0.0000E+00  0.0000E+00
    -16.845  0.0000E+00  0.0000E+00
    -16.727  0.0000E+00  0.0000E+00
    -16.609  0.0000E+00  0.0000E+00
    -16.492  0.0000E+00  0.0000E+00
    -16.374  0.0000E+00  0.0000E+00
    -16.256  0.0000E+00  0.0000E+00
    -16.138  0.0000E+00  0.0000E+00
    -16.021  0.0000E+00  0.0000E+00
    -15.903  0.0000E+00  0.0000E+00
    -15.785  0.0000E+00  0.0000E+00
    -15.667  0.0000E+00  0.0000E+00
    -15.550  0.0000E+00  0.0000E+00
    -15.432  0.0000E+00  0.0000E+00
    -15.314  0.0000E+00  0.0000E+00
    -15.196  0.1811E-05  0.1144E-08
    -15.079  0.1381E-02  0.9259E-04
    -14.961  0.2707E-02  0.3222E-03
    -14.843  0.3024E-02  0.6793E-03
    -14.725  0.3091E-02  0.1043E-02
    -14.607  0.3093E-02  0.1406E-02
    -14.490  0.3091E-02  0.1771E-02
    -14.372  0.3079E-02  0.2132E-02
    -14.254  0.3128E-02  0.2499E-02
    -14.136  0.3115E-02  0.2866E-02
    -14.019  0.3067E-02  0.3229E-02
    -13.901  0.3112E-02  0.3593E-02
    -13.783  0.3151E-02  0.3963E-02
    -13.665  0.3137E-02  0.4333E-02
    -13.548  0.3099E-02  0.4700E-02
    -13.430  0.3113E-02  0.5065E-02
    -13.312  0.3149E-02  0.5434E-02
    -13.194  0.3180E-02  0.5807E-02
    -13.077  0.3168E-02  0.6181E-02
    -12.959  0.3136E-02  0.6552E-02
    -12.841  0.3144E-02  0.6922E-02
    -12.723  0.3167E-02  0.7293E-02
    -12.606  0.3198E-02  0.7668E-02
    -12.488  0.3216E-02  0.8046E-02
    -12.370  0.3206E-02  0.8424E-02
    -12.252  0.3190E-02  0.8800E-02
    -12.135  0.3199E-02  0.9177E-02
    -12.017  0.3216E-02  0.9554E-02
    -11.899  0.3241E-02  0.9934E-02
    -11.781  0.3270E-02  0.1032E-01
    -11.664  0.3279E-02  0.1070E-01
    -11.546  0.3272E-02  0.1109E-01
    -11.428  0.3278E-02  0.1148E-01
    -11.310  0.3298E-02  0.1186E-01
    -11.192  0.3324E-02  0.1225E-01
    -11.075  0.3352E-02  0.1264E-01
    -10.957  0.3390E-02  0.1304E-01
    -10.839  0.3431E-02  0.1344E-01
    -10.721  0.3460E-02  0.1385E-01
    -10.604  0.3506E-02  0.1426E-01
    -10.486  0.3597E-02  0.1468E-01
    -10.368  0.3744E-02  0.1511E-01
    -10.250  0.3958E-02  0.1556E-01
    -10.133  0.4326E-02  0.1604E-01
    -10.015  0.5490E-02  0.1664E-01
     -9.897  0.4263E-02  0.1725E-01
     -9.779  0.3231E-02  0.1767E-01
     -9.662  0.3758E-02  0.1814E-01
     -9.544  0.2275E-02  0.1851E-01
     -9.426  0.2023E-02  0.1876E-01
     -9.308  0.1771E-02  0.1898E-01
     -9.191  0.1519E-02  0.1918E-01
     -9.073  0.1651E-02  0.1935E-01
     -8.955  0.1705E-02  0.1958E-01
     -8.837  0.8487E-03  0.1972E-01
     -8.720  0.1147E-02  0.1983E-01
     -8.602  0.2161E-02  0.2001E-01
     -8.484  0.3939E-02  0.2043E-01
     -8.366  0.2709E-02  0.2082E-01
     -8.249  0.2840E-02  0.2115E-01
     -8.131  0.4616E-02  0.2158E-01
     -8.013  0.4009E-02  0.2211E-01
     -7.895  0.4682E-02  0.2263E-01
     -7.777  0.5396E-02  0.2322E-01
     -7.660  0.4517E-02  0.2384E-01
     -7.542  0.3835E-02  0.2431E-01
     -7.424  0.3680E-02  0.2475E-01
     -7.306  0.3532E-02  0.2517E-01
     -7.189  0.3388E-02  0.2558E-01
     -7.071  0.3248E-02  0.2597E-01
     -6.953  0.3107E-02  0.2635E-01
     -6.835  0.2995E-02  0.2670E-01
     -6.718  0.2959E-02  0.2705E-01
     -6.600  0.2923E-02  0.2740E-01
     -6.482  0.2887E-02  0.2774E-01
     -6.364  0.2849E-02  0.2808E-01
     -6.247  0.2708E-02  0.2841E-01
     -6.129  0.2574E-02  0.2872E-01
     -6.011  0.2942E-02  0.2904E-01
     -5.893  0.3373E-02  0.2941E-01
     -5.776  0.3804E-02  0.2983E-01
     -5.658  0.3861E-02  0.3030E-01
     -5.540  0.3716E-02  0.3074E-01
     -5.422  0.3659E-02  0.3117E-01
     -5.305  0.3602E-02  0.3160E-01
     -5.187  0.3621E-02  0.3202E-01
     -5.069  0.3723E-02  0.3246E-01
     -4.951  0.3816E-02  0.3290E-01
     -4.834  0.3907E-02  0.3336E-01
     -4.716  0.3948E-02  0.3382E-01
     -4.598  0.3958E-02  0.3428E-01
     -4.480  0.3965E-02  0.3475E-01
     -4.362  0.3922E-02  0.3521E-01
     -4.245  0.4030E-02  0.3568E-01
     -4.127  0.4071E-02  0.3616E-01
     -4.009  0.4111E-02  0.3664E-01
     -3.891  0.4463E-02  0.3713E-01
     -3.774  0.4766E-02  0.3768E-01
     -3.656  0.5112E-02  0.3826E-01
     -3.538  0.5334E-02  0.3888E-01
     -3.420  0.5550E-02  0.3952E-01
     -3.303  0.5766E-02  0.4018E-01
     -3.185  0.5953E-02  0.4088E-01
     -3.067  0.6132E-02  0.4159E-01
     -2.949  0.6517E-02  0.4233E-01
     -2.832  0.7240E-02  0.4313E-01
     -2.714  0.7867E-02  0.4403E-01
     -2.596  0.7982E-02  0.4496E-01
     -2.478  0.7926E-02  0.4590E-01
     -2.361  0.7406E-02  0.4682E-01
     -2.243  0.7750E-02  0.4770E-01
     -2.125  0.1071E-01  0.4878E-01
     -2.007  0.1251E-01  0.5017E-01
     -1.890  0.1042E-01  0.5155E-01
     -1.772  0.9591E-02  0.5273E-01
     -1.654  0.8756E-02  0.5380E-01
     -1.536  0.7407E-02  0.5473E-01
     -1.419  0.7283E-02  0.5559E-01
     -1.301  0.5829E-02  0.5639E-01
     -1.183  0.6594E-02  0.5713E-01
     -1.065  0.6776E-02  0.5795E-01
     -0.947  0.7385E-02  0.5879E-01
     -0.830  0.6402E-02  0.5966E-01
     -0.712  0.6605E-02  0.6044E-01
     -0.594  0.6682E-02  0.6122E-01
     -0.476  0.6789E-02  0.6201E-01
     -0.359  0.6756E-02  0.6281E-01
     -0.241  0.6289E-02  0.6358E-01
     -0.123  0.6121E-02  0.6431E-01
     -0.005  0.5994E-02  0.6502E-01
      0.112  0.5878E-02  0.6572E-01
      0.230  0.5762E-02  0.6640E-01
      0.348  0.5759E-02  0.6708E-01
      0.466  0.5869E-02  0.6777E-01
      0.583  0.5767E-02  0.6846E-01
      0.701  0.5625E-02  0.6913E-01
      0.819  0.5501E-02  0.6978E-01
      0.937  0.5777E-02  0.7045E-01
      1.054  0.5581E-02  0.7111E-01
      1.172  0.5673E-02  0.7179E-01
      1.290  0.5566E-02  0.7246E-01
      1.408  0.3676E-02  0.7300E-01
      1.525  0.3902E-02  0.7344E-01
      1.643  0.4650E-02  0.7393E-01
      1.761  0.4507E-02  0.7448E-01
      1.879  0.4462E-02  0.7500E-01
      1.996  0.4435E-02  0.7553E-01
      2.114  0.4728E-02  0.7606E-01
      2.232  0.4626E-02  0.7661E-01
      2.350  0.3936E-02  0.7714E-01
      2.467  0.3182E-02  0.7756E-01
      2.585  0.2715E-02  0.7790E-01
      2.703  0.2436E-02  0.7821E-01
      2.821  0.2142E-02  0.7848E-01
      2.939  0.1982E-02  0.7871E-01
      3.056  0.1875E-02  0.7894E-01
      3.174  0.1604E-02  0.7915E-01
      3.292  0.1345E-02  0.7932E-01
      3.410  0.1178E-02  0.7947E-01
      3.527  0.1016E-02  0.7960E-01
      3.645  0.8519E-03  0.7971E-01
      3.763  0.6913E-03  0.7980E-01
      3.881  0.5364E-03  0.7987E-01
      3.998  0.3907E-03  0.7993E-01
      4.116  0.2621E-03  0.7996E-01
      4.234  0.1443E-03  0.7999E-01
      4.352  0.3505E-04  0.8000E-01
      4.469  0.5013E-04  0.8000E-01
      4.587  0.1360E-03  0.8001E-01
      4.705  0.2325E-03  0.8003E-01
      4.823  0.3425E-03  0.8007E-01
      4.940  0.4737E-03  0.8012E-01
      5.058  0.6447E-03  0.8018E-01
      5.176  0.8872E-03  0.8027E-01
      5.294  0.1160E-02  0.8039E-01
      5.411  0.1430E-02  0.8054E-01
      5.529  0.1762E-02  0.8073E-01
      5.647  0.1798E-02  0.8094E-01
      5.765  0.2494E-02  0.8119E-01
      5.882  0.3810E-02  0.8157E-01
      6.000  0.5364E-02  0.8213E-01
      6.118  0.4811E-02  0.8272E-01
      6.236  0.4684E-02  0.8327E-01
      6.354  0.4324E-02  0.8382E-01
      6.471  0.4355E-02  0.8433E-01
      6.589  0.4353E-02  0.8485E-01
      6.707  0.3642E-02  0.8530E-01
      6.825  0.3370E-02  0.8571E-01
      6.942  0.3151E-02  0.8610E-01
      7.060  0.2992E-02  0.8646E-01
      7.178  0.2868E-02  0.8680E-01
      7.296  0.2758E-02  0.8713E-01
      7.413  0.2660E-02  0.8745E-01
      7.531  0.2586E-02  0.8776E-01
      7.649  0.2526E-02  0.8806E-01
      7.767  0.2469E-02  0.8836E-01
      7.884  0.2413E-02  0.8864E-01
      8.002  0.2352E-02  0.8893E-01
      8.120  0.2286E-02  0.8920E-01
      8.238  0.2228E-02  0.8946E-01
      8.355  0.2177E-02  0.8972E-01
      8.473  0.2133E-02  0.8998E-01
      8.591  0.2294E-02  0.9024E-01
      8.709  0.2403E-02  0.9051E-01
      8.826  0.2459E-02  0.9080E-01
      8.944  0.2488E-02  0.9109E-01
      9.062  0.2543E-02  0.9139E-01
      9.180  0.2579E-02  0.9169E-01
      9.297  0.2575E-02  0.9199E-01
      9.415  0.2587E-02  0.9230E-01
      9.533  0.2611E-02  0.9260E-01
      9.651  0.2629E-02  0.9291E-01
      9.769  0.2659E-02  0.9322E-01
      9.886  0.2738E-02  0.9354E-01
     10.004  0.2818E-02  0.9387E-01
     10.122  0.2904E-02  0.9421E-01
     10.240  0.3117E-02  0.9456E-01
     10.357  0.3719E-02  0.9496E-01
     10.475  0.3178E-02  0.9537E-01
     10.593  0.2706E-02  0.9572E-01
     10.711  0.2458E-02  0.9602E-01
     10.828  0.2196E-02  0.9629E-01
     10.946  0.2112E-02  0.9655E-01
     11.064  0.2194E-02  0.9680E-01
     11.182  0.2346E-02  0.9706E-01
     11.299  0.2753E-02  0.9737E-01
     11.417  0.2951E-02  0.9770E-01
     11.535  0.3066E-02  0.9806E-01
     11.653  0.3435E-02  0.9843E-01
     11.770  0.5146E-02  0.9894E-01
     11.888  0.6958E-02  0.9964E-01
     12.006  0.8459E-02  0.1006E+00
     12.124  0.9237E-02  0.1016E+00
     12.241  0.8880E-02  0.1027E+00
     12.359  0.7984E-02  0.1037E+00
     12.477  0.7699E-02  0.1046E+00
     12.595  0.7801E-02  0.1055E+00
     12.712  0.8219E-02  0.1065E+00
     12.830  0.1536E-01  0.1079E+00
     12.948  0.1237E-01  0.1096E+00
     13.066  0.7856E-02  0.1108E+00
     13.184  0.5768E-02  0.1116E+00
     13.301  0.4948E-02  0.1122E+00
     13.419  0.4640E-02  0.1128E+00
     13.537  0.4034E-02  0.1133E+00
     13.655  0.3772E-02  0.1138E+00
     13.772  0.3634E-02  0.1142E+00
     13.890  0.3489E-02  0.1147E+00
     14.008  0.3088E-02  0.1150E+00
     14.126  0.2673E-02  0.1154E+00
     14.243  0.2692E-02  0.1157E+00
     14.361  0.2971E-02  0.1160E+00
     14.479  0.3169E-02  0.1164E+00
     14.597  0.2751E-02  0.1167E+00
     14.714  0.3300E-02  0.1171E+00
     14.832  0.4567E-02  0.1175E+00
     14.950  0.4628E-02  0.1181E+00
     15.068  0.3425E-02  0.1186E+00
     15.185  0.2703E-02  0.1189E+00
     15.303  0.2283E-02  0.1192E+00
     15.421  0.2146E-02  0.1195E+00
     15.539  0.1775E-02  0.1197E+00
     15.656  0.1609E-02  0.1199E+00
     15.774  0.1522E-03  0.1200E+00
     15.892  0.6179E-04  0.1200E+00
     16.010  0.1541E-04  0.1200E+00
     16.127  0.1356E-08  0.1200E+00
     16.245  0.0000E+00  0.1200E+00
     16.363  0.0000E+00  0.1200E+00
     16.481  0.0000E+00  0.1200E+00
     16.599  0.0000E+00  0.1200E+00
     16.716  0.0000E+00  0.1200E+00
     16.834  0.0000E+00  0.1200E+00
     16.952  0.0000E+00  0.1200E+00
     17.070  0.0000E+00  0.1200E+00
     17.187  0.0000E+00  0.1200E+00
     17.305  0.0000E+00  0.1200E+00
     17.423  0.0000E+00  0.1200E+00
     17.541  0.0000E+00  0.1200E+00
     17.658  0.0000E+00  0.1200E+00
     17.776  0.0000E+00  0.1200E+00
     17.894  0.0000E+00  0.1200E+00
     18.012  0.0000E+00  0.1200E+00
     18.129  0.0000E+00  0.1200E+00
