       N       E                     dE             d eps       ncg     rms          rms(c)
DAV:   1     0.581410422124E+02    0.58141E+02   -0.89755E+03 10928   0.137E+03
DAV:   2    -0.348293531590E+02   -0.92970E+02   -0.85905E+02 15416   0.244E+02
DAV:   3    -0.391824135747E+02   -0.43531E+01   -0.43168E+01 13884   0.534E+01
DAV:   4    -0.392394334678E+02   -0.57020E-01   -0.56931E-01 13564   0.708E+00
DAV:   5    -0.392406853565E+02   -0.12519E-02   -0.12513E-02 13568   0.102E+00    0.779E+00
DAV:   6    -0.374256626733E+02    0.18150E+01   -0.17956E+00 12732   0.934E+00    0.409E+00
DAV:   7    -0.368453376193E+02    0.58033E+00   -0.18868E+00 12992   0.967E+00    0.689E-01
DAV:   8    -0.368544601244E+02   -0.91225E-02   -0.52161E-02 12604   0.157E+00    0.895E-02
DAV:   9    -0.368546690324E+02   -0.20891E-03   -0.12892E-03 13848   0.301E-01    0.398E-02
DAV:  10    -0.368548306180E+02   -0.16159E-03   -0.18416E-04 13372   0.119E-01    0.573E-03
DAV:  11    -0.368548326604E+02   -0.20424E-05   -0.36470E-06 13828   0.162E-02    0.184E-03
DAV:  12    -0.368548330033E+02   -0.34291E-06   -0.91033E-07 10640   0.808E-03
   1 F= -.37221664E+02 E0= -.37221664E+02  d E =-.372217E+02
