  32  32   0   0
  0.4431505E+01  0.4934311E-09  0.4934311E-09  0.6725742E-09  0.5000000E-15
  1.000000000000000E-004
  CAR 
 graphite                                
     25.84909885    -13.32857607  301     15.61248092      1.00000000
    -13.329  0.0000E+00  0.0000E+00
    -13.198  0.0000E+00  0.0000E+00
    -13.067  0.0000E+00  0.0000E+00
    -12.937  0.0000E+00  0.0000E+00
    -12.806  0.0000E+00  0.0000E+00
    -12.676  0.0000E+00  0.0000E+00
    -12.545  0.0000E+00  0.0000E+00
    -12.414  0.0000E+00  0.0000E+00
    -12.284  0.0000E+00  0.0000E+00
    -12.153  0.0000E+00  0.0000E+00
    -12.023  0.0000E+00  0.0000E+00
    -11.892  0.0000E+00  0.0000E+00
    -11.761  0.0000E+00  0.0000E+00
    -11.631  0.0000E+00  0.0000E+00
    -11.500  0.0000E+00  0.0000E+00
    -11.370  0.0000E+00  0.0000E+00
    -11.239  0.2506E+00  0.8300E-02
    -11.109  0.6100E+00  0.6647E-01
    -10.978  0.7576E+00  0.1557E+00
    -10.847  0.8928E+00  0.2628E+00
    -10.717  0.1061E+01  0.3911E+00
    -10.586  0.1160E+01  0.5373E+00
    -10.456  0.1260E+01  0.6953E+00
    -10.325  0.1364E+01  0.8668E+00
    -10.194  0.1440E+01  0.1050E+01
    -10.064  0.1535E+01  0.1244E+01
     -9.933  0.1725E+01  0.1458E+01
     -9.803  0.1862E+01  0.1689E+01
     -9.672  0.1880E+01  0.1939E+01
     -9.541  0.1723E+01  0.2166E+01
     -9.411  0.2129E+01  0.2416E+01
     -9.280  0.2237E+01  0.2707E+01
     -9.150  0.2490E+01  0.2998E+01
     -9.019  0.2732E+01  0.3355E+01
     -8.888  0.1694E+01  0.3627E+01
     -8.758  0.1359E+01  0.3810E+01
     -8.627  0.1695E+01  0.4007E+01
     -8.497  0.2385E+01  0.4263E+01
     -8.366  0.3065E+01  0.4631E+01
     -8.235  0.2641E+01  0.5018E+01
     -8.105  0.2548E+01  0.5347E+01
     -7.974  0.2536E+01  0.5679E+01
     -7.844  0.2573E+01  0.6013E+01
     -7.713  0.2992E+01  0.6364E+01
     -7.583  0.3120E+01  0.6764E+01
     -7.452  0.3357E+01  0.7190E+01
     -7.321  0.3193E+01  0.7622E+01
     -7.191  0.2904E+01  0.8020E+01
     -7.060  0.2560E+01  0.8374E+01
     -6.930  0.2549E+01  0.8705E+01
     -6.799  0.2682E+01  0.9044E+01
     -6.668  0.3316E+01  0.9429E+01
     -6.538  0.3366E+01  0.9863E+01
     -6.407  0.3815E+01  0.1033E+02
     -6.277  0.3702E+01  0.1083E+02
     -6.146  0.3351E+01  0.1129E+02
     -6.015  0.3343E+01  0.1172E+02
     -5.885  0.3234E+01  0.1216E+02
     -5.754  0.3661E+01  0.1261E+02
     -5.624  0.3690E+01  0.1309E+02
     -5.493  0.3616E+01  0.1357E+02
     -5.362  0.3530E+01  0.1403E+02
     -5.232  0.3811E+01  0.1453E+02
     -5.101  0.3718E+01  0.1502E+02
     -4.971  0.3555E+01  0.1549E+02
     -4.840  0.3826E+01  0.1597E+02
     -4.709  0.4173E+01  0.1650E+02
     -4.579  0.4377E+01  0.1706E+02
     -4.448  0.4573E+01  0.1764E+02
     -4.318  0.4960E+01  0.1826E+02
     -4.187  0.4590E+01  0.1891E+02
     -4.057  0.3003E+01  0.1941E+02
     -3.926  0.1965E+01  0.1972E+02
     -3.795  0.1360E+01  0.1994E+02
     -3.665  0.1300E+01  0.2011E+02
     -3.534  0.1729E+01  0.2030E+02
     -3.404  0.3627E+01  0.2066E+02
     -3.273  0.5408E+01  0.2122E+02
     -3.142  0.5886E+01  0.2196E+02
     -3.012  0.5772E+01  0.2271E+02
     -2.881  0.4800E+01  0.2342E+02
     -2.751  0.4202E+01  0.2400E+02
     -2.620  0.3940E+01  0.2453E+02
     -2.489  0.3721E+01  0.2504E+02
     -2.359  0.3969E+01  0.2554E+02
     -2.228  0.4288E+01  0.2608E+02
     -2.098  0.4529E+01  0.2665E+02
     -1.967  0.4270E+01  0.2721E+02
     -1.836  0.4484E+01  0.2778E+02
     -1.706  0.4466E+01  0.2836E+02
     -1.575  0.5080E+01  0.2900E+02
     -1.445  0.5044E+01  0.2965E+02
     -1.314  0.5180E+01  0.3032E+02
     -1.183  0.5015E+01  0.3100E+02
     -1.053  0.4793E+01  0.3164E+02
     -0.922  0.4087E+01  0.3222E+02
     -0.792  0.4062E+01  0.3274E+02
     -0.661  0.4579E+01  0.3330E+02
     -0.531  0.5453E+01  0.3395E+02
     -0.400  0.5616E+01  0.3468E+02
     -0.269  0.5836E+01  0.3543E+02
     -0.139  0.6213E+01  0.3621E+02
     -0.008  0.6420E+01  0.3704E+02
      0.122  0.6168E+01  0.3787E+02
      0.253  0.6214E+01  0.3867E+02
      0.384  0.6063E+01  0.3948E+02
      0.514  0.5674E+01  0.4026E+02
      0.645  0.4981E+01  0.4095E+02
      0.775  0.4270E+01  0.4156E+02
      0.906  0.3890E+01  0.4210E+02
      1.037  0.3735E+01  0.4257E+02
      1.167  0.4444E+01  0.4312E+02
      1.298  0.4622E+01  0.4371E+02
      1.428  0.6087E+01  0.4442E+02
      1.559  0.6460E+01  0.4527E+02
      1.690  0.6150E+01  0.4609E+02
      1.820  0.6278E+01  0.4690E+02
      1.951  0.6395E+01  0.4773E+02
      2.081  0.5880E+01  0.4853E+02
      2.212  0.6253E+01  0.4931E+02
      2.342  0.6220E+01  0.5013E+02
      2.473  0.5733E+01  0.5091E+02
      2.604  0.6562E+01  0.5169E+02
      2.734  0.6239E+01  0.5255E+02
      2.865  0.7552E+01  0.5344E+02
      2.995  0.8106E+01  0.5446E+02
      3.126  0.7682E+01  0.5552E+02
      3.257  0.5650E+01  0.5635E+02
      3.387  0.5463E+01  0.5705E+02
      3.518  0.6110E+01  0.5782E+02
      3.648  0.7399E+01  0.5869E+02
      3.779  0.8296E+01  0.5969E+02
      3.910  0.8386E+01  0.6077E+02
      4.040  0.9300E+01  0.6193E+02
      4.171  0.9899E+01  0.6316E+02
      4.301  0.7101E+01  0.6429E+02
      4.432  0.7467E+01  0.6516E+02
      4.563  0.1022E+02  0.6635E+02
      4.693  0.9766E+01  0.6762E+02
      4.824  0.8931E+01  0.6887E+02
      4.954  0.7892E+01  0.6994E+02
      5.085  0.7654E+01  0.7091E+02
      5.216  0.8509E+01  0.7199E+02
      5.346  0.6260E+01  0.7297E+02
      5.477  0.6220E+01  0.7377E+02
      5.607  0.6689E+01  0.7464E+02
      5.738  0.6791E+01  0.7552E+02
      5.868  0.7094E+01  0.7642E+02
      5.999  0.7349E+01  0.7737E+02
      6.130  0.7593E+01  0.7833E+02
      6.260  0.7057E+01  0.7931E+02
      6.391  0.7610E+01  0.8028E+02
      6.521  0.7603E+01  0.8129E+02
      6.652  0.8757E+01  0.8242E+02
      6.783  0.5984E+01  0.8344E+02
      6.913  0.5497E+01  0.8417E+02
      7.044  0.6462E+01  0.8494E+02
      7.174  0.7735E+01  0.8588E+02
      7.305  0.8021E+01  0.8687E+02
      7.436  0.8044E+01  0.8792E+02
      7.566  0.6445E+01  0.8892E+02
      7.697  0.5536E+01  0.8965E+02
      7.827  0.7147E+01  0.9048E+02
      7.958  0.8110E+01  0.9154E+02
      8.089  0.7150E+01  0.9253E+02
      8.219  0.6565E+01  0.9343E+02
      8.350  0.6245E+01  0.9425E+02
      8.480  0.6855E+01  0.9510E+02
      8.611  0.6129E+01  0.9597E+02
      8.742  0.5638E+01  0.9673E+02
      8.872  0.6028E+01  0.9748E+02
      9.003  0.7207E+01  0.9835E+02
      9.133  0.7360E+01  0.9932E+02
      9.264  0.6387E+01  0.1002E+03
      9.394  0.6256E+01  0.1010E+03
      9.525  0.6054E+01  0.1018E+03
      9.656  0.6040E+01  0.1026E+03
      9.786  0.5651E+01  0.1034E+03
      9.917  0.5061E+01  0.1041E+03
     10.047  0.4383E+01  0.1047E+03
     10.178  0.4838E+01  0.1053E+03
     10.309  0.5481E+01  0.1060E+03
     10.439  0.5152E+01  0.1067E+03
     10.570  0.5549E+01  0.1074E+03
     10.700  0.5184E+01  0.1081E+03
     10.831  0.3914E+01  0.1087E+03
     10.962  0.3366E+01  0.1092E+03
     11.092  0.2588E+01  0.1096E+03
     11.223  0.2174E+01  0.1099E+03
     11.353  0.2233E+01  0.1101E+03
     11.484  0.2398E+01  0.1104E+03
     11.615  0.2674E+01  0.1108E+03
     11.745  0.2854E+01  0.1111E+03
     11.876  0.3008E+01  0.1115E+03
     12.006  0.3136E+01  0.1119E+03
     12.137  0.3124E+01  0.1123E+03
     12.268  0.2896E+01  0.1127E+03
     12.398  0.2725E+01  0.1131E+03
     12.529  0.3032E+01  0.1135E+03
     12.659  0.3516E+01  0.1139E+03
     12.790  0.3554E+01  0.1143E+03
     12.920  0.3968E+01  0.1148E+03
     13.051  0.4594E+01  0.1154E+03
     13.182  0.3918E+01  0.1159E+03
     13.312  0.3890E+01  0.1164E+03
     13.443  0.3436E+01  0.1169E+03
     13.573  0.3212E+01  0.1174E+03
     13.704  0.2854E+01  0.1178E+03
     13.835  0.2909E+01  0.1181E+03
     13.965  0.3264E+01  0.1185E+03
     14.096  0.3996E+01  0.1190E+03
     14.226  0.4905E+01  0.1196E+03
     14.357  0.5547E+01  0.1203E+03
     14.488  0.5829E+01  0.1210E+03
     14.618  0.5430E+01  0.1218E+03
     14.749  0.5232E+01  0.1225E+03
     14.879  0.5537E+01  0.1232E+03
     15.010  0.5218E+01  0.1239E+03
     15.141  0.4109E+01  0.1245E+03
     15.271  0.4555E+01  0.1250E+03
     15.402  0.8329E+01  0.1258E+03
     15.532  0.1051E+02  0.1272E+03
     15.663  0.8051E+01  0.1284E+03
     15.793  0.7675E+01  0.1295E+03
     15.924  0.9041E+01  0.1305E+03
     16.055  0.1112E+02  0.1318E+03
     16.185  0.9452E+01  0.1331E+03
     16.316  0.9344E+01  0.1344E+03
     16.446  0.1052E+02  0.1357E+03
     16.577  0.9471E+01  0.1370E+03
     16.708  0.8471E+01  0.1382E+03
     16.838  0.8089E+01  0.1392E+03
     16.969  0.9452E+01  0.1404E+03
     17.099  0.1088E+02  0.1416E+03
     17.230  0.1016E+02  0.1430E+03
     17.361  0.7930E+01  0.1442E+03
     17.491  0.6965E+01  0.1451E+03
     17.622  0.7240E+01  0.1461E+03
     17.752  0.6623E+01  0.1470E+03
     17.883  0.6007E+01  0.1478E+03
     18.014  0.6429E+01  0.1486E+03
     18.144  0.6566E+01  0.1495E+03
     18.275  0.6114E+01  0.1503E+03
     18.405  0.6093E+01  0.1511E+03
     18.536  0.5889E+01  0.1518E+03
     18.667  0.5717E+01  0.1526E+03
     18.797  0.7571E+01  0.1536E+03
     18.928  0.5068E+01  0.1543E+03
     19.058  0.4646E+01  0.1550E+03
     19.189  0.4183E+01  0.1555E+03
     19.319  0.3800E+01  0.1561E+03
     19.450  0.3785E+01  0.1566E+03
     19.581  0.3496E+01  0.1570E+03
     19.711  0.3019E+01  0.1575E+03
     19.842  0.2455E+01  0.1578E+03
     19.972  0.2252E+01  0.1581E+03
     20.103  0.2188E+01  0.1584E+03
     20.234  0.2378E+01  0.1587E+03
     20.364  0.2215E+01  0.1590E+03
     20.495  0.2281E+01  0.1593E+03
     20.625  0.2884E+01  0.1596E+03
     20.756  0.3380E+01  0.1600E+03
     20.887  0.3747E+01  0.1605E+03
     21.017  0.3911E+01  0.1610E+03
     21.148  0.3437E+01  0.1615E+03
     21.278  0.2683E+01  0.1619E+03
     21.409  0.2447E+01  0.1622E+03
     21.540  0.2526E+01  0.1625E+03
     21.670  0.2604E+01  0.1629E+03
     21.801  0.2577E+01  0.1632E+03
     21.931  0.2582E+01  0.1635E+03
     22.062  0.2722E+01  0.1639E+03
     22.193  0.2917E+01  0.1643E+03
     22.323  0.3150E+01  0.1647E+03
     22.454  0.3389E+01  0.1651E+03
     22.584  0.3834E+01  0.1655E+03
     22.715  0.4279E+01  0.1661E+03
     22.845  0.4435E+01  0.1667E+03
     22.976  0.3325E+01  0.1672E+03
     23.107  0.2440E+01  0.1675E+03
     23.237  0.1157E+01  0.1678E+03
     23.368  0.7059E+00  0.1679E+03
     23.498  0.3903E+00  0.1680E+03
     23.629  0.1401E+00  0.1680E+03
     23.760  0.1394E-01  0.1680E+03
     23.890  0.0000E+00  0.1680E+03
     24.021  0.0000E+00  0.1680E+03
     24.151  0.0000E+00  0.1680E+03
     24.282  0.0000E+00  0.1680E+03
     24.413  0.0000E+00  0.1680E+03
     24.543  0.0000E+00  0.1680E+03
     24.674  0.0000E+00  0.1680E+03
     24.804  0.0000E+00  0.1680E+03
     24.935  0.0000E+00  0.1680E+03
     25.066  0.0000E+00  0.1680E+03
     25.196  0.0000E+00  0.1680E+03
     25.327  0.0000E+00  0.1680E+03
     25.457  0.0000E+00  0.1680E+03
     25.588  0.0000E+00  0.1680E+03
     25.719  0.0000E+00  0.1680E+03
     25.849  0.0000E+00  0.1680E+03
