   32   32    1    1
  0.6204108E+01  0.4934311E-09  0.4934311E-09  0.9416039E-09  0.5000000E-15
  1.000000000000000E-004
  CAR 
 graphite                                
    128    163     84
 
  0.0000000E+00  0.0000000E+00  0.0000000E+00  0.3086420E-02
    1      -12.441917
    2      -11.361234
    3      -11.357570
    4       -9.673724
    5       -6.809702
    6       -6.808523
    7       -6.807885
    8       -6.115804
    9       -6.113466
   10       -6.110963
   11       -6.003476
   12       -5.999216
   13       -5.998313
   14       -5.997438
   15       -5.996465
   16       -5.991792
   17       -4.963849
   18       -4.960794
   19       -4.959587
   20       -4.959031
   21       -4.957240
   22       -4.954776
   23       -4.310498
   24       -4.309077
   25       -4.307197
   26       -3.983692
   27       -3.982252
   28       -3.981261
   29       -2.449617
   30        1.440419
   31        1.446212
   32        1.607748
   33        1.610495
   34        1.611682
   35        2.052544
   36        2.055862
   37        2.056287
   38        2.057448
   39        2.059401
   40        2.061746
   41        2.546384
   42        2.549290
   43        2.550774
   44        3.576551
   45        3.577279
   46        3.577976
   47        5.260023
   48        5.264696
   49        5.454497
   50        5.458823
   51        5.463710
   52        5.467837
   53        5.653502
   54        5.658948
   55        5.897069
   56        5.900065
   57        5.901672
   58        6.011772
   59        6.355609
   60        6.366117
   61        6.366446
   62        6.367627
   63        6.368150
   64        6.378547
   65       10.141889
   66       10.151974
   67       10.153146
   68       10.154336
   69       10.154468
   70       10.164855
   71       12.257642
   72       12.260100
   73       12.261201
   74       12.309247
   75       12.311382
   76       12.314201
   77       14.202073
   78       14.206736
   79       14.210042
   80       15.712315
   81       15.718283
   82       15.719245
   83       15.723383
   84       15.725983
 
  0.1111111E+00  0.1387779E-16  0.0000000E+00  0.6172840E-02
    1      -12.365230
    2      -11.286689
    3      -11.283032
    4       -9.604851
    5       -7.698101
    6       -7.105638
    7       -7.103568
    8       -6.775413
    9       -6.772283
   10       -6.232284
   11       -6.228436
   12       -6.226992
   13       -6.225315
   14       -5.756750
   15       -5.752506
   16       -5.632277
   17       -4.688585
   18       -4.608644
   19       -4.606918
   20       -4.605735
   21       -4.603700
   22       -4.592860
   23       -4.589056
   24       -4.075459
   25       -4.071879
   26       -3.524604
   27       -3.522512
   28       -2.978223
   29       -2.358432
   30        1.353250
   31        1.356158
   32        1.521491
   33        1.527277
   34        1.684872
   35        1.817713
   36        1.820933
   37        1.823239
   38        1.824172
   39        2.128474
   40        2.132264
   41        2.347732
   42        2.350823
   43        2.619886
   44        2.929952
   45        3.443539
   46        3.444998
   47        4.907862
   48        5.070680
   49        5.151591
   50        5.158629
   51        5.301600
   52        5.308796
   53        5.402909
   54        5.541035
   55        5.973811
   56        5.981440
   57        6.080612
   58        6.158459
   59        6.162016
   60        6.312506
   61        6.321239
   62        6.322718
   63        6.327809
   64        6.562407
   65       10.269352
   66       10.274543
   67       10.276446
   68       10.285100
   69       10.628069
   70       10.636557
   71       11.468678
   72       11.759189
   73       11.761510
   74       12.695029
   75       12.698664
   76       13.282206
   77       14.261584
   78       14.576118
   79       14.582199
   80       15.784814
   81       15.788765
   82       16.049877
   83       16.053509
   84       16.058354
 
  0.2222222E+00  0.4163336E-16  0.0000000E+00  0.6172840E-02
    1      -12.135556
    2      -11.063267
    3      -11.059632
    4       -9.398621
    5       -8.765914
    6       -7.796373
    7       -7.793070
    8       -7.489792
    9       -7.487685
   10       -6.577014
   11       -6.573865
   12       -6.572392
   13       -6.570513
   14       -6.401011
   15       -5.451038
   16       -5.446619
   17       -4.503962
   18       -4.501376
   19       -3.902515
   20       -3.900726
   21       -3.899378
   22       -3.896473
   23       -3.473968
   24       -2.839600
   25       -2.837260
   26       -2.729919
   27       -2.726497
   28       -2.085591
   29       -1.710568
   30        0.687348
   31        0.689962
   32        1.190109
   33        1.193466
   34        1.195215
   35        1.196577
   36        1.762643
   37        1.768313
   38        1.804850
   39        1.808099
   40        1.823841
   41        1.906047
   42        2.343704
   43        2.347626
   44        2.828511
   45        3.179244
   46        3.181228
   47        3.972194
   48        4.320187
   49        4.326354
   50        4.586839
   51        4.685244
   52        4.881152
   53        4.887817
   54        5.151725
   55        5.158548
   56        5.194762
   57        6.206310
   58        6.215184
   59        6.216525
   60        6.221710
   61        6.284416
   62        6.799910
   63        6.803474
   64        7.524188
   65       10.572628
   66       10.578091
   67       10.580205
   68       10.589082
   69       11.110925
   70       11.130366
   71       11.132416
   72       11.707021
   73       11.714650
   74       12.967957
   75       12.972323
   76       14.367134
   77       14.427631
   78       15.597862
   79       15.603715
   80       15.987948
   81       15.991892
   82       16.253823
   83       16.466817
   84       16.473367
 
  0.3333333E+00  0.0000000E+00  0.0000000E+00  0.6172840E-02
    1      -11.753986
    2      -10.692160
    3      -10.688562
    4       -9.721931
    5       -9.056197
    6       -8.719942
    7       -8.716537
    8       -7.765094
    9       -7.763041
   10       -7.239343
   11       -6.835347
   12       -6.832504
   13       -6.831004
   14       -6.829021
   15       -5.550398
   16       -5.547326
   17       -3.777264
   18       -3.775288
   19       -3.079549
   20       -3.077812
   21       -3.076431
   22       -3.073245
   23       -2.138675
   24       -2.136006
   25       -1.977050
   26       -1.633185
   27       -1.281675
   28       -1.278153
   29       -0.369103
   30       -0.141647
   31       -0.139471
   32        0.347547
   33        0.351218
   34        0.352150
   35        0.354009
   36        0.745041
   37        1.048679
   38        1.051275
   39        2.146724
   40        2.152167
   41        2.265958
   42        2.665811
   43        2.693351
   44        2.697493
   45        2.948020
   46        2.950194
   47        3.143296
   48        3.148482
   49        3.165707
   50        3.623864
   51        3.969034
   52        4.264327
   53        4.270725
   54        4.316653
   55        4.322536
   56        4.693340
   57        6.097871
   58        6.106531
   59        6.107782
   60        6.113142
   61        6.612224
   62        7.626506
   63        7.630126
   64        7.821755
   65       10.398902
   66       10.401472
   67       10.915869
   68       10.921585
   69       10.923761
   70       10.933076
   71       11.708248
   72       12.970197
   73       12.977652
   74       13.106990
   75       13.112125
   76       14.696598
   77       15.496730
   78       15.902088
   79       15.998708
   80       16.004730
   81       16.238925
   82       16.333632
   83       16.337778
   84       17.070996
 
  0.4444444E+00  0.8326673E-16  0.0000000E+00  0.6172840E-02
    1      -11.222389
    2      -10.543415
    3      -10.175373
    4      -10.171820
    5       -9.516170
    6       -9.512680
    7       -8.579322
    8       -7.971570
    9       -7.905949
   10       -7.903924
   11       -6.969053
   12       -6.966319
   13       -6.964801
   14       -6.962802
   15       -5.648558
   16       -5.645867
   17       -2.941986
   18       -2.939703
   19       -2.325472
   20       -2.324283
   21       -2.323050
   22       -2.318686
   23       -1.879881
   24       -1.876901
   25       -1.004748
   26       -0.531146
   27       -0.528942
   28       -0.442231
   29       -0.438331
   30       -0.437189
   31       -0.435600
   32       -0.408865
   33       -0.207417
   34        0.210669
   35        0.214591
   36        0.257185
   37        0.259292
   38        1.005307
   39        1.164958
   40        1.678356
   41        1.682509
   42        2.361068
   43        2.750153
   44        2.768715
   45        2.774964
   46        2.820943
   47        2.823094
   48        3.160948
   49        3.165388
   50        3.332825
   51        3.448719
   52        3.454939
   53        3.612759
   54        3.717846
   55        3.723296
   56        4.139509
   57        6.032386
   58        6.040953
   59        6.042161
   60        6.047588
   61        7.039915
   62        7.505750
   63        8.480531
   64        8.484233
   65        9.615429
   66        9.618463
   67       11.142846
   68       11.148751
   69       11.150912
   70       11.160438
   71       13.091161
   72       13.153583
   73       13.159060
   74       14.199200
   75       14.206549
   76       14.703686
   77       15.054121
   78       15.237905
   79       15.244704
   80       15.472892
   81       16.646919
   82       16.831756
   83       16.835968
   84       17.493089
 
  0.1694066E-20  0.1111111E+00  0.0000000E+00  0.6172840E-02
    1      -12.365228
    2      -11.286686
    3      -11.283030
    4       -9.604848
    5       -7.698118
    6       -7.106280
    7       -7.102800
    8       -6.775538
    9       -6.772425
   10       -6.232000
   11       -6.228525
   12       -6.227589
   13       -6.223994
   14       -5.756065
   15       -5.752931
   16       -5.633032
   17       -4.686692
   18       -4.611341
   19       -4.607479
   20       -4.606017
   21       -4.602855
   22       -4.593605
   23       -4.590051
   24       -4.073812
   25       -4.071152
   26       -3.526312
   27       -3.522098
   28       -2.977070
   29       -2.358436
   30        1.354893
   31        1.356099
   32        1.521481
   33        1.527268
   34        1.683295
   35        1.819740
   36        1.820955
   37        1.823677
   38        1.824932
   39        2.127946
   40        2.129489
   41        2.349492
   42        2.350781
   43        2.618129
   44        2.929416
   45        3.443290
   46        3.445967
   47        4.911204
   48        5.067159
   49        5.157992
   50        5.159185
   51        5.301114
   52        5.302248
   53        5.406686
   54        5.537310
   55        5.972807
   56        5.979975
   57        6.080468
   58        6.158626
   59        6.162849
   60        6.313953
   61        6.321219
   62        6.322410
   63        6.329939
   64        6.561049
   65       10.266463
   66       10.273950
   67       10.276149
   68       10.283416
   69       10.631104
   70       10.638222
   71       11.471150
   72       11.757213
   73       11.762267
   74       12.693047
   75       12.697834
   76       13.283843
   77       14.260756
   78       14.577905
   79       14.581310
   80       15.784062
   81       15.787638
   82       16.048021
   83       16.050569
   84       16.053051
 
  0.1111111E+00  0.1111111E+00  0.0000000E+00  0.6172840E-02
    1      -12.212046
    2      -11.137675
    3      -11.134033
    4       -9.467300
    5       -8.191557
    6       -8.187680
    7       -7.245567
    8       -7.240781
    9       -7.240573
   10       -7.236099
   11       -6.610300
   12       -5.923078
   13       -5.919006
   14       -5.911453
   15       -5.809133
   16       -5.806260
   17       -4.771724
   18       -4.767236
   19       -4.132068
   20       -4.116223
   21       -4.112086
   22       -3.827351
   23       -3.383015
   24       -3.377175
   25       -3.377009
   26       -3.373399
   27       -2.325878
   28       -2.321207
   29       -2.176381
   30        0.607984
   31        1.117250
   32        1.120779
   33        1.504417
   34        1.507644
   35        1.682823
   36        1.688588
   37        1.736019
   38        1.964708
   39        1.966396
   40        1.966835
   41        1.972021
   42        2.447576
   43        2.450493
   44        2.488192
   45        2.491875
   46        3.826161
   47        4.331369
   48        4.605308
   49        4.614752
   50        4.620029
   51        4.982367
   52        4.989220
   53        5.033307
   54        5.250712
   55        5.641595
   56        5.647987
   57        5.648362
   58        5.656092
   59        6.135459
   60        6.217039
   61        6.611375
   62        6.619816
   63        7.141418
   64        7.145090
   65       10.093524
   66       10.102808
   67       11.112097
   68       11.122402
   69       11.123369
   70       11.128011
   71       11.140337
   72       11.143425
   73       11.567590
   74       12.384272
   75       13.703404
   76       13.706362
   77       14.686532
   78       14.691669
   79       15.546886
   80       16.178140
   81       16.182327
   82       16.183886
   83       16.189331
   84       16.499309
 
  0.2222222E+00  0.1111111E+00  0.0000000E+00  0.6172840E-02
    1      -11.906424
    2      -10.840400
    3      -10.836787
    4       -9.205364
    5       -9.192681
    6       -8.549264
    7       -8.220010
    8       -8.216665
    9       -7.587347
   10       -7.584078
   11       -6.782675
   12       -6.697629
   13       -6.210349
   14       -5.840132
   15       -5.837194
   16       -5.369279
   17       -4.254306
   18       -4.251849
   19       -4.244835
   20       -3.309626
   21       -3.246368
   22       -2.701502
   23       -2.584383
   24       -2.581813
   25       -1.981950
   26       -1.978482
   27       -1.813630
   28       -1.615000
   29       -1.026890
   30       -0.348297
   31        0.184592
   32        0.188112
   33        0.902377
   34        0.934811
   35        1.336216
   36        1.417782
   37        1.419522
   38        1.806181
   39        1.998742
   40        2.004375
   41        2.017717
   42        2.078408
   43        2.253285
   44        2.257227
   45        2.765866
   46        3.279271
   47        3.659149
   48        3.665931
   49        3.848393
   50        3.935031
   51        4.334533
   52        4.433763
   53        4.441282
   54        4.762950
   55        4.769361
   56        4.771921
   57        5.382650
   58        5.389263
   59        6.483327
   60        6.630033
   61        6.804938
   62        6.813148
   63        7.768990
   64        7.840467
   65       10.089097
   66       10.098088
   67       10.688374
   68       10.842536
   69       11.219241
   70       11.637597
   71       11.644616
   72       12.320401
   73       12.327752
   74       12.546535
   75       13.900092
   76       14.782643
   77       14.907506
   78       15.763373
   79       16.356525
   80       16.361866
   81       16.372507
   82       16.445317
   83       16.449662
   84       16.751561
 
  0.3333333E+00  0.1111111E+00  0.0000000E+00  0.6172840E-02
    1      -11.449821
    2      -10.396481
    3      -10.392915
    4      -10.094194
    5       -9.080675
    6       -9.077226
    7       -8.783257
    8       -8.767631
    9       -7.797807
   10       -7.794510
   11       -7.570581
   12       -6.867818
   13       -6.396239
   14       -5.980293
   15       -5.977276
   16       -4.898692
   17       -4.026308
   18       -3.463424
   19       -3.459395
   20       -2.656057
   21       -2.434474
   22       -1.776155
   23       -1.773527
   24       -1.273272
   25       -1.171314
   26       -1.164746
   27       -1.048341
   28       -0.783706
   29       -0.780019
   30       -0.518772
   31       -0.515329
   32       -0.009698
   33        0.313109
   34        0.316363
   35        0.326236
   36        0.689022
   37        0.691249
   38        1.346509
   39        1.847818
   40        1.908801
   41        2.246246
   42        2.251684
   43        2.255429
   44        2.632351
   45        2.637924
   46        2.669998
   47        2.673998
   48        2.864705
   49        3.163085
   50        3.520007
   51        3.807421
   52        3.813619
   53        3.897483
   54        3.904341
   55        3.910068
   56        4.216389
   57        5.215712
   58        5.222227
   59        6.863854
   60        6.896673
   61        6.904198
   62        7.493341
   63        7.754612
   64        8.291893
   65        9.640063
   66       10.173972
   67       10.182240
   68       10.609206
   69       12.044026
   70       12.051291
   71       12.288217
   72       12.688989
   73       13.592530
   74       13.599825
   75       13.917728
   76       15.220378
   77       15.378106
   78       15.723357
   79       15.730736
   80       15.898380
   81       16.018204
   82       16.837987
   83       16.842006
   84       17.308462
 
  0.4444444E+00  0.1111111E+00  0.0000000E+00  0.6172840E-02
    1      -10.846405
    2      -10.842714
    3       -9.811290
    4       -9.807018
    5       -9.806623
    6       -9.801955
    7       -8.840771
    8       -8.243034
    9       -8.239006
   10       -7.868243
   11       -7.864931
   12       -6.930741
   13       -6.459570
   14       -6.035768
   15       -6.032726
   16       -4.843605
   17       -3.536582
   18       -2.958593
   19       -2.955062
   20       -2.719351
   21       -1.829103
   22       -1.346454
   23       -1.343128
   24       -1.305154
   25       -1.301054
   26       -1.144810
   27       -1.117709
   28       -0.670553
   29       -0.561559
   30       -0.558251
   31        0.231033
   32        0.235455
   33        0.345106
   34        0.387948
   35        0.391470
   36        0.822222
   37        0.946873
   38        0.953567
   39        0.954507
   40        0.955318
   41        1.640302
   42        1.644300
   43        1.769943
   44        2.815765
   45        2.821753
   46        3.121976
   47        3.125982
   48        3.127381
   49        3.132104
   50        3.221240
   51        3.222379
   52        3.224489
   53        3.232346
   54        3.656264
   55        3.663090
   56        3.872336
   57        5.158452
   58        5.164971
   59        6.920955
   60        6.928212
   61        7.320002
   62        7.324054
   63        8.425764
   64        8.508477
   65        8.655363
   66       10.222623
   67       10.230122
   68       10.511172
   69       12.200217
   70       12.207761
   71       12.738809
   72       13.813818
   73       13.819091
   74       13.896400
   75       14.764985
   76       14.773424
   77       14.775391
   78       14.778811
   79       15.603206
   80       15.607134
   81       17.034885
   82       17.039168
   83       17.340045
   84       17.343718
 
 -0.4444444E+00  0.1111111E+00  0.0000000E+00  0.6172840E-02
    1      -11.449905
    2      -10.396565
    3      -10.392998
    4      -10.094060
    5       -9.080530
    6       -9.077085
    7       -8.783538
    8       -8.767639
    9       -7.797992
   10       -7.794691
   11       -7.570498
   12       -6.867523
   13       -6.396482
   14       -5.979890
   15       -5.976891
   16       -4.897378
   17       -4.026882
   18       -3.462206
   19       -3.459704
   20       -2.655780
   21       -2.435342
   22       -1.777700
   23       -1.773630
   24       -1.273375
   25       -1.171983
   26       -1.164960
   27       -1.048694
   28       -0.783805
   29       -0.781728
   30       -0.519309
   31       -0.515501
   32       -0.010578
   33        0.312991
   34        0.316353
   35        0.326795
   36        0.689133
   37        0.693384
   38        1.347569
   39        1.847611
   40        1.909159
   41        2.246515
   42        2.252667
   43        2.255227
   44        2.632513
   45        2.637850
   46        2.670194
   47        2.674778
   48        2.865382
   49        3.163440
   50        3.519297
   51        3.807868
   52        3.812098
   53        3.897275
   54        3.904599
   55        3.910450
   56        4.215909
   57        5.215337
   58        5.221956
   59        6.863862
   60        6.897409
   61        6.904627
   62        7.495926
   63        7.754716
   64        8.289993
   65        9.637640
   66       10.174133
   67       10.181289
   68       10.610769
   69       12.043798
   70       12.051612
   71       12.288454
   72       12.688687
   73       13.592162
   74       13.599743
   75       13.918069
   76       15.220117
   77       15.377783
   78       15.723834
   79       15.730386
   80       15.897653
   81       16.018263
   82       16.837619
   83       16.841997
   84       17.279573
 
 -0.3333333E+00  0.1111111E+00  0.0000000E+00  0.6172840E-02
    1      -11.906483
    2      -10.840459
    3      -10.836846
    4       -9.205178
    5       -9.192735
    6       -8.549623
    7       -8.219863
    8       -8.216513
    9       -7.587759
   10       -7.584488
   11       -6.782569
   12       -6.696957
   13       -6.210874
   14       -5.839119
   15       -5.836342
   16       -5.367594
   17       -4.253316
   18       -4.251067
   19       -4.247056
   20       -3.310340
   21       -3.246034
   22       -2.701696
   23       -2.585805
   24       -2.582080
   25       -1.982346
   26       -1.978720
   27       -1.813705
   28       -1.615704
   29       -1.027292
   30       -0.349427
   31        0.184204
   32        0.186154
   33        0.901284
   34        0.936244
   35        1.336391
   36        1.418182
   37        1.421920
   38        1.806543
   39        1.998644
   40        2.004314
   41        2.018942
   42        2.078059
   43        2.253434
   44        2.257627
   45        2.766170
   46        3.279573
   47        3.661339
   48        3.664595
   49        3.848662
   50        3.935365
   51        4.334395
   52        4.435194
   53        4.438766
   54        4.763168
   55        4.769253
   56        4.771565
   57        5.381897
   58        5.388727
   59        6.483274
   60        6.632669
   61        6.806442
   62        6.813947
   63        7.766386
   64        7.840374
   65       10.089245
   66       10.096516
   67       10.686192
   68       10.844518
   69       11.219659
   70       11.637284
   71       11.645269
   72       12.319997
   73       12.327680
   74       12.545896
   75       13.900750
   76       14.781907
   77       14.907299
   78       15.767002
   79       16.357841
   80       16.362231
   81       16.369675
   82       16.445066
   83       16.449376
   84       16.755196
 
 -0.2222222E+00  0.1111111E+00  0.0000000E+00  0.6172840E-02
    1      -12.212081
    2      -11.137710
    3      -11.134068
    4       -9.467335
    5       -8.190170
    6       -8.189459
    7       -7.243851
    8       -7.241343
    9       -7.240614
   10       -7.238146
   11       -6.609194
   12       -5.921904
   13       -5.920462
   14       -5.910879
   15       -5.807142
   16       -5.804956
   17       -4.770653
   18       -4.769201
   19       -4.132231
   20       -4.114942
   21       -4.113508
   22       -3.827684
   23       -3.380919
   24       -3.378876
   25       -3.377382
   26       -3.375221
   27       -2.324486
   28       -2.323482
   29       -2.176424
   30        0.606654
   31        1.116807
   32        1.118598
   33        1.506754
   34        1.507076
   35        1.682768
   36        1.688536
   37        1.734812
   38        1.966022
   39        1.966779
   40        1.969788
   41        1.970635
   42        2.448252
   43        2.449444
   44        2.490464
   45        2.491048
   46        3.826642
   47        4.331395
   48        4.605756
   49        4.616500
   50        4.618348
   51        4.984993
   52        4.986062
   53        5.033637
   54        5.250121
   55        5.641136
   56        5.647869
   57        5.648406
   58        5.655027
   59        6.138154
   60        6.216920
   61        6.613200
   62        6.620876
   63        7.139721
   64        7.143886
   65       10.093586
   66       10.101008
   67       11.113272
   68       11.121527
   69       11.122641
   70       11.127831
   71       11.141125
   72       11.145973
   73       11.566004
   74       12.383074
   75       13.703212
   76       13.706764
   77       14.689432
   78       14.692276
   79       15.542950
   80       16.181260
   81       16.184117
   82       16.185108
   83       16.193767
   84       16.476721
 
 -0.1111111E+00  0.1111111E+00  0.0000000E+00  0.6172840E-02
    1      -12.365240
    2      -11.286698
    3      -11.283041
    4       -9.604860
    5       -7.698905
    6       -7.104870
    7       -7.103001
    8       -6.776438
    9       -6.773318
   10       -6.230175
   11       -6.228562
   12       -6.227213
   13       -6.223319
   14       -5.755793
   15       -5.751791
   16       -5.634727
   17       -4.686242
   18       -4.611227
   19       -4.607097
   20       -4.605668
   21       -4.604318
   22       -4.593003
   23       -4.590694
   24       -4.074696
   25       -4.070941
   26       -3.525534
   27       -3.523139
   28       -2.977393
   29       -2.358451
   30        1.353388
   31        1.356228
   32        1.521467
   33        1.527255
   34        1.684816
   35        1.819203
   36        1.820523
   37        1.821019
   38        1.825915
   39        2.128313
   40        2.131983
   41        2.347864
   42        2.351161
   43        2.619459
   44        2.928758
   45        3.444289
   46        3.445717
   47        4.910944
   48        5.067503
   49        5.154995
   50        5.162148
   51        5.298072
   52        5.305255
   53        5.406837
   54        5.537059
   55        5.971282
   56        5.979053
   57        6.080569
   58        6.160835
   59        6.163011
   60        6.315830
   61        6.320993
   62        6.322284
   63        6.331348
   64        6.558455
   65       10.265506
   66       10.274837
   67       10.276321
   68       10.281536
   69       10.630972
   70       10.639548
   71       11.472597
   72       11.758050
   73       11.760973
   74       12.692479
   75       12.696103
   76       13.285099
   77       14.264495
   78       14.575252
   79       14.580083
   80       15.787262
   81       15.791265
   82       16.044777
   83       16.048812
   84       16.055299
 
  0.1694066E-20  0.2222222E+00  0.0000000E+00  0.6172840E-02
    1      -12.135547
    2      -11.063258
    3      -11.059623
    4       -9.398606
    5       -8.765866
    6       -7.796353
    7       -7.793058
    8       -7.490607
    9       -7.486878
   10       -6.577653
   11       -6.573867
   12       -6.572949
   13       -6.569085
   14       -6.401056
   15       -5.449813
   16       -5.447011
   17       -4.505084
   18       -4.502264
   19       -3.905137
   20       -3.901282
   21       -3.899660
   22       -3.895739
   23       -3.472679
   24       -2.841494
   25       -2.836927
   26       -2.728339
   27       -2.725714
   28       -2.085608
   29       -1.709336
   30        0.688580
   31        0.690516
   32        1.191515
   33        1.193500
   34        1.195846
   35        1.197861
   36        1.762618
   37        1.768362
   38        1.806131
   39        1.808398
   40        1.823517
   41        1.904432
   42        2.343170
   43        2.344700
   44        2.826658
   45        3.178738
   46        3.182444
   47        3.975064
   48        4.325464
   49        4.326935
   50        4.583929
   51        4.688305
   52        4.880767
   53        4.882056
   54        5.151133
   55        5.157718
   56        5.191369
   57        6.207483
   58        6.215128
   59        6.216232
   60        6.223664
   61        6.284393
   62        6.799785
   63        6.804591
   64        7.522227
   65       10.569711
   66       10.577674
   67       10.579790
   68       10.587539
   69       11.114030
   70       11.128590
   71       11.133615
   72       11.709096
   73       11.715990
   74       12.966239
   75       12.970367
   76       14.368547
   77       14.426751
   78       15.599264
   79       15.603430
   80       15.987414
   81       15.990994
   82       16.250671
   83       16.465779
   84       16.470036
 
  0.1111111E+00  0.2222222E+00  0.0000000E+00  0.6172840E-02
    1      -11.906417
    2      -10.840393
    3      -10.836779
    4       -9.205053
    5       -9.192921
    6       -8.549327
    7       -8.219960
    8       -8.216618
    9       -7.587385
   10       -7.584117
   11       -6.782704
   12       -6.697613
   13       -6.210262
   14       -5.840108
   15       -5.837178
   16       -5.369313
   17       -4.254313
   18       -4.251974
   19       -4.244785
   20       -3.311028
   21       -3.246683
   22       -2.700205
   23       -2.586014
   24       -2.582702
   25       -1.980210
   26       -1.977693
   27       -1.813643
   28       -1.616492
   29       -1.025431
   30       -0.348065
   31        0.184783
   32        0.188128
   33        0.902438
   34        0.936597
   35        1.335935
   36        1.418547
   37        1.422209
   38        1.804368
   39        1.998726
   40        2.004342
   41        2.019439
   42        2.078841
   43        2.252636
   44        2.254219
   45        2.763942
   46        3.281096
   47        3.661955
   48        3.665999
   49        3.847244