 vasp.5.3.5 31Mar14 (build Nov 02 2014 15:17:37) complex                        
  
 executed on        ion-Intel-MKL date 2016.08.24  00:19:10
 running on    6 total cores
 distrk:  each k-point on    6 cores,    1 groups
 distr:  one band on NCORES_PER_BAND=   1 cores,    6 groups


--------------------------------------------------------------------------------------------------------


 INCAR:
 POTCAR:   PAW_PBE C 08Apr2002                    

 ----------------------------------------------------------------------------- 
|                                                                             |
|           W    W    AA    RRRRR   N    N  II  N    N   GGGG   !!!           |
|           W    W   A  A   R    R  NN   N  II  NN   N  G    G  !!!           |
|           W    W  A    A  R    R  N N  N  II  N N  N  G       !!!           |
|           W WW W  AAAAAA  RRRRR   N  N N  II  N  N N  G  GGG   !            |
|           WW  WW  A    A  R   R   N   NN  II  N   NN  G    G                |
|           W    W  A    A  R    R  N    N  II  N    N   GGGG   !!!           |
|                                                                             |
|      For optimal performance we recommend to set                            |
|        NCORE= 4 - approx SQRT( number of cores)                             |
|      NCORE specifies how many cores store one orbital (NPAR=cpu/NCORE).     |
|      This setting can  greatly improve the performance of VASP for DFT.     |
|      The default, NPAR=number of cores might be grossly inefficient         |
|      on modern multi-core architectures or massively parallel machines.     |
|      Do your own testing !!!!                                               |
|      Unfortunately you need to use the default for GW and RPA calculations. |
|      (for HF NCORE is supported but not extensively tested yet)             |
|                                                                             |
 ----------------------------------------------------------------------------- 

 POTCAR:   PAW_PBE C 08Apr2002                    
   VRHFIN =C: s2p2                                                              
   LEXCH  = PE                                                                  
   EATOM  =   147.1560 eV,   10.8157 Ry                                         
                                                                                
   TITEL  = PAW_PBE C 08Apr2002                                                 
   LULTRA =        F    use ultrasoft PP ?                                      
   IUNSCR =        0    unscreen: 0-lin 1-nonlin 2-no                           
   RPACOR =     .000    partial core radius                                     
   POMASS =   12.011; ZVAL   =    4.000    mass and valenz                      
   RCORE  =    1.500    outmost cutoff radius                                   
   RWIGS  =    1.630; RWIGS  =     .863    wigner-seitz radius (au A)           
   ENMAX  =  400.000; ENMIN  =  300.000 eV                                      
   ICORE  =        2    local potential                                         
   LCOR   =        T    correct aug charges                                     
   LPAW   =        T    paw PP                                                  
   EAUG   =  644.873                                                            
   DEXC   =     .000                                                            
   RMAX   =    2.266    core radius for proj-oper                               
   RAUG   =    1.300    factor for augmentation sphere                          
   RDEP   =    1.501    radius for radial grids                                 
   RDEPT  =    1.300    core radius for aug-charge                              
   QCUT   =   -5.516; QGAM   =   11.032    optimization parameters              
                                                                                
   Description                                                                  
     l     E      TYP  RCUT    TYP  RCUT                                        
     0   .000     23  1.200                                                     
     0   .000     23  1.200                                                     
     1   .000     23  1.500                                                     
     1  2.500     23  1.500                                                     
     2   .000      7  1.500                                                     
  local pseudopotential read in
  atomic valenz-charges read in
  non local Contribution for L=           0  read in
    real space projection operators read in
  non local Contribution for L=           0  read in
    real space projection operators read in
  non local Contribution for L=           1  read in
    real space projection operators read in
  non local Contribution for L=           1  read in
    real space projection operators read in
    PAW grid and wavefunctions read in
 
   number of l-projection  operators is LMAX  =           4
   number of lm-projection operators is LMMAX =           8
 

 ----------------------------------------------------------------------------- 
|                                                                             |
|  ADVICE TO THIS USER RUNNING 'VASP/VAMP'   (HEAR YOUR MASTER'S VOICE ...):  |
|                                                                             |
|      You have a (more or less) 'large supercell' and for larger cells       |
|      it might be more efficient to use real space projection operators      |
|      So try LREAL= Auto  in the INCAR   file.                               |
|      Mind: If you want to do a very accurate calculations keep the          |
|      reciprocal projection scheme          (i.e. LREAL=.FALSE.)             |
|                                                                             |
 ----------------------------------------------------------------------------- 

 PAW_PBE C 08Apr2002                    :
 energy of atom  1       EATOM= -147.1560
 kinetic energy error for atom=    0.0057 (will be added to EATOM!!)
 
 
 POSCAR: C                                       
  positions in direct lattice
  No initial velocities read in
 exchange correlation table for  LEXCH =        8
   RHO(1)=    0.500       N(1)  =     2000
   RHO(2)=  100.500       N(2)  =     4000
 


--------------------------------------------------------------------------------------------------------


 ion  position               nearest neighbor table
   1  0.499  0.000  0.124-  19 1.42  18 1.42  20 1.43
   2  1.000  0.000  0.125-  19 1.42  17 1.42  20 1.42
   3  0.500  0.500  0.125-  18 1.42  20 1.42  17 1.42
   4  1.000  0.500  0.125-  17 1.42  19 1.42  18 1.42
   5  0.500  0.000  0.625-  24 1.42  22 1.42  23 1.42
   6  1.000  0.000  0.625-  23 1.42  21 1.42  24 1.42
   7  0.500  0.500  0.625-  22 1.42  24 1.42  21 1.42
   8  1.000  0.500  0.625-  21 1.42  23 1.42  22 1.42
   9  0.000  0.500  0.375-  28 1.42  27 1.42  26 1.42
  10  0.500  0.500  0.375-  27 1.42  28 1.42  25 1.42
  11  0.000  1.000  0.375-  26 1.42  25 1.42  28 1.42
  12  0.500  1.000  0.375-  25 1.42  26 1.42  27 1.42
  13  0.000  0.500  0.875-  32 1.42  31 1.42  30 1.42
  14  0.500  0.500  0.875-  31 1.42  32 1.42  29 1.42
  15  0.000  1.000  0.875-  30 1.42  29 1.42  32 1.42
  16  0.500  1.000  0.875-  29 1.42  30 1.42  31 1.42
  17  0.167  0.333  0.125-   4 1.42   2 1.42   3 1.42
  18  0.667  0.333  0.125-   3 1.42   4 1.42   1 1.42
  19  0.167  0.833  0.125-   1 1.42   2 1.42   4 1.42
  20  0.667  0.833  0.125-   3 1.42   2 1.42   1 1.43
  21  0.167  0.333  0.625-   8 1.42   6 1.42   7 1.42
  22  0.667  0.333  0.625-   7 1.42   5 1.42   8 1.42
  23  0.167  0.833  0.625-   6 1.42   8 1.42   5 1.42
  24  0.667  0.833  0.625-   5 1.42   7 1.42   6 1.42
  25  0.333  0.167  0.375-  12 1.42  11 1.42  10 1.42
  26  0.833  0.167  0.375-  11 1.42  12 1.42   9 1.42
  27  0.333  0.667  0.375-  10 1.42   9 1.42  12 1.42
  28  0.833  0.667  0.375-   9 1.42  10 1.42  11 1.42
  29  0.333  0.167  0.875-  16 1.42  15 1.42  14 1.42
  30  0.833  0.167  0.875-  15 1.42  16 1.42  13 1.42
  31  0.333  0.667  0.875-  14 1.42  13 1.42  16 1.42
  32  0.833  0.667  0.875-  13 1.42  14 1.42  15 1.42
 
  LATTYP: Found a base centered orthorhombic cell.
 ALAT       =     4.9339256766
 B/A-ratio  =     1.7322311103
 C/A-ratio  =     1.9084274582
  
  Lattice vectors:
  
 A1 = (   4.9343108848,  -0.0002224000,   0.0000000000)
 A2 = (  -2.4673480464,   4.2731273763,   0.0000000000)
 A3 = (   0.0000000000,   0.0000000000,   9.4160392380)


Analysis of symmetry for initial positions (statically):
=====================================================================
 Subroutine PRICEL returns:
 Original cell was already a primitive cell.
 

 Routine SETGRP: Setting up the symmetry group for a 
 base centered orthorhombic supercell.


 Subroutine GETGRP returns: Found  1 space group operations
 (whereof  1 operations were pure point group operations)
 out of a pool of  8 trial point group operations.


The static configuration has the point symmetry C_1 .


Analysis of symmetry for dynamics (positions and initial velocities):
=====================================================================
 Subroutine PRICEL returns:
 Original cell was already a primitive cell.
 

 Routine SETGRP: Setting up the symmetry group for a 
 base centered orthorhombic supercell.


 Subroutine GETGRP returns: Found  1 space group operations
 (whereof  1 operations were pure point group operations)
 out of a pool of  8 trial point group operations.


The dynamic configuration has the point symmetry C_1 .
 
 
 KPOINTS: B4C B11C-CBC                            

Automatic generation of k-mesh.
Space group operators:
 irot       det(A)        alpha          n_x          n_y          n_z        tau_x        tau_y        tau_z
    1     1.000000     0.000001     1.000000     0.000000     0.000000     0.000000     0.000000     0.000000
 
 Subroutine IBZKPT returns following result:
 ===========================================
 
 Found    163 irreducible k-points:
 
 Following reciprocal coordinates:
            Coordinates               Weight
  0.000000  0.000000  0.000000      1.000000
  0.111111  0.000000  0.000000      2.000000
  0.222222  0.000000  0.000000      2.000000
  0.333333  0.000000  0.000000      2.000000
  0.444444  0.000000  0.000000      2.000000
  0.000000  0.111111  0.000000      2.000000
  0.111111  0.111111  0.000000      2.000000
  0.222222  0.111111  0.000000      2.000000
  0.333333  0.111111  0.000000      2.000000
  0.444444  0.111111  0.000000      2.000000
 -0.444444  0.111111  0.000000      2.000000
 -0.333333  0.111111  0.000000      2.000000
 -0.222222  0.111111  0.000000      2.000000
 -0.111111  0.111111  0.000000      2.000000
  0.000000  0.222222  0.000000      2.000000
  0.111111  0.222222  0.000000      2.000000
  0.222222  0.222222  0.000000      2.000000
  0.333333  0.222222  0.000000      2.000000
  0.444444  0.222222  0.000000      2.000000
 -0.444444  0.222222  0.000000      2.000000
 -0.333333  0.222222  0.000000      2.000000
 -0.222222  0.222222  0.000000      2.000000
 -0.111111  0.222222  0.000000      2.000000
  0.000000  0.333333  0.000000      2.000000
  0.111111  0.333333  0.000000      2.000000
  0.222222  0.333333  0.000000      2.000000
  0.333333  0.333333  0.000000      2.000000
  0.444444  0.333333  0.000000      2.000000
 -0.444444  0.333333  0.000000      2.000000
 -0.333333  0.333333  0.000000      2.000000
 -0.222222  0.333333  0.000000      2.000000
 -0.111111  0.333333  0.000000      2.000000
  0.000000  0.444444  0.000000      2.000000
  0.111111  0.444444  0.000000      2.000000
  0.222222  0.444444  0.000000      2.000000
  0.333333  0.444444  0.000000      2.000000
  0.444444  0.444444  0.000000      2.000000
 -0.444444  0.444444  0.000000      2.000000
 -0.333333  0.444444  0.000000      2.000000
 -0.222222  0.444444  0.000000      2.000000
 -0.111111  0.444444  0.000000      2.000000
  0.000000  0.000000  0.250000      2.000000
  0.111111  0.000000  0.250000      2.000000
  0.222222  0.000000  0.250000      2.000000
  0.333333  0.000000  0.250000      2.000000
  0.444444  0.000000  0.250000      2.000000
 -0.444444 -0.000000  0.250000      2.000000
 -0.333333  0.000000  0.250000      2.000000
 -0.222222 -0.000000  0.250000      2.000000
 -0.111111 -0.000000  0.250000      2.000000
  0.000000  0.111111  0.250000      2.000000
  0.111111  0.111111  0.250000      2.000000
  0.222222  0.111111  0.250000      2.000000
  0.333333  0.111111  0.250000      2.000000
  0.444444  0.111111  0.250000      2.000000
 -0.444444  0.111111  0.250000      2.000000
 -0.333333  0.111111  0.250000      2.000000
 -0.222222  0.111111  0.250000      2.000000
 -0.111111  0.111111  0.250000      2.000000
  0.000000  0.222222  0.250000      2.000000
  0.111111  0.222222  0.250000      2.000000
  0.222222  0.222222  0.250000      2.000000
  0.333333  0.222222  0.250000      2.000000
  0.444444  0.222222  0.250000      2.000000
 -0.444444  0.222222  0.250000      2.000000
 -0.333333  0.222222  0.250000      2.000000
 -0.222222  0.222222  0.250000      2.000000
 -0.111111  0.222222  0.250000      2.000000
  0.000000  0.333333  0.250000      2.000000
  0.111111  0.333333  0.250000      2.000000
  0.222222  0.333333  0.250000      2.000000
  0.333333  0.333333  0.250000      2.000000
  0.444444  0.333333  0.250000      2.000000
 -0.444444  0.333333  0.250000      2.000000
 -0.333333  0.333333  0.250000      2.000000
 -0.222222  0.333333  0.250000      2.000000
 -0.111111  0.333333  0.250000      2.000000
  0.000000  0.444444  0.250000      2.000000
  0.111111  0.444444  0.250000      2.000000
  0.222222  0.444444  0.250000      2.000000
  0.333333  0.444444  0.250000      2.000000
  0.444444  0.444444  0.250000      2.000000
 -0.444444  0.444444  0.250000      2.000000
 -0.333333  0.444444  0.250000      2.000000
 -0.222222  0.444444  0.250000      2.000000
 -0.111111  0.444444  0.250000      2.000000
 -0.000000 -0.444444  0.250000      2.000000
  0.111111 -0.444444  0.250000      2.000000
  0.222222 -0.444444  0.250000      2.000000
  0.333333 -0.444444  0.250000      2.000000
  0.444444 -0.444444  0.250000      2.000000
 -0.444444 -0.444444  0.250000      2.000000
 -0.333333 -0.444444  0.250000      2.000000
 -0.222222 -0.444444  0.250000      2.000000
 -0.111111 -0.444444  0.250000      2.000000
 -0.000000 -0.333333  0.250000      2.000000
  0.111111 -0.333333  0.250000      2.000000
  0.222222 -0.333333  0.250000      2.000000
  0.333333 -0.333333  0.250000      2.000000
  0.444444 -0.333333  0.250000      2.000000
 -0.444444 -0.333333  0.250000      2.000000
 -0.333333 -0.333333  0.250000      2.000000
 -0.222222 -0.333333  0.250000      2.000000
 -0.111111 -0.333333  0.250000      2.000000
 -0.000000 -0.222222  0.250000      2.000000
  0.111111 -0.222222  0.250000      2.000000
  0.222222 -0.222222  0.250000      2.000000
  0.333333 -0.222222  0.250000      2.000000
  0.444444 -0.222222  0.250000      2.000000
 -0.444444 -0.222222  0.250000      2.000000
 -0.333333 -0.222222  0.250000      2.000000
 -0.222222 -0.222222  0.250000      2.000000
 -0.111111 -0.222222  0.250000      2.000000
 -0.000000 -0.111111  0.250000      2.000000
  0.111111 -0.111111  0.250000      2.000000
  0.222222 -0.111111  0.250000      2.000000
  0.333333 -0.111111  0.250000      2.000000
  0.444444 -0.111111  0.250000      2.000000
 -0.444444 -0.111111  0.250000      2.000000
 -0.333333 -0.111111  0.250000      2.000000
 -0.222222 -0.111111  0.250000      2.000000
 -0.111111 -0.111111  0.250000      2.000000
  0.000000  0.000000  0.500000      1.000000
  0.111111  0.000000  0.500000      2.000000
  0.222222  0.000000  0.500000      2.000000
  0.333333  0.000000  0.500000      2.000000
  0.444444  0.000000  0.500000      2.000000
  0.000000  0.111111  0.500000      2.000000
  0.111111  0.111111  0.500000      2.000000
  0.222222  0.111111  0.500000      2.000000
  0.333333  0.111111  0.500000      2.000000
  0.444444  0.111111  0.500000      2.000000
 -0.444444  0.111111  0.500000      2.000000
 -0.333333  0.111111  0.500000      2.000000
 -0.222222  0.111111  0.500000      2.000000
 -0.111111  0.111111  0.500000      2.000000
  0.000000  0.222222  0.500000      2.000000
  0.111111  0.222222  0.500000      2.000000
  0.222222  0.222222  0.500000      2.000000
  0.333333  0.222222  0.500000      2.000000
  0.444444  0.222222  0.500000      2.000000
 -0.444444  0.222222  0.500000      2.000000
 -0.333333  0.222222  0.500000      2.000000
 -0.222222  0.222222  0.500000      2.000000
 -0.111111  0.222222  0.500000      2.000000
  0.000000  0.333333  0.500000      2.000000
  0.111111  0.333333  0.500000      2.000000
  0.222222  0.333333  0.500000      2.000000
  0.333333  0.333333  0.500000      2.000000
  0.444444  0.333333  0.500000      2.000000
 -0.444444  0.333333  0.500000      2.000000
 -0.333333  0.333333  0.500000      2.000000
 -0.222222  0.333333  0.500000      2.000000
 -0.111111  0.333333  0.500000      2.000000
  0.000000  0.444444  0.500000      2.000000
  0.111111  0.444444  0.500000      2.000000
  0.222222  0.444444  0.500000      2.000000
  0.333333  0.444444  0.500000      2.000000
  0.444444  0.444444  0.500000      2.000000
 -0.444444  0.444444  0.500000      2.000000
 -0.333333  0.444444  0.500000      2.000000
 -0.222222  0.444444  0.500000      2.000000
 -0.111111  0.444444  0.500000      2.000000
 
 Following cartesian coordinates:
            Coordinates               Weight
  0.000000  0.000000  0.000000      1.000000
  0.022519  0.013002  0.000000      2.000000
  0.045037  0.026005  0.000000      2.000000
  0.067556  0.039007  0.000000      2.000000
  0.090075  0.052010  0.000000      2.000000
  0.000001  0.026003  0.000000      2.000000
  0.022520  0.039005  0.000000      2.000000
  0.045038  0.052008  0.000000      2.000000
  0.067557  0.065010  0.000000      2.000000
  0.090076  0.078013  0.000000      2.000000
 -0.090073 -0.026007  0.000000      2.000000
 -0.067555 -0.013005  0.000000      2.000000
 -0.045036 -0.000002  0.000000      2.000000
 -0.022517  0.013000  0.000000      2.000000
  0.000002  0.052006  0.000000      2.000000
  0.022521  0.065008  0.000000      2.000000
  0.045040  0.078011  0.000000      2.000000
  0.067558  0.091013  0.000000      2.000000
  0.090077  0.104016  0.000000      2.000000
 -0.090072 -0.000004  0.000000      2.000000
 -0.067554  0.012998  0.000000      2.000000
 -0.045035  0.026001  0.000000      2.000000
 -0.022516  0.039003  0.000000      2.000000
  0.000004  0.078009  0.000000      2.000000
  0.022522  0.091011  0.000000      2.000000
  0.045041  0.104014  0.000000      2.000000
  0.067559  0.117016  0.000000      2.000000
  0.090078  0.130019  0.000000      2.000000
 -0.090071  0.025999  0.000000      2.000000
 -0.067552  0.039001  0.000000      2.000000
 -0.045034  0.052004  0.000000      2.000000
 -0.022515  0.065006  0.000000      2.000000
  0.000005  0.104012  0.000000      2.000000
  0.022523  0.117014  0.000000      2.000000
  0.045042  0.130017  0.000000      2.000000
  0.067561  0.143019  0.000000      2.000000
  0.090079  0.156022  0.000000      2.000000
 -0.090070  0.052002  0.000000      2.000000
 -0.067551  0.065004  0.000000      2.000000
 -0.045033  0.078007  0.000000      2.000000
 -0.022514  0.091009  0.000000      2.000000
  0.000000  0.000000  0.026550      2.000000
  0.022519  0.013002  0.026550      2.000000
  0.045037  0.026005  0.026550      2.000000
  0.067556  0.039007  0.026550      2.000000
  0.090075  0.052010  0.026550      2.000000
 -0.090075 -0.052010  0.026550      2.000000
 -0.067556 -0.039007  0.026550      2.000000
 -0.045037 -0.026005  0.026550      2.000000
 -0.022519 -0.013002  0.026550      2.000000
  0.000001  0.026003  0.026550      2.000000
  0.022520  0.039005  0.026550      2.000000
  0.045038  0.052008  0.026550      2.000000
  0.067557  0.065010  0.026550      2.000000
  0.090076  0.078013  0.026550      2.000000
 -0.090073 -0.026007  0.026550      2.000000
 -0.067555 -0.013005  0.026550      2.000000
 -0.045036 -0.000002  0.026550      2.000000
 -0.022517  0.013000  0.026550      2.000000
  0.000002  0.052006  0.026550      2.000000
  0.022521  0.065008  0.026550      2.000000
  0.045040  0.078011  0.026550      2.000000
  0.067558  0.091013  0.026550      2.000000
  0.090077  0.104016  0.026550      2.000000
 -0.090072 -0.000004  0.026550      2.000000
 -0.067554  0.012998  0.026550      2.000000
 -0.045035  0.026001  0.026550      2.000000
 -0.022516  0.039003  0.026550      2.000000
  0.000004  0.078009  0.026550      2.000000
  0.022522  0.091011  0.026550      2.000000
  0.045041  0.104014  0.026550      2.000000
  0.067559  0.117016  0.026550      2.000000
  0.090078  0.130019  0.026550      2.000000
 -0.090071  0.025999  0.026550      2.000000
 -0.067552  0.039001  0.026550      2.000000
 -0.045034  0.052004  0.026550      2.000000
 -0.022515  0.065006  0.026550      2.000000
  0.000005  0.104012  0.026550      2.000000
  0.022523  0.117014  0.026550      2.000000
  0.045042  0.130017  0.026550      2.000000
  0.067561  0.143019  0.026550      2.000000
  0.090079  0.156022  0.026550      2.000000
 -0.090070  0.052002  0.026550      2.000000
 -0.067551  0.065004  0.026550      2.000000
 -0.045033  0.078007  0.026550      2.000000
 -0.022514  0.091009  0.026550      2.000000
 -0.000005 -0.104012  0.026550      2.000000
  0.022514 -0.091009  0.026550      2.000000
  0.045033 -0.078007  0.026550      2.000000
  0.067551 -0.065004  0.026550      2.000000
  0.090070 -0.052002  0.026550      2.000000
 -0.090079 -0.156022  0.026550      2.000000
 -0.067561 -0.143019  0.026550      2.000000
 -0.045042 -0.130017  0.026550      2.000000
 -0.022523 -0.117014  0.026550      2.000000
 -0.000004 -0.078009  0.026550      2.000000
  0.022515 -0.065006  0.026550      2.000000
  0.045034 -0.052004  0.026550      2.000000
  0.067552 -0.039001  0.026550      2.000000
  0.090071 -0.025999  0.026550      2.000000
 -0.090078 -0.130019  0.026550      2.000000
 -0.067559 -0.117016  0.026550      2.000000
 -0.045041 -0.104014  0.026550      2.000000
 -0.022522 -0.091011  0.026550      2.000000
 -0.000002 -0.052006  0.026550      2.000000
  0.022516 -0.039003  0.026550      2.000000
  0.045035 -0.026001  0.026550      2.000000
  0.067554 -0.012998  0.026550      2.000000
  0.090072  0.000004  0.026550      2.000000
 -0.090077 -0.104016  0.026550      2.000000
 -0.067558 -0.091013  0.026550      2.000000
 -0.045040 -0.078011  0.026550      2.000000
 -0.022521 -0.065008  0.026550      2.000000
 -0.000001 -0.026003  0.026550      2.000000
  0.022517 -0.013000  0.026550      2.000000
  0.045036  0.000002  0.026550      2.000000
  0.067555  0.013005  0.026550      2.000000
  0.090073  0.026007  0.026550      2.000000
 -0.090076 -0.078013  0.026550      2.000000
 -0.067557 -0.065010  0.026550      2.000000
 -0.045038 -0.052008  0.026550      2.000000
 -0.022520 -0.039005  0.026550      2.000000
  0.000000  0.000000  0.053101      1.000000
  0.022519  0.013002  0.053101      2.000000
  0.045037  0.026005  0.053101      2.000000
  0.067556  0.039007  0.053101      2.000000
  0.090075  0.052010  0.053101      2.000000
  0.000001  0.026003  0.053101      2.000000
  0.022520  0.039005  0.053101      2.000000
  0.045038  0.052008  0.053101      2.000000
  0.067557  0.065010  0.053101      2.000000
  0.090076  0.078013  0.053101      2.000000
 -0.090073 -0.026007  0.053101      2.000000
 -0.067555 -0.013005  0.053101      2.000000
 -0.045036 -0.000002  0.053101      2.000000
 -0.022517  0.013000  0.053101      2.000000
  0.000002  0.052006  0.053101      2.000000
  0.022521  0.065008  0.053101      2.000000
  0.045040  0.078011  0.053101      2.000000
  0.067558  0.091013  0.053101      2.000000
  0.090077  0.104016  0.053101      2.000000
 -0.090072 -0.000004  0.053101      2.000000
 -0.067554  0.012998  0.053101      2.000000
 -0.045035  0.026001  0.053101      2.000000
 -0.022516  0.039003  0.053101      2.000000
  0.000004  0.078009  0.053101      2.000000
  0.022522  0.091011  0.053101      2.000000
  0.045041  0.104014  0.053101      2.000000
  0.067559  0.117016  0.053101      2.000000
  0.090078  0.130019  0.053101      2.000000
 -0.090071  0.025999  0.053101      2.000000
 -0.067552  0.039001  0.053101      2.000000
 -0.045034  0.052004  0.053101      2.000000
 -0.022515  0.065006  0.053101      2.000000
  0.000005  0.104012  0.053101      2.000000
  0.022523  0.117014  0.053101      2.000000
  0.045042  0.130017  0.053101      2.000000
  0.067561  0.143019  0.053101      2.000000
  0.090079  0.156022  0.053101      2.000000
 -0.090070  0.052002  0.053101      2.000000
 -0.067551  0.065004  0.053101      2.000000
 -0.045033  0.078007  0.053101      2.000000
 -0.022514  0.091009  0.053101      2.000000
 
 TETIRR: Found    970 inequivalent tetrahedra from     1944


--------------------------------------------------------------------------------------------------------




 Dimension of arrays:
   k-points           NKPTS =    163   k-points in BZ     NKDIM =    163   number of bands    NBANDS=     84
   number of dos      NEDOS =    301   number of ions     NIONS =     32
   non local maximal  LDIM  =      4   non local SUM 2l+1 LMDIM =      8
   total plane-waves  NPLWV = 128000
   max r-space proj   IRMAX =      1   max aug-charges    IRDMAX=   7807
   dimension x,y,z NGX =    40 NGY =   40 NGZ =   80
   dimension x,y,z NGXF=    80 NGYF=   80 NGZF=  160
   support grid    NGXF=    80 NGYF=   80 NGZF=  160
   ions per type =              32
 NGX,Y,Z   is equivalent  to a cutoff of  13.48, 13.48, 14.12 a.u.
 NGXF,Y,Z  is equivalent  to a cutoff of  26.95, 26.95, 28.25 a.u.


 I would recommend the setting:
   dimension x,y,z NGX =    39 NGY =   39 NGZ =   75
 SYSTEM =  graphite                                
 POSCAR =  C                                       

 Startparameter for this run:
   NWRITE =      2    write-flag & timer
   PREC   = accura    normal or accurate (medium, high low for compatibility)
   ISTART =      0    job   : 0-new  1-cont  2-samecut
   ICHARG =      2    charge: 1-file 2-atom 10-const
   ISPIN  =      1    spin polarized calculation?
   LNONCOLLINEAR =      F non collinear calculations
   LSORBIT =      F    spin-orbit coupling
   INIWAV =      1    electr: 0-lowe 1-rand  2-diag
   LASPH  =      F    aspherical Exc in radial PAW
   METAGGA=      F    non-selfconsistent MetaGGA calc.

 Electronic Relaxation 1
   ENCUT  =  600.0 eV  44.10 Ry    6.64 a.u.   9.86  9.86 18.81*2*pi/ulx,y,z
   ENINI  =  600.0     initial cutoff
   ENAUG  =  644.9 eV  augmentation charge cutoff
   NELM   =    200;   NELMIN=  2; NELMDL=  0     # of ELM steps 
   EDIFF  = 0.1E-05   stopping-criterion for ELM
   LREAL  =      F    real-space projection
   NLSPLINE    = F    spline interpolate recip. space projectors
   LCOMPAT=      F    compatible to vasp.4.4
   GGA_COMPAT  = T    GGA compatible to vasp.4.4-vasp.4.6
   LMAXPAW     = -100 max onsite density
   LMAXMIX     =    2 max onsite mixed and CHGCAR
   VOSKOWN=      0    Vosko Wilk Nusair interpolation
   ROPT   =    0.00000
 Ionic relaxation
   EDIFFG = 0.1E-02   stopping-criterion for IOM
   NSW    =      0    number of steps for IOM
   NBLOCK =      1;   KBLOCK =      1    inner block; outer block 
   IBRION =     -1    ionic relax: 0-MD 1-quasi-New 2-CG
   NFREE  =      0    steps in history (QN), initial steepest desc. (CG)
   ISIF   =      2    stress and relaxation
   IWAVPR =     10    prediction:  0-non 1-charg 2-wave 3-comb
   ISYM   =      2    0-nonsym 1-usesym 2-fastsym
   LCORR  =      T    Harris-Foulkes like correction to forces

   POTIM  = 0.5000    time-step for ionic-motion
   TEIN   =    0.0    initial temperature
   TEBEG  =    0.0;   TEEND  =   0.0 temperature during run
   SMASS  =  -3.00    Nose mass-parameter (am)
   estimated Nose-frequenzy (Omega)   =  0.10E-29 period in steps =****** mass=  -0.556E-27a.u.
   SCALEE = 1.0000    scale energy and forces
   NPACO  =    256;   APACO  = 16.0  distance and # of slots for P.C.
   PSTRESS=    0.0 pullay stress

  Mass of Ions in am
   POMASS =  12.01
  Ionic Valenz
   ZVAL   =   4.00
  Atomic Wigner-Seitz radii
   RWIGS  =  -1.00
  virtual crystal weights 
   VCA    =   1.00
   NELECT =     128.0000    total number of electrons
   NUPDOWN=      -1.0000    fix difference up-down

 DOS related values:
   EMIN   =  10.00;   EMAX   =-10.00  energy-range for DOS
   EFERMI =   0.00
   ISMEAR =    -5;   SIGMA  =   0.20  broadening in eV -4-tet -1-fermi 0-gaus

 Electronic relaxation 2 (details)
   IALGO  =     38    algorithm
   LDIAG  =      T    sub-space diagonalisation (order eigenvalues)
   LSUBROT=      F    optimize rotation matrix (better conditioning)
   TURBO    =      0    0=normal 1=particle mesh
   IRESTART =      0    0=no restart 2=restart with 2 vectors
   NREBOOT  =      0    no. of reboots
   NMIN     =      0    reboot dimension
   EREF     =   0.00    reference energy to select bands
   IMIX   =      4    mixing-type and parameters
     AMIX     =   0.40;   BMIX     =  1.00
     AMIX_MAG =   1.60;   BMIX_MAG =  1.00
     AMIN     =   0.10
     WC   =   100.;   INIMIX=   1;  MIXPRE=   1;  MAXMIX= -45

 Intra band minimization:
   WEIMIN = 0.0000     energy-eigenvalue tresh-hold
   EBREAK =  0.30E-08  absolut break condition
   DEPER  =   0.30     relativ break condition  

   TIME   =   0.40     timestep for ELM

  volume/ion in A,a.u.               =       6.20        41.87
  Fermi-wavevector in a.u.,A,eV,Ry     =   1.414279  2.672600 27.214165  2.000185
  Thomas-Fermi vector in A             =   2.535838
 
 Write flags
   LWAVE  =      F    write WAVECAR
   LCHARG =      F    write CHGCAR
   LVTOT  =      F    write LOCPOT, total local potential
   LVHAR  =      F    write LOCPOT, Hartree potential only
   LELF   =      F    write electronic localiz. function (ELF)
   LORBIT =      0    0 simple, 1 ext, 2 COOP (PROOUT)


 Dipole corrections
   LMONO  =      F    monopole corrections only (constant potential shift)
   LDIPOL =      F    correct potential (dipole corrections)
   IDIPOL =      0    1-x, 2-y, 3-z, 4-all directions 
   EPSILON=  1.0000000 bulk dielectric constant

 Exchange correlation treatment:
   GGA     =    PE    GGA type
   LEXCH   =     8    internal setting for exchange type
   VOSKOWN=      0    Vosko Wilk Nusair interpolation
   LHFCALC =     F    Hartree Fock is set to
   LHFONE  =     F    Hartree Fock one center treatment
   AEXX    =    0.0000 exact exchange contribution

 Linear response parameters
   LEPSILON=     F    determine dielectric tensor
   LRPA    =     F    only Hartree local field effects (RPA)
   LNABLA  =     F    use nabla operator in PAW spheres
   LVEL    =     F    velocity operator in full k-point grid
   LINTERFAST=   F  fast interpolation
   KINTER  =     0    interpolate to denser k-point grid
   CSHIFT  =0.1000    complex shift for real part using Kramers Kronig
   OMEGAMAX=  -1.0    maximum frequency
   DEG_THRESHOLD= 0.2000000E-02 threshold for treating states as degnerate
   RTIME   =    0.100 relaxation time in fs

 Orbital magnetization related:
   ORBITALMAG=     F  switch on orbital magnetization
   LCHIMAG   =     F  perturbation theory with respect to B field
   DQ        =  0.001000  dq finite difference perturbation B field



--------------------------------------------------------------------------------------------------------


 Static calculation
 charge density and potential will be updated during run
 non-spin polarized calculation
 Variant of blocked Davidson
 Davidson routine will perform the subspace rotation
 perform sub-space diagonalisation
    after iterative eigenvector-optimisation
 modified Broyden-mixing scheme, WC =      100.0
 initial mixing is a Kerker type mixing with AMIX =  0.4000 and BMIX =      1.0000
 Hartree-type preconditioning will be used
 using additional bands           20
 reciprocal scheme for non local part
 calculate Harris-corrections to forces 
   (improved forces if not selfconsistent)
 use gradient corrections 
 use of overlap-Matrix (Vanderbilt PP)
 Fermi weights with tetrahedron method with Bloechl corrections


--------------------------------------------------------------------------------------------------------


  energy-cutoff  :      600.00
  volume of cell :      198.53
      direct lattice vectors                 reciprocal lattice vectors
     4.934310885 -0.000222400  0.000000000     0.202667819  0.117022500  0.000000000
    -2.467348046  4.273127376  0.000000000     0.000010548  0.234026730  0.000000000
     0.000000000  0.000000000  9.416039238     0.000000000  0.000000000  0.106201766

  length of vectors
     4.934310890  4.934310890  9.416039238     0.234026730  0.234026730  0.106201766


 
 k-points in units of 2pi/SCALE and weight: B4C B11C-CBC                            
   0.00000000  0.00000000  0.00000000       0.003
   0.02251865  0.01300250  0.00000000       0.006
   0.04503729  0.02600500  0.00000000       0.006
   0.06755594  0.03900750  0.00000000       0.006
   0.09007459  0.05201000  0.00000000       0.006
   0.00000117  0.02600297  0.00000000       0.006
   0.02251982  0.03900547  0.00000000       0.006
   0.04503847  0.05200797  0.00000000       0.006
   0.06755711  0.06501047  0.00000000       0.006
   0.09007576  0.07801297  0.00000000       0.006
  -0.09007341 -0.02600703  0.00000000       0.006
  -0.06755477 -0.01300453  0.00000000       0.006
  -0.04503612 -0.00000203  0.00000000       0.006
  -0.02251747  0.01300047  0.00000000       0.006
   0.00000234  0.05200594  0.00000000       0.006
   0.02252099  0.06500844  0.00000000       0.006
   0.04503964  0.07801094  0.00000000       0.006
   0.06755828  0.09101344  0.00000000       0.006
   0.09007693  0.10401594  0.00000000       0.006
  -0.09007224 -0.00000406  0.00000000       0.006
  -0.06755360  0.01299844  0.00000000       0.006
  -0.04503495  0.02600094  0.00000000       0.006
  -0.02251630  0.03900344  0.00000000       0.006
   0.00000352  0.07800891  0.00000000       0.006
   0.02252216  0.09101141  0.00000000       0.006
   0.04504081  0.10401391  0.00000000       0.006
   0.06755946  0.11701641  0.00000000       0.006
   0.09007810  0.13001891  0.00000000       0.006
  -0.09007107  0.02599891  0.00000000       0.006
  -0.06755242  0.03900141  0.00000000       0.006
  -0.04503378  0.05200391  0.00000000       0.006
  -0.02251513  0.06500641  0.00000000       0.006
   0.00000469  0.10401188  0.00000000       0.006
   0.02252333  0.11701438  0.00000000       0.006
   0.04504198  0.13001688  0.00000000       0.006
   0.06756063  0.14301938  0.00000000       0.006
   0.09007927  0.15602188  0.00000000       0.006
  -0.09006990  0.05200188  0.00000000       0.006
  -0.06755125  0.06500438  0.00000000       0.006
  -0.04503261  0.07800688  0.00000000       0.006
  -0.02251396  0.09100938  0.00000000       0.006
   0.00000000  0.00000000  0.02655044       0.006
   0.02251865  0.01300250  0.02655044       0.006
   0.04503729  0.02600500  0.02655044       0.006
   0.06755594  0.03900750  0.02655044       0.006
   0.09007459  0.05201000  0.02655044       0.006
  -0.09007459 -0.05201000  0.02655044       0.006
  -0.06755594 -0.03900750  0.02655044       0.006
  -0.04503729 -0.02600500  0.02655044       0.006
  -0.02251865 -0.01300250  0.02655044       0.006
   0.00000117  0.02600297  0.02655044       0.006
   0.02251982  0.03900547  0.02655044       0.006
   0.04503847  0.05200797  0.02655044       0.006
   0.06755711  0.06501047  0.02655044       0.006
   0.09007576  0.07801297  0.02655044       0.006
  -0.09007341 -0.02600703  0.02655044       0.006
  -0.06755477 -0.01300453  0.02655044       0.006
  -0.04503612 -0.00000203  0.02655044       0.006
  -0.02251747  0.01300047  0.02655044       0.006
   0.00000234  0.05200594  0.02655044       0.006
   0.02252099  0.06500844  0.02655044       0.006
   0.04503964  0.07801094  0.02655044       0.006
   0.06755828  0.09101344  0.02655044       0.006
   0.09007693  0.10401594  0.02655044       0.006
  -0.09007224 -0.00000406  0.02655044       0.006
  -0.06755360  0.01299844  0.02655044       0.006
  -0.04503495  0.02600094  0.02655044       0.006
  -0.02251630  0.03900344  0.02655044       0.006
   0.00000352  0.07800891  0.02655044       0.006
   0.02252216  0.09101141  0.02655044       0.006
   0.04504081  0.10401391  0.02655044       0.006
   0.06755946  0.11701641  0.02655044       0.006
   0.09007810  0.13001891  0.02655044       0.006
  -0.09007107  0.02599891  0.02655044       0.006
  -0.06755242  0.03900141  0.02655044       0.006
  -0.04503378  0.05200391  0.02655044       0.006
  -0.02251513  0.06500641  0.02655044       0.006
   0.00000469  0.10401188  0.02655044       0.006
   0.02252333  0.11701438  0.02655044       0.006
   0.04504198  0.13001688  0.02655044       0.006
   0.06756063  0.14301938  0.02655044       0.006
   0.09007927  0.15602188  0.02655044       0.006
  -0.09006990  0.05200188  0.02655044       0.006
  -0.06755125  0.06500438  0.02655044       0.006
  -0.04503261  0.07800688  0.02655044       0.006
  -0.02251396  0.09100938  0.02655044       0.006
  -0.00000469 -0.10401188  0.02655044       0.006
   0.02251396 -0.09100938  0.02655044       0.006
   0.04503261 -0.07800688  0.02655044       0.006
   0.06755125 -0.06500438  0.02655044       0.006
   0.09006990 -0.05200188  0.02655044       0.006
  -0.09007927 -0.15602188  0.02655044       0.006
  -0.06756063 -0.14301938  0.02655044       0.006
  -0.04504198 -0.13001688  0.02655044       0.006
  -0.02252333 -0.11701438  0.02655044       0.006
  -0.00000352 -0.07800891  0.02655044       0.006
   0.02251513 -0.06500641  0.02655044       0.006
   0.04503378 -0.05200391  0.02655044       0.006
   0.06755242 -0.03900141  0.02655044       0.006
   0.09007107 -0.02599891  0.02655044       0.006
  -0.09007810 -0.13001891  0.02655044       0.006
  -0.06755946 -0.11701641  0.02655044       0.006
  -0.04504081 -0.10401391  0.02655044       0.006
  -0.02252216 -0.09101141  0.02655044       0.006
  -0.00000234 -0.05200594  0.02655044       0.006
   0.02251630 -0.03900344  0.02655044       0.006
   0.04503495 -0.02600094  0.02655044       0.006
   0.06755360 -0.01299844  0.02655044       0.006
   0.09007224  0.00000406  0.02655044       0.006
  -0.09007693 -0.10401594  0.02655044       0.006
  -0.06755828 -0.09101344  0.02655044       0.006
  -0.04503964 -0.07801094  0.02655044       0.006
  -0.02252099 -0.06500844  0.02655044       0.006
  -0.00000117 -0.02600297  0.02655044       0.006
   0.02251747 -0.01300047  0.02655044       0.006
   0.04503612  0.00000203  0.02655044       0.006
   0.06755477  0.01300453  0.02655044       0.006
   0.09007341  0.02600703  0.02655044       0.006
  -0.09007576 -0.07801297  0.02655044       0.006
  -0.06755711 -0.06501047  0.02655044       0.006
  -0.04503847 -0.05200797  0.02655044       0.006
  -0.02251982 -0.03900547  0.02655044       0.006
   0.00000000  0.00000000  0.05310088       0.003
   0.02251865  0.01300250  0.05310088       0.006
   0.04503729  0.02600500  0.05310088       0.006
   0.06755594  0.03900750  0.05310088       0.006
   0.09007459  0.05201000  0.05310088       0.006
   0.00000117  0.02600297  0.05310088       0.006
   0.02251982  0.03900547  0.05310088       0.006
   0.04503847  0.05200797  0.05310088       0.006
   0.06755711  0.06501047  0.05310088       0.006
   0.09007576  0.07801297  0.05310088       0.006
  -0.09007341 -0.02600703  0.05310088       0.006
  -0.06755477 -0.01300453  0.05310088       0.006
  -0.04503612 -0.00000203  0.05310088       0.006
  -0.02251747  0.01300047  0.05310088       0.006
   0.00000234  0.05200594  0.05310088       0.006
   0.02252099  0.06500844  0.05310088       0.006
   0.04503964  0.07801094  0.05310088       0.006
   0.06755828  0.09101344  0.05310088       0.006
   0.09007693  0.10401594  0.05310088       0.006
  -0.09007224 -0.00000406  0.05310088       0.006
  -0.06755360  0.01299844  0.05310088       0.006
  -0.04503495  0.02600094  0.05310088       0.006
  -0.02251630  0.03900344  0.05310088       0.006
   0.00000352  0.07800891  0.05310088       0.006
   0.02252216  0.09101141  0.05310088       0.006
   0.04504081  0.10401391  0.05310088       0.006
   0.06755946  0.11701641  0.05310088       0.006
   0.09007810  0.13001891  0.05310088       0.006
  -0.09007107  0.02599891  0.05310088       0.006
  -0.06755242  0.03900141  0.05310088       0.006
  -0.04503378  0.05200391  0.05310088       0.006
  -0.02251513  0.06500641  0.05310088       0.006
   0.00000469  0.10401188  0.05310088       0.006
   0.02252333  0.11701438  0.05310088       0.006
   0.04504198  0.13001688  0.05310088       0.006
   0.06756063  0.14301938  0.05310088       0.006
   0.09007927  0.15602188  0.05310088       0.006
  -0.09006990  0.05200188  0.05310088       0.006
  -0.06755125  0.06500438  0.05310088       0.006
  -0.04503261  0.07800688  0.05310088       0.006
  -0.02251396  0.09100938  0.05310088       0.006
 
 k-points in reciprocal lattice and weights: B4C B11C-CBC                            
   0.00000000  0.00000000  0.00000000       0.003
   0.11111111  0.00000000  0.00000000       0.006
   0.22222222  0.00000000  0.00000000       0.006
   0.33333333  0.00000000  0.00000000       0.006
   0.44444444  0.00000000  0.00000000       0.006
   0.00000000  0.11111111  0.00000000       0.006
   0.11111111  0.11111111  0.00000000       0.006
   0.22222222  0.11111111  0.00000000       0.006
   0.33333333  0.11111111  0.00000000       0.006
   0.44444444  0.11111111  0.00000000       0.006
  -0.44444444  0.11111111  0.00000000       0.006
  -0.33333333  0.11111111  0.00000000       0.006
  -0.22222222  0.11111111  0.00000000       0.006
  -0.11111111  0.11111111  0.00000000       0.006
   0.00000000  0.22222222  0.00000000       0.006
   0.11111111  0.22222222  0.00000000       0.006
   0.22222222  0.22222222  0.00000000       0.006
   0.33333333  0.22222222  0.00000000       0.006
   0.44444444  0.22222222  0.00000000       0.006
  -0.44444444  0.22222222  0.00000000       0.006
  -0.33333333  0.22222222  0.00000000       0.006
  -0.22222222  0.22222222  0.00000000       0.006
  -0.11111111  0.22222222  0.00000000       0.006
   0.00000000  0.33333333  0.00000000       0.006
   0.11111111  0.33333333  0.00000000       0.006
   0.22222222  0.33333333  0.00000000       0.006
   0.33333333  0.33333333  0.00000000       0.006
   0.44444444  0.33333333  0.00000000       0.006
  -0.44444444  0.33333333  0.00000000       0.006
  -0.33333333  0.33333333  0.00000000       0.006
  -0.22222222  0.33333333  0.00000000       0.006
  -0.11111111  0.33333333  0.00000000       0.006
   0.00000000  0.44444444  0.00000000       0.006
   0.11111111  0.44444444  0.00000000       0.006
   0.22222222  0.44444444  0.00000000       0.006
   0.33333333  0.44444444  0.00000000       0.006
   0.44444444  0.44444444  0.00000000       0.006
  -0.44444444  0.44444444  0.00000000       0.006
  -0.33333333  0.44444444  0.00000000       0.006
  -0.22222222  0.44444444  0.00000000       0.006
  -0.11111111  0.44444444  0.00000000       0.006
   0.00000000  0.00000000  0.25000000       0.006
   0.11111111  0.00000000  0.25000000       0.006
   0.22222222  0.00000000  0.25000000       0.006
   0.33333333  0.00000000  0.25000000       0.006
   0.44444444  0.00000000  0.25000000       0.006
  -0.44444444 -0.00000000  0.25000000       0.006
  -0.33333333  0.00000000  0.25000000       0.006
  -0.22222222 -0.00000000  0.25000000       0.006
  -0.11111111 -0.00000000  0.25000000       0.006
   0.00000000  0.11111111  0.25000000       0.006
   0.11111111  0.11111111  0.25000000       0.006
   0.22222222  0.11111111  0.25000000       0.006
   0.33333333  0.11111111  0.25000000       0.006
   0.44444444  0.11111111  0.25000000       0.006
  -0.44444444  0.11111111  0.25000000       0.006
  -0.33333333  0.11111111  0.25000000       0.006
  -0.22222222  0.11111111  0.25000000       0.006
  -0.11111111  0.11111111  0.25000000       0.006
   0.00000000  0.22222222  0.25000000       0.006
   0.11111111  0.22222222  0.25000000       0.006
   0.22222222  0.22222222  0.25000000       0.006
   0.33333333  0.22222222  0.25000000       0.006
   0.44444444  0.22222222  0.25000000       0.006
  -0.44444444  0.22222222  0.25000000       0.006
  -0.33333333  0.22222222  0.25000000       0.006
  -0.22222222  0.22222222  0.25000000       0.006
  -0.11111111  0.22222222  0.25000000       0.006
   0.00000000  0.33333333  0.25000000       0.006
   0.11111111  0.33333333  0.25000000       0.006
   0.22222222  0.33333333  0.25000000       0.006
   0.33333333  0.33333333  0.25000000       0.006
   0.44444444  0.33333333  0.25000000       0.006
  -0.44444444  0.33333333  0.25000000       0.006
  -0.33333333  0.33333333  0.25000000       0.006
  -0.22222222  0.33333333  0.25000000       0.006
  -0.11111111  0.33333333  0.25000000       0.006
   0.00000000  0.44444444  0.25000000       0.006
   0.11111111  0.44444444  0.25000000       0.006
   0.22222222  0.44444444  0.25000000       0.006
   0.33333333  0.44444444  0.25000000       0.006
   0.44444444  0.44444444  0.25000000       0.006
  -0.44444444  0.44444444  0.25000000       0.006
  -0.33333333  0.44444444  0.25000000       0.006
  -0.22222222  0.44444444  0.25000000       0.006
  -0.11111111  0.44444444  0.25000000       0.006
  -0.00000000 -0.44444444  0.25000000       0.006
   0.11111111 -0.44444444  0.25000000       0.006
   0.22222222 -0.44444444  0.25000000       0.006
   0.33333333 -0.44444444  0.25000000       0.006
   0.44444444 -0.44444444  0.25000000       0.006
  -0.44444444 -0.44444444  0.25000000       0.006
  -0.33333333 -0.44444444  0.25000000       0.006
  -0.22222222 -0.44444444  0.25000000       0.006
  -0.11111111 -0.44444444  0.25000000       0.006
  -0.00000000 -0.33333333  0.25000000       0.006
   0.11111111 -0.33333333  0.25000000       0.006
   0.22222222 -0.33333333  0.25000000       0.006
   0.33333333 -0.33333333  0.25000000       0.006
   0.44444444 -0.33333333  0.25000000       0.006
  -0.44444444 -0.33333333  0.25000000       0.006
  -0.33333333 -0.33333333  0.25000000       0.006
  -0.22222222 -0.33333333  0.25000000       0.006
  -0.11111111 -0.33333333  0.25000000       0.006
  -0.00000000 -0.22222222  0.25000000       0.006
   0.11111111 -0.22222222  0.25000000       0.006
   0.22222222 -0.22222222  0.25000000       0.006
   0.33333333 -0.22222222  0.25000000       0.006
   0.44444444 -0.22222222  0.25000000       0.006
  -0.44444444 -0.22222222  0.25000000       0.006
  -0.33333333 -0.22222222  0.25000000       0.006
  -0.22222222 -0.22222222  0.25000000       0.006
  -0.11111111 -0.22222222  0.25000000       0.006
  -0.00000000 -0.11111111  0.25000000       0.006
   0.11111111 -0.11111111  0.25000000       0.006
   0.22222222 -0.11111111  0.25000000       0.006
   0.33333333 -0.11111111  0.25000000       0.006
   0.44444444 -0.11111111  0.25000000       0.006
  -0.44444444 -0.11111111  0.25000000       0.006
  -0.33333333 -0.11111111  0.25000000       0.006
  -0.22222222 -0.11111111  0.25000000       0.006
  -0.11111111 -0.11111111  0.25000000       0.006
   0.00000000  0.00000000  0.50000000       0.003
   0.11111111  0.00000000  0.50000000       0.006
   0.22222222  0.00000000  0.50000000       0.006
   0.33333333  0.00000000  0.50000000       0.006
   0.44444444  0.00000000  0.50000000       0.006
   0.00000000  0.11111111  0.50000000       0.006
   0.11111111  0.11111111  0.50000000       0.006
   0.22222222  0.11111111  0.50000000       0.006
   0.33333333  0.11111111  0.50000000       0.006
   0.44444444  0.11111111  0.50000000       0.006
  -0.44444444  0.11111111  0.50000000       0.006
  -0.33333333  0.11111111  0.50000000       0.006
  -0.22222222  0.11111111  0.50000000       0.006
  -0.11111111  0.11111111  0.50000000       0.006
   0.00000000  0.22222222  0.50000000       0.006
   0.11111111  0.22222222  0.50000000       0.006
   0.22222222  0.22222222  0.50000000       0.006
   0.33333333  0.22222222  0.50000000       0.006
   0.44444444  0.22222222  0.50000000       0.006
  -0.44444444  0.22222222  0.50000000       0.006
  -0.33333333  0.22222222  0.50000000       0.006
  -0.22222222  0.22222222  0.50000000       0.006
  -0.11111111  0.22222222  0.50000000       0.006
   0.00000000  0.33333333  0.50000000       0.006
   0.11111111  0.33333333  0.50000000       0.006
   0.22222222  0.33333333  0.50000000       0.006
   0.33333333  0.33333333  0.50000000       0.006
   0.44444444  0.33333333  0.50000000       0.006
  -0.44444444  0.33333333  0.50000000       0.006
  -0.33333333  0.33333333  0.50000000       0.006
  -0.22222222  0.33333333  0.50000000       0.006
  -0.11111111  0.33333333  0.50000000       0.006
   0.00000000  0.44444444  0.50000000       0.006
   0.11111111  0.44444444  0.50000000       0.006
   0.22222222  0.44444444  0.50000000       0.006
   0.33333333  0.44444444  0.50000000       0.006
   0.44444444  0.44444444  0.50000000       0.006
  -0.44444444  0.44444444  0.50000000       0.006
  -0.33333333  0.44444444  0.50000000       0.006
  -0.22222222  0.44444444  0.50000000       0.006
  -0.11111111  0.44444444  0.50000000       0.006
 
 position of ions in fractional coordinates (direct lattice) 
   0.49905917  0.00000017  0.12405932
   0.99999985  0.00000017  0.12500000
   0.49999985  0.50000017  0.12500000
   0.99999985  0.50000017  0.12500000
   0.49999985  0.00000017  0.62500000
   0.99999985  0.00000017  0.62500000
   0.49999985  0.50000017  0.62500000
   0.99999985  0.50000017  0.62500000
   0.00000017  0.49999985  0.37500000
   0.50000017  0.49999985  0.37500000
   0.00000017  0.99999985  0.37500000
   0.50000017  0.99999985  0.37500000
   0.00000017  0.49999985  0.87500000
   0.50000017  0.49999985  0.87500000
   0.00000017  0.99999985  0.87500000
   0.50000017  0.99999985  0.87500000
   0.16664946  0.33335053  0.12500000
   0.66664946  0.33335053  0.12500000
   0.16664946  0.83335053  0.12500000
   0.66664946  0.83335053  0.12500000
   0.16664946  0.33335053  0.62500000
   0.66664946  0.33335053  0.62500000
   0.16664946  0.83335053  0.62500000
   0.66664946  0.83335053  0.62500000
   0.33335053  0.16664946  0.37500000
   0.83335053  0.16664946  0.37500000
   0.33335053  0.66664946  0.37500000
   0.83335053  0.66664946  0.37500000
   0.33335053  0.16664946  0.87500000
   0.83335053  0.16664946  0.87500000
   0.33335053  0.66664946  0.87500000
   0.83335053  0.66664946  0.87500000
 
 position of ions in cartesian coordinates  (Angst):
   2.46251264 -0.00011024  1.16814740
   4.93430971 -0.00022165  1.17700490
   1.23348024  2.13645323  1.17700490
   3.70063568  2.13634203  1.17700490
   2.46715426 -0.00011045  5.88502452
   4.93430971 -0.00022165  5.88502452
   1.23348024  2.13645323  5.88502452
   3.70063568  2.13634203  5.88502452
  -1.23367279  2.13656304  3.53101471
   1.23348265  2.13645184  3.53101471
  -2.46734681  4.27312673  3.53101471
  -0.00019137  4.27301553  3.53101471
  -1.23367279  2.13656304  8.23903433
   1.23348265  2.13645184  8.23903433
  -2.46734681  4.27312673  8.23903433
  -0.00019137  4.27301553  8.23903433
  -0.00019150  1.42441220  1.17700490
   2.46696394  1.42430100  1.17700490
  -1.23386552  3.56097589  1.17700490
   1.23328992  3.56086469  1.17700490
  -0.00019150  1.42441220  5.88502452
   2.46696394  1.42430100  5.88502452
  -1.23386552  3.56097589  5.88502452
   1.23328992  3.56086469  5.88502452
   1.23367290  0.71204025  3.53101471
   3.70082834  0.71192905  3.53101471
  -0.00000112  2.84860394  3.53101471
   2.46715432  2.84849274  3.53101471
   1.23367290  0.71204025  8.23903433
   3.70082834  0.71192905  8.23903433
  -0.00000112  2.84860394  8.23903433
   2.46715432  2.84849274  8.23903433
 


--------------------------------------------------------------------------------------------------------


 k-point  1 :   0.0000 0.0000 0.0000  plane waves:    6577
 k-point  2 :   0.1111 0.0000 0.0000  plane waves:    6617
 k-point  3 :   0.2222 0.0000 0.0000  plane waves:    6621
 k-point  4 :   0.3333 0.0000 0.0000  plane waves:    6631
 k-point  5 :   0.4444 0.0000 0.0000  plane waves:    6631
 k-point  6 :   0.0000 0.1111 0.0000  plane waves:    6617
 k-point  7 :   0.1111 0.1111 0.0000  plane waves:    6600
 k-point  8 :   0.2222 0.1111 0.0000  plane waves:    6618
 k-point  9 :   0.3333 0.1111 0.0000  plane waves:    6630
 k-point 10 :   0.4444 0.1111 0.0000  plane waves:    6636
 k-point 11 :  -0.4444 0.1111 0.0000  plane waves:    6628
 k-point 12 :  -0.3333 0.1111 0.0000  plane waves:    6616
 k-point 13 :  -0.2222 0.1111 0.0000  plane waves:    6600
 k-point 14 :  -0.1111 0.1111 0.0000  plane waves:    6617
 k-point 15 :   0.0000 0.2222 0.0000  plane waves:    6621
 k-point 16 :   0.1111 0.2222 0.0000  plane waves:    6618
 k-point 17 :   0.2222 0.2222 0.0000  plane waves:    6632
 k-point 18 :   0.3333 0.2222 0.0000  plane waves:    6648
 k-point 19 :   0.4444 0.2222 0.0000  plane waves:    6646
 k-point 20 :  -0.4444 0.2222 0.0000  plane waves:    6632
 k-point 21 :  -0.3333 0.2222 0.0000  plane waves:    6616
 k-point 22 :  -0.2222 0.2222 0.0000  plane waves:    6621
 k-point 23 :  -0.1111 0.2222 0.0000  plane waves:    6600
 k-point 24 :   0.0000 0.3333 0.0000  plane waves:    6631
 k-point 25 :   0.1111 0.3333 0.0000  plane waves:    6630
 k-point 26 :   0.2222 0.3333 0.0000  plane waves:    6648
 k-point 27 :   0.3333 0.3333 0.0000  plane waves:    6636
 k-point 28 :   0.4444 0.3333 0.0000  plane waves:    6646
 k-point 29 :  -0.4444 0.3333 0.0000  plane waves:    6628
 k-point 30 :  -0.3333 0.3333 0.0000  plane waves:    6631
 k-point 31 :  -0.2222 0.3333 0.0000  plane waves:    6616
 k-point 32 :  -0.1111 0.3333 0.0000  plane waves:    6616
 k-point 33 :   0.0000 0.4444 0.0000  plane waves:    6631
 k-point 34 :   0.1111 0.4444 0.0000  plane waves:    6636
 k-point 35 :   0.2222 0.4444 0.0000  plane waves:    6646
 k-point 36 :   0.3333 0.4444 0.0000  plane waves:    6646
 k-point 37 :   0.4444 0.4444 0.0000  plane waves:    6636
 k-point 38 :  -0.4444 0.4444 0.0000  plane waves:    6631
 k-point 39 :  -0.3333 0.4444 0.0000  plane waves:    6628
 k-point 40 :  -0.2222 0.4444 0.0000  plane waves:    6632
 k-point 41 :  -0.1111 0.4444 0.0000  plane waves:    6628
 k-point 42 :   0.0000 0.0000 0.2500  plane waves:    6608
 k-point 43 :   0.1111 0.0000 0.2500  plane waves:    6608
 k-point 44 :   0.2222 0.0000 0.2500  plane waves:    6626
 k-point 45 :   0.3333 0.0000 0.2500  plane waves:    6632
 k-point 46 :   0.4444 0.0000 0.2500  plane waves:    6637
 k-point 47 :  -0.4444-0.0000 0.2500  plane waves:    6637
 k-point 48 :  -0.3333 0.0000 0.2500  plane waves:    6632
 k-point 49 :  -0.2222-0.0000 0.2500  plane waves:    6626
 k-point 50 :  -0.1111-0.0000 0.2500  plane waves:    6608
 k-point 51 :   0.0000 0.1111 0.2500  plane waves:    6608
 k-point 52 :   0.1111 0.1111 0.2500  plane waves:    6607
 k-point 53 :   0.2222 0.1111 0.2500  plane waves:    6628
 k-point 54 :   0.3333 0.1111 0.2500  plane waves:    6632
 k-point 55 :   0.4444 0.1111 0.2500  plane waves:    6624
 k-point 56 :  -0.4444 0.1111 0.2500  plane waves:    6632
 k-point 57 :  -0.3333 0.1111 0.2500  plane waves:    6628
 k-point 58 :  -0.2222 0.1111 0.2500  plane waves:    6605
 k-point 59 :  -0.1111 0.1111 0.2500  plane waves:    6608
 k-point 60 :   0.0000 0.2222 0.2500  plane waves:    6626
 k-point 61 :   0.1111 0.2222 0.2500  plane waves:    6628
 k-point 62 :   0.2222 0.2222 0.2500  plane waves:    6623
 k-point 63 :   0.3333 0.2222 0.2500  plane waves:    6630
 k-point 64 :   0.4444 0.2222 0.2500  plane waves:    6630
 k-point 65 :  -0.4444 0.2222 0.2500  plane waves:    6623
 k-point 66 :  -0.3333 0.2222 0.2500  plane waves:    6629
 k-point 67 :  -0.2222 0.2222 0.2500  plane waves:    6626
 k-point 68 :  -0.1111 0.2222 0.2500  plane waves:    6605
 k-point 69 :   0.0000 0.3333 0.2500  plane waves:    6632
 k-point 70 :   0.1111 0.3333 0.2500  plane waves:    6632
 k-point 71 :   0.2222 0.3333 0.2500  plane waves:    6630
 k-point 72 :   0.3333 0.3333 0.2500  plane waves:    6636
 k-point 73 :   0.4444 0.3333 0.2500  plane waves:    6629
 k-point 74 :  -0.4444 0.3333 0.2500  plane waves:    6632
 k-point 75 :  -0.3333 0.3333 0.2500  plane waves:    6632
 k-point 76 :  -0.2222 0.3333 0.2500  plane waves:    6629
 k-point 77 :  -0.1111 0.3333 0.2500  plane waves:    6628
 k-point 78 :   0.0000 0.4444 0.2500  plane waves:    6637
 k-point 79 :   0.1111 0.4444 0.2500  plane waves:    6624
 k-point 80 :   0.2222 0.4444 0.2500  plane waves:    6630
 k-point 81 :   0.3333 0.4444 0.2500  plane waves:    6629
 k-point 82 :   0.4444 0.4444 0.2500  plane waves:    6624
 k-point 83 :  -0.4444 0.4444 0.2500  plane waves:    6637
 k-point 84 :  -0.3333 0.4444 0.2500  plane waves:    6632
 k-point 85 :  -0.2222 0.4444 0.2500  plane waves:    6623
 k-point 86 :  -0.1111 0.4444 0.2500  plane waves:    6632
 k-point 87 :  -0.0000-0.4444 0.2500  plane waves:    6637
 k-point 88 :   0.1111-0.4444 0.2500  plane waves:    6632
 k-point 89 :   0.2222-0.4444 0.2500  plane waves:    6623
 k-point 90 :   0.3333-0.4444 0.2500  plane waves:    6632
 k-point 91 :   0.4444-0.4444 0.2500  plane waves:    6637
 k-point 92 :  -0.4444-0.4444 0.2500  plane waves:    6624
 k-point 93 :  -0.3333-0.4444 0.2500  plane waves:    6629
 k-point 94 :  -0.2222-0.4444 0.2500  plane waves:    6630
 k-point 95 :  -0.1111-0.4444 0.2500  plane waves:    6624
 k-point 96 :  -0.0000-0.3333 0.2500  plane waves:    6632
 k-point 97 :   0.1111-0.3333 0.2500  plane waves:    6628
 k-point 98 :   0.2222-0.3333 0.2500  plane waves:    6629
 k-point 99 :   0.3333-0.3333 0.2500  plane waves:    6632
 k-point ** :   0.4444-0.3333 0.2500  plane waves:    6632
 k-point ** :  -0.4444-0.3333 0.2500  plane waves:    6629
 k-point ** :  -0.3333-0.3333 0.2500  plane waves:    6636
 k-point ** :  -0.2222-0.3333 0.2500  plane waves:    6630
 k-point ** :  -0.1111-0.3333 0.2500  plane waves:    6632
 k-point ** :  -0.0000-0.2222 0.2500  plane waves:    6626
 k-point ** :   0.1111-0.2222 0.2500  plane waves:    6605
 k-point ** :   0.2222-0.2222 0.2500  plane waves:    6626
 k-point ** :   0.3333-0.2222 0.2500  plane waves:    6629
 k-point ** :   0.4444-0.2222 0.2500  plane waves:    6623
 k-point ** :  -0.4444-0.2222 0.2500  plane waves:    6630
 k-point ** :  -0.3333-0.2222 0.2500  plane waves:    6630
 k-point ** :  -0.2222-0.2222 0.2500  plane waves:    6623
 k-point ** :  -0.1111-0.2222 0.2500  plane waves:    6628
 k-point ** :  -0.0000-0.1111 0.2500  plane waves:    6608
 k-point ** :   0.1111-0.1111 0.2500  plane waves:    6608
 k-point ** :   0.2222-0.1111 0.2500  plane waves:    6605
 k-point ** :   0.3333-0.1111 0.2500  plane waves:    6628
 k-point ** :   0.4444-0.1111 0.2500  plane waves:    6632
 k-point ** :  -0.4444-0.1111 0.2500  plane waves:    6624
 k-point ** :  -0.3333-0.1111 0.2500  plane waves:    6632
 k-point ** :  -0.2222-0.1111 0.2500  plane waves:    6628
 k-point ** :  -0.1111-0.1111 0.2500  plane waves:    6607
 k-point ** :   0.0000 0.0000 0.5000  plane waves:    6602
 k-point ** :   0.1111 0.0000 0.5000  plane waves:    6598
 k-point ** :   0.2222 0.0000 0.5000  plane waves:    6618
 k-point ** :   0.3333 0.0000 0.5000  plane waves:    6634
 k-point ** :   0.4444 0.0000 0.5000  plane waves:    6652
 k-point ** :   0.0000 0.1111 0.5000  plane waves:    6598
 k-point ** :   0.1111 0.1111 0.5000  plane waves:    6610
 k-point ** :   0.2222 0.1111 0.5000  plane waves:    6628
 k-point ** :   0.3333 0.1111 0.5000  plane waves:    6632
 k-point ** :   0.4444 0.1111 0.5000  plane waves:    6650
 k-point ** :  -0.4444 0.1111 0.5000  plane waves:    6632
 k-point ** :  -0.3333 0.1111 0.5000  plane waves:    6628
 k-point ** :  -0.2222 0.1111 0.5000  plane waves:    6610
 k-point ** :  -0.1111 0.1111 0.5000  plane waves:    6598
 k-point ** :   0.0000 0.2222 0.5000  plane waves:    6618
 k-point ** :   0.1111 0.2222 0.5000  plane waves:    6628
 k-point ** :   0.2222 0.2222 0.5000  plane waves:    6632
 k-point ** :   0.3333 0.2222 0.5000  plane waves:    6626
 k-point ** :   0.4444 0.2222 0.5000  plane waves:    6626
 k-point ** :  -0.4444 0.2222 0.5000  plane waves:    6632
 k-point ** :  -0.3333 0.2222 0.5000  plane waves:    6628
 k-point ** :  -0.2222 0.2222 0.5000  plane waves:    6618
 k-point ** :  -0.1111 0.2222 0.5000  plane waves:    6610
 k-point ** :   0.0000 0.3333 0.5000  plane waves:    6634
 k-point ** :   0.1111 0.3333 0.5000  plane waves:    6632
 k-point ** :   0.2222 0.3333 0.5000  plane waves:    6626
 k-point ** :   0.3333 0.3333 0.5000  plane waves:    6630
 k-point ** :   0.4444 0.3333 0.5000  plane waves:    6626
 k-point ** :  -0.4444 0.3333 0.5000  plane waves:    6632
 k-point ** :  -0.3333 0.3333 0.5000  plane waves:    6634
 k-point ** :  -0.2222 0.3333 0.5000  plane waves:    6628
 k-point ** :  -0.1111 0.3333 0.5000  plane waves:    6628
 k-point ** :   0.0000 0.4444 0.5000  plane waves:    6652
 k-point ** :   0.1111 0.4444 0.5000  plane waves:    6650
 k-point ** :   0.2222 0.4444 0.5000  plane waves:    6626
 k-point ** :   0.3333 0.4444 0.5000  plane waves:    6626
 k-point ** :   0.4444 0.4444 0.5000  plane waves:    6650
 k-point ** :  -0.4444 0.4444 0.5000  plane waves:    6652
 k-point ** :  -0.3333 0.4444 0.5000  plane waves:    6632
 k-point ** :  -0.2222 0.4444 0.5000  plane waves:    6632
 k-point ** :  -0.1111 0.4444 0.5000  plane waves:    6632

 maximum and minimum number of plane-waves per node :      6652     6577

 maximum number of plane-waves:      6652
 maximum index in each direction: 
   IXMAX=   10   IYMAX=   10   IZMAX=   18
   IXMIN=  -10   IYMIN=  -10   IZMIN=  -19

 WARNING: aliasing errors must be expected set NGX to  42 to avoid them
 WARNING: aliasing errors must be expected set NGY to  42 to avoid them
 NGZ is ok and might be reduce to  76
 aliasing errors are usually negligible using standard VASP settings
 and one can safely disregard these warnings

 serial   3D FFT for wavefunctions
 parallel 3D FFT for charge:
    minimum data exchange during FFTs selected (reduces bandwidth)


 total amount of memory used by VASP on root node   375634. kBytes
========================================================================

   base      :      30000. kBytes
   nonl-proj :      72821. kBytes
   fftplans  :       6527. kBytes
   grid      :      13818. kBytes
   one-center:         98. kBytes
   wavefun   :     252370. kBytes
 
     INWAV:  cpu time    0.00: real time    0.00
 Broyden mixing: mesh for mixing (old mesh)
   NGX = 19   NGY = 19   NGZ = 37
  (NGX  = 80   NGY  = 80   NGZ  =160)
  gives a total of  13357 points

 initial charge density was supplied:
 charge density of overlapping atoms calculated
 number of electron     128.0000000 magnetization 
 keeping initial charge density in first step


--------------------------------------------------------------------------------------------------------


 Maximum index for augmentation-charges         1503 (set IRDMAX)


--------------------------------------------------------------------------------------------------------


 First call to EWALD:  gamma=   0.304
 Maximum number of real-space cells 4x 4x 2
 Maximum number of reciprocal cells 2x 2x 4

 FEWALD executed in parallel
    FEWALD:  cpu time    0.00: real time    0.00


----------------------------------------- Iteration    1(   1)  ---------------------------------------


    POTLOK:  cpu time    0.36: real time    0.36
    SETDIJ:  cpu time    0.02: real time    0.02
     EDDAV:  cpu time  119.55: real time  119.62
 BZINTS: Fermi energy: 19.851269;128.000000 electrons
         Band energy: 497.460670;  BLOECHL correction: -0.126380
       DOS:  cpu time    0.21: real time    0.21
    --------------------------------------------
      LOOP:  cpu time  120.14: real time  120.23

 eigenvalue-minimisations  : 27384
 total energy-change (2. order) : 0.4714001E+03  (-0.7548546E+04)
 number of electron     128.0000000 magnetization 
 augmentation part      128.0000000 magnetization 

 Free energy of the ion-electron system (eV)
  ---------------------------------------------------
  alpha Z        PSCENC =       420.26434557
  Ewald energy   TEWEN  =     -5156.44631672
  -Hartree energ DENC   =      -416.00965015
  -exchange      EXHF   =         0.00000000
  -V(xc)+E(xc)   XCENC  =       454.13719480
  PAW double counting   =      1210.60617908    -1247.42152856
  entropy T*S    EENTRO =         0.00000000
  eigenvalues    EBANDS =       497.46067021
  atomic energy  EATOM  =      4708.80920826
  ---------------------------------------------------
  free energy    TOTEN  =       471.40010249 eV

  energy without entropy =      471.40010249  energy(sigma->0) =      471.40010249


--------------------------------------------------------------------------------------------------------




----------------------------------------- Iteration    1(   2)  ---------------------------------------


     EDDAV:  cpu time  140.37: real time  140.44
 BZINTS: Fermi energy:  8.306508;128.000000 electrons
         Band energy:-232.941440;  BLOECHL correction: -0.010199
       DOS:  cpu time    0.19: real time    0.19
    --------------------------------------------
      LOOP:  cpu time  140.56: real time  140.63

 eigenvalue-minimisations  : 34164
 total energy-change (2. order) :-0.7304021E+03  (-0.6999940E+03)
 number of electron     128.0000000 magnetization 
 augmentation part      128.0000000 magnetization 

 Free energy of the ion-electron system (eV)
  ---------------------------------------------------
  alpha Z        PSCENC =       420.26434557
  Ewald energy   TEWEN  =     -5156.44631672
  -Hartree energ DENC   =      -416.00965015
  -exchange      EXHF   =         0.00000000
  -V(xc)+E(xc)   XCENC  =       454.13719480
  PAW double counting   =      1210.60617908    -1247.42152856
  entropy T*S    EENTRO =         0.00000000
  eigenvalues    EBANDS =      -232.94143956
  atomic energy  EATOM  =      4708.80920826
  ---------------------------------------------------
  free energy    TOTEN  =      -259.00200728 eV

  energy without entropy =     -259.00200728  energy(sigma->0) =     -259.00200728


--------------------------------------------------------------------------------------------------------




----------------------------------------- Iteration    1(   3)  ---------------------------------------


     EDDAV:  cpu time  136.02: real time  136.09
 BZINTS: Fermi energy:  7.633950;128.000000 electrons
         Band energy:-270.052543;  BLOECHL correction: -0.009690
       DOS:  cpu time    0.20: real time    0.20
    --------------------------------------------
      LOOP:  cpu time  136.22: real time  136.30

 eigenvalue-minimisations  : 33432
 total energy-change (2. order) :-0.3711110E+02  (-0.3665287E+02)
 number of electron     128.0000000 magnetization 
 augmentation part      128.0000000 magnetization 

 Free energy of the ion-electron system (eV)
  ---------------------------------------------------
  alpha Z        PSCENC =       420.26434557
  Ewald energy   TEWEN  =     -5156.44631672
  -Hartree energ DENC   =      -416.00965015
  -exchange      EXHF   =         0.00000000
  -V(xc)+E(xc)   XCENC  =       454.13719480
  PAW double counting   =      1210.60617908    -1247.42152856
  entropy T*S    EENTRO =         0.00000000
  eigenvalues    EBANDS =      -270.05254300
  atomic energy  EATOM  =      4708.80920826
  ---------------------------------------------------
  free energy    TOTEN  =      -296.11311071 eV

  energy without entropy =     -296.11311071  energy(sigma->0) =     -296.11311071


--------------------------------------------------------------------------------------------------------




----------------------------------------- Iteration    1(   4)  ---------------------------------------


     EDDAV:  cpu time  128.87: real time  128.94
 BZINTS: Fermi energy:  7.621469;128.000000 electrons
         Band energy:-270.632600;  BLOECHL correction: -0.009556
       DOS:  cpu time    0.20: real time    0.20
    --------------------------------------------
      LOOP:  cpu time  129.07: real time  129.14

 eigenvalue-minimisations  : 33108
 total energy-change (2. order) :-0.5800569E+00  (-0.5786551E+00)
 number of electron     128.0000000 magnetization 
 augmentation part      128.0000000 magnetization 

 Free energy of the ion-electron system (eV)
  ---------------------------------------------------
  alpha Z        PSCENC =       420.26434557
  Ewald energy   TEWEN  =     -5156.44631672
  -Hartree energ DENC   =      -416.00965015
  -exchange      EXHF   =         0.00000000
  -V(xc)+E(xc)   XCENC  =       454.13719480
  PAW double counting   =      1210.60617908    -1247.42152856
  entropy T*S    EENTRO =         0.00000000
  eigenvalues    EBANDS =      -270.63259988
  atomic energy  EATOM  =      4708.80920826
  ---------------------------------------------------
  free energy    TOTEN  =      -296.69316760 eV

  energy without entropy =     -296.69316760  energy(sigma->0) =     -296.69316760


--------------------------------------------------------------------------------------------------------




----------------------------------------- Iteration    1(   5)  ---------------------------------------


     EDDAV:  cpu time  134.20: real time  134.27
 BZINTS: Fermi energy:  7.621396;128.000000 electrons
         Band energy:-270.646475;  BLOECHL correction: -0.009555
       DOS:  cpu time    0.20: real time    0.20
    CHARGE:  cpu time    5.74: real time    5.79
    MIXING:  cpu time    0.00: real time    0.01
    --------------------------------------------
      LOOP:  cpu time  140.15: real time  140.27

 eigenvalue-minimisations  : 33312
 total energy-change (2. order) :-0.1387519E-01  (-0.1386901E-01)
 number of electron     127.9999995 magnetization 
 augmentation part        3.3788610 magnetization 

 Broyden mixing:
  rms(total) = 0.21956E+01    rms(broyden)= 0.21953E+01
  rms(prec ) = 0.28475E+01
  weight for this iteration     100.00

 Free energy of the ion-electron system (eV)
  ---------------------------------------------------
  alpha Z        PSCENC =       420.26434557
  Ewald energy   TEWEN  =     -5156.44631672
  -Hartree energ DENC   =      -416.00965015
  -exchange      EXHF   =         0.00000000
  -V(xc)+E(xc)   XCENC  =       454.13719480
  PAW double counting   =      1210.60617908    -1247.42152856
  entropy T*S    EENTRO =         0.00000000
  eigenvalues    EBANDS =      -270.64647507
  atomic energy  EATOM  =      4708.80920826
  ---------------------------------------------------
  free energy    TOTEN  =      -296.70704279 eV

  energy without entropy =     -296.70704279  energy(sigma->0) =     -296.70704279


--------------------------------------------------------------------------------------------------------




----------------------------------------- Iteration    1(   6)  ---------------------------------------


    POTLOK:  cpu time    0.16: real time    0.16
    SETDIJ:  cpu time    0.01: real time    0.02
     EDDAV:  cpu time  129.54: real time  129.60
 BZINTS: Fermi energy:  8.088861;128.000000 electrons
         Band energy:-179.199188;  BLOECHL correction: -0.009138
       DOS:  cpu time    0.19: real time    0.19
    CHARGE:  cpu time    5.68: real time    5.68
    MIXING:  cpu time    0.00: real time    0.01
    --------------------------------------------
      LOOP:  cpu time  135.58: real time  135.65

 eigenvalue-minimisations  : 31248
 total energy-change (2. order) : 0.1199040E+02  (-0.1087071E+01)
 number of electron     127.9999995 magnetization 
 augmentation part        3.2431655 magnetization 

 Broyden mixing:
  rms(total) = 0.11557E+01    rms(broyden)= 0.11557E+01
  rms(prec ) = 0.14821E+01
  weight for this iteration     100.00

 eigenvalues of (default mixing * dielectric matrix)
  average eigenvalue GAMMA=   2.0556
  2.0556

 Free energy of the ion-electron system (eV)
  ---------------------------------------------------
  alpha Z        PSCENC =       420.26434557
  Ewald energy   TEWEN  =     -5156.44631672
  -Hartree energ DENC   =      -499.59299157
  -exchange      EXHF   =         0.00000000
  -V(xc)+E(xc)   XCENC  =       461.15772178
  PAW double counting   =      1640.37317084    -1680.08259234
  entropy T*S    EENTRO =         0.00000000
  eigenvalues    EBANDS =      -179.19918829
  atomic energy  EATOM  =      4708.80920826
  ---------------------------------------------------
  free energy    TOTEN  =      -284.71664247 eV

  energy without entropy =     -284.71664247  energy(sigma->0) =     -284.71664247


--------------------------------------------------------------------------------------------------------




----------------------------------------- Iteration    1(   7)  ---------------------------------------


    POTLOK:  cpu time    0.56: real time    0.56
    SETDIJ:  cpu time    0.01: real time    0.02
     EDDAV:  cpu time  125.92: real time  125.98
 BZINTS: Fermi energy:  8.521838;128.000000 electrons
         Band energy: -85.635788;  BLOECHL correction: -0.008292
       DOS:  cpu time    0.20: real time    0.20
    CHARGE:  cpu time    5.62: real time    5.62
    MIXING:  cpu time    0.01: real time    0.01
    --------------------------------------------
      LOOP:  cpu time  132.31: real time  132.39

 eigenvalue-minimisations  : 30516
 total energy-change (2. order) : 0.3781675E+01  (-0.1094954E+01)
 number of electron     127.9999996 magnetization 
 augmentation part        3.1021478 magnetization 

 Broyden mixing:
  rms(total) = 0.16274E+00    rms(broyden)= 0.16263E+00
  rms(prec ) = 0.18408E+00
  weight for this iteration     100.00

 eigenvalues of (default mixing * dielectric matrix)
  average eigenvalue GAMMA=   1.9629
  1.7883  2.1375

 Free energy of the ion-electron system (eV)
  ---------------------------------------------------
  alpha Z        PSCENC =       420.26434557
  Ewald energy   TEWEN  =     -5156.44631672
  -Hartree energ DENC   =      -595.02226497
  -exchange      EXHF   =         0.00000000
  -V(xc)+E(xc)   XCENC  =       469.28759075
  PAW double counting   =      2192.88724145    -2235.07898382
  entropy T*S    EENTRO =         0.00000000
  eigenvalues    EBANDS =       -85.63578798
  atomic energy  EATOM  =      4708.80920826
  ---------------------------------------------------
  free energy    TOTEN  =      -280.93496746 eV

  energy without entropy =     -280.93496746  energy(sigma->0) =     -280.93496746


--------------------------------------------------------------------------------------------------------




----------------------------------------- Iteration    1(   8)  ---------------------------------------


    POTLOK:  cpu time    0.16: real time    0.16
    SETDIJ:  cpu time    0.01: real time    0.02
     EDDAV:  cpu time  123.22: real time  123.28
 BZINTS: Fermi energy:  8.508337;128.000000 electrons
         Band energy: -86.625041;  BLOECHL correction: -0.008489
       DOS:  cpu time    0.20: real time    0.20
    CHARGE:  cpu time    5.68: real time    5.69
    MIXING:  cpu time    0.01: real time    0.01
    --------------------------------------------
      LOOP:  cpu time  129.28: real time  129.35

 eigenvalue-minimisations  : 31608
 total energy-change (2. order) :-0.2664419E-01  (-0.2242943E-01)
 number of electron     127.9999996 magnetization 
 augmentation part        3.0968388 magnetization 

 Broyden mixing:
  rms(total) = 0.47651E-01    rms(broyden)= 0.47637E-01
  rms(prec ) = 0.54994E-01
  weight for this iteration     100.00

 eigenvalues of (default mixing * dielectric matrix)
  average eigenvalue GAMMA=   1.8773
  1.1355  1.9582  2.5382

 Free energy of the ion-electron system (eV)
  ---------------------------------------------------
  alpha Z        PSCENC =       420.26434557
  Ewald energy   TEWEN  =     -5156.44631672
  -Hartree energ DENC   =      -594.52364195
  -exchange      EXHF   =         0.00000000
  -V(xc)+E(xc)   XCENC  =       469.28895071
  PAW double counting   =      2236.39519899    -2278.12431524
  entropy T*S    EENTRO =         0.00000000
  eigenvalues    EBANDS =       -86.62504126
  atomic energy  EATOM  =      4708.80920826
  ---------------------------------------------------
  free energy    TOTEN  =      -280.96161165 eV

  energy without entropy =     -280.96161165  energy(sigma->0) =     -280.96161165


--------------------------------------------------------------------------------------------------------




----------------------------------------- Iteration    1(   9)  ---------------------------------------


    POTLOK:  cpu time    0.16: real time    0.16
    SETDIJ:  cpu time    0.01: real time    0.02
     EDDAV:  cpu time  135.08: real time  135.14
 BZINTS: Fermi energy:  8.509561;128.000000 electrons
         Band energy: -86.478325;  BLOECHL correction: -0.008377
       DOS:  cpu time    0.20: real time    0.20
    CHARGE:  cpu time    5.44: real time    5.44
    MIXING:  cpu time    0.01: real time    0.01
    --------------------------------------------
      LOOP:  cpu time  140.90: real time  140.97

 eigenvalue-minimisations  : 33600
 total energy-change (2. order) :-0.2506946E-02  (-0.7137579E-03)
 number of electron     127.9999996 magnetization 
 augmentation part        3.0963409 magnetization 

 Broyden mixing:
  rms(total) = 0.83425E-02    rms(broyden)= 0.83395E-02
  rms(prec ) = 0.11755E-01
  weight for this iteration     100.00

 eigenvalues of (default mixing * dielectric matrix)
  average eigenvalue GAMMA=   1.6358
  2.5404  1.9887  1.2051  0.8089

 Free energy of the ion-electron system (eV)
  ---------------------------------------------------
  alpha Z        PSCENC =       420.26434557
  Ewald energy   TEWEN  =     -5156.44631672
  -Hartree energ DENC   =      -594.89556151
  -exchange      EXHF   =         0.00000000
  -V(xc)+E(xc)   XCENC  =       469.34226964
  PAW double counting   =      2254.80467696    -2296.36441547
  entropy T*S    EENTRO =         0.00000000
  eigenvalues    EBANDS =       -86.47832532
  atomic energy  EATOM  =      4708.80920826
  ---------------------------------------------------
  free energy    TOTEN  =      -280.96411859 eV

  energy without entropy =     -280.96411859  energy(sigma->0) =     -280.96411859


--------------------------------------------------------------------------------------------------------




----------------------------------------- Iteration    1(  10)  ---------------------------------------


    POTLOK:  cpu time    0.16: real time    0.16
    SETDIJ:  cpu time    0.02: real time    0.02
     EDDAV:  cpu time  131.35: real time  131.42
 BZINTS: Fermi energy:  8.509424;128.000000 electrons
         Band energy: -86.564244;  BLOECHL correction: -0.008441
       DOS:  cpu time    0.21: real time    0.21
    CHARGE:  cpu time    5.65: real time    5.65
    MIXING:  cpu time    0.01: real time    0.01
    --------------------------------------------
      LOOP:  cpu time  137.39: real time  137.47

 eigenvalue-minimisations  : 32220
 total energy-change (2. order) :-0.1383283E-03  (-0.7669893E-04)
 number of electron     127.9999996 magnetization 
 augmentation part        3.0963807 magnetization 

 Broyden mixing:
  rms(total) = 0.45240E-02    rms(broyden)= 0.45237E-02
  rms(prec ) = 0.54386E-02
  weight for this iteration     100.00

 eigenvalues of (default mixing * dielectric matrix)
  average eigenvalue GAMMA=   1.7017
  2.3737  2.3737  1.8483  1.1501  0.7627

 Free energy of the ion-electron system (eV)
  ---------------------------------------------------
[...]
     80      15.8599      0.00000
     81      16.3187      0.00000
     82      16.3261      0.00000
     83      17.0907      0.00000
     84      17.0988      0.00000

 k-point   162 :      -0.2222    0.4444    0.5000
  band No.  band energies     occupation 
      1     -11.2496      2.00000
      2     -11.2468      2.00000
      3      -9.4315      2.00000
      4      -9.4295      2.00000
      5      -9.2411      2.00000
      6      -9.2372      2.00000
      7      -9.2367      2.00000
      8      -9.2322      2.00000
      9      -7.5573      2.00000
     10      -7.5535      2.00000
     11      -7.5530      2.00000
     12      -7.5488      2.00000
     13      -5.7935      2.00000
     14      -5.7905      2.00000
     15      -5.1674      2.00000
     16      -5.1659      2.00000
     17      -4.0221      2.00000
     18      -4.0195      2.00000
     19      -3.7843      2.00000
     20      -3.7807      2.00000
     21      -1.6764      2.00000
     22      -1.6735      2.00000
     23      -1.6718      2.00000
     24      -1.6666      2.00000
     25      -1.2697      2.00000
     26      -1.2667      2.00000
     27      -0.6278      2.00000
     28      -0.6245      2.00000
     29      -0.6228      2.00000
     30      -0.6186      2.00000
     31      -0.3572      2.00000
     32      -0.3541      2.00000
     33      -0.2236      2.00000
     34      -0.2197      2.00000
     35       1.4586      2.00000
     36       1.4618      2.00000
     37       1.4643      2.00000
     38       1.4661      2.00000
     39       2.0620      2.00000
     40       2.0655      2.00000
     41       2.0687      2.00000
     42       2.0739      2.00000
     43       2.1892      2.00000
     44       2.1933      2.00000
     45       2.1956      2.00000
     46       2.1968      2.00000
     47       2.4710      2.00000
     48       2.4764      2.00000
     49       2.8730      2.00000
     50       2.8778      2.00000
     51       3.6540      2.00000
     52       3.6585      2.00000
     53       3.9434      2.00000
     54       3.9488      2.00000
     55       5.3320      2.00000
     56       5.3371      2.00000
     57       5.4601      2.00000
     58       5.4682      2.00000
     59       6.9951      2.00000
     60       7.0011      2.00000
     61       7.0015      2.00000
     62       7.0065      2.00000
     63       7.3433      2.00000
     64       7.3456      2.00000
     65       9.7838      0.00000
     66       9.7873      0.00000
     67      11.1900      0.00000
     68      11.2021      0.00000
     69      11.7683      0.00000
     70      11.7740      0.00000
     71      11.7750      0.00000
     72      11.7823      0.00000
     73      14.1348      0.00000
     74      14.1416      0.00000
     75      14.1427      0.00000
     76      14.1496      0.00000
     77      15.6814      0.00000
     78      15.6880      0.00000
     79      16.4796      0.00000
     80      16.4847      0.00000
     81      16.4893      0.00000
     82      16.4925      0.00000
     83      16.7172      0.00000
     84      16.7252      0.00000

 k-point   163 :      -0.1111    0.4444    0.5000
  band No.  band energies     occupation 
      1     -11.1741      2.00000
      2     -11.1713      2.00000
      3      -9.8274      2.00000
      4      -9.8247      2.00000
      5      -9.3608      2.00000
      6      -9.3587      2.00000
      7      -8.5114      2.00000
      8      -8.5087      2.00000
      9      -8.1023      2.00000
     10      -8.1004      2.00000
     11      -6.8813      2.00000
     12      -6.8795      2.00000
     13      -6.6290      2.00000
     14      -6.6264      2.00000
     15      -5.2119      2.00000
     16      -5.2102      2.00000
     17      -3.9332      2.00000
     18      -3.9295      2.00000
     19      -2.8961      2.00000
     20      -2.8945      2.00000
     21      -2.2573      2.00000
     22      -2.2542      2.00000
     23      -1.2593      2.00000
     24      -1.2577      2.00000
     25      -1.1201      2.00000
     26      -1.1180      2.00000
     27      -0.9962      2.00000
     28      -0.9942      2.00000
     29      -0.2680      2.00000
     30      -0.2652      2.00000
     31      -0.1387      2.00000
     32      -0.1348      2.00000
     33       0.0377      2.00000
     34       0.0388      2.00000
     35       0.3811      2.00000
     36       0.3830      2.00000
     37       1.1323      2.00000
     38       1.1352      2.00000
     39       1.4161      2.00000
     40       1.4207      2.00000
     41       2.0470      2.00000
     42       2.0491      2.00000
     43       2.3629      2.00000
     44       2.3646      2.00000
     45       2.7452      2.00000
     46       2.7488      2.00000
     47       2.8778      2.00000
     48       2.8827      2.00000
     49       3.0113      2.00000
     50       3.0124      2.00000
     51       3.5728      2.00000
     52       3.5764      2.00000
     53       4.0863      2.00000
     54       4.0877      2.00000
     55       4.8432      2.00000
     56       4.8495      2.00000
     57       5.4007      2.00000
     58       5.4058      2.00000
     59       6.5488      2.00000
     60       6.5536      2.00000
     61       7.5085      2.00000
     62       7.5129      2.00000
     63       7.8457      2.00000
     64       7.8500      2.01312
     65       9.6175      0.00000
     66       9.6236      0.00000
     67      10.9235      0.00000
     68      10.9296      0.00000
     69      11.5648      0.00000
     70      11.5748      0.00000
     71      12.5724      0.00000
     72      12.5786      0.00000
     73      13.2170      0.00000
     74      13.2241      0.00000
     75      14.8443      0.00000
     76      14.8509      0.00000
     77      15.3412      0.00000
     78      15.3480      0.00000
     79      15.8538      0.00000
     80      15.8569      0.00000
     81      16.3172      0.00000
     82      16.3240      0.00000
     83      17.0915      0.00000
     84      17.0979      0.00000


--------------------------------------------------------------------------------------------------------


 soft charge-density along one line, spin component           1
         0         1         2         3         4         5         6         7         8         9
 total charge-density along one line
 
 pseudopotential strength for first ion, spin component:           1
  9.545  -0.002  -0.000   0.000  -0.000   0.000  -0.000   0.000
 -0.002  -0.002  -0.000  -0.000  -0.000   0.000   0.000   0.000
 -0.000  -0.000  -3.743   0.000  -0.000  -0.014   0.000  -0.000
  0.000  -0.000   0.000  -3.739   0.000   0.000  -0.011   0.000
 -0.000  -0.000  -0.000   0.000  -3.743  -0.000   0.000  -0.014
  0.000   0.000  -0.014   0.000  -0.000  -0.759   0.000  -0.000
 -0.000   0.000   0.000  -0.011   0.000   0.000  -0.759  -0.000
  0.000   0.000  -0.000   0.000  -0.014  -0.000  -0.000  -0.759
 total augmentation occupancy for first ion, spin component:           1
  1.489  -1.094  -0.000   0.000  -0.004  -0.000   0.001  -0.001
 -1.094   1.061   0.000  -0.006   0.004   0.000  -0.001   0.001
 -0.000   0.000   1.224   0.000   0.003   0.224  -0.000   0.001
  0.000  -0.006   0.000   0.921  -0.000  -0.000   0.103  -0.000
 -0.004   0.004   0.003  -0.000   1.224   0.001  -0.000   0.224
 -0.000   0.000   0.224  -0.000   0.001   0.047  -0.000   0.000
  0.001  -0.001  -0.000   0.103  -0.000  -0.000   0.015  -0.000
 -0.001   0.001   0.001  -0.000   0.224   0.000  -0.000   0.047


------------------------ aborting loop because EDIFF is reached ----------------------------------------


    CHARGE:  cpu time    5.49: real time    5.49
    FORLOC:  cpu time    0.04: real time    0.04
    FORNL :  cpu time   35.17: real time   35.19
    STRESS:  cpu time   70.98: real time   71.02
    FORHAR:  cpu time    0.07: real time    0.07
    MIXING:  cpu time    0.01: real time    0.01
    OFIELD:  cpu time    0.00: real time    0.00

 ---------------------------------------------------------------------------------------------

         DFTD3 V3.0 Rev 1        
 IVDW         = 11
 DF pbe       
 parameters
 VDW_S6       =    1.0000
 VDW_S8       =    0.7220
 VDW_SR       =    1.2170
 rs18     =    1.0000
 alpha6   =   14.0000
 alpha8   =   16.0000
 k1-k3    =   16.0000    1.3333   -4.0000
 VDW_RADIUS   =   50.2022 A
 VDW_CNRADIUS =   21.1671 A
 Edisp (eV)   -3.72047

 E6    (eV) :    -2.2431
 E8    (eV) :    -1.4773
 % E8        : 39.71
    FORVDW:  cpu time    1.36: real time    1.43

  FORCE on cell =-STRESS in cart. coord.  units (eV):
  Direction    XX          YY          ZZ          XY          YZ          ZX
  --------------------------------------------------------------------------------------
  Alpha Z   420.26435   420.26435   420.26435
  Ewald    -839.59212  -839.99168 -3476.88438     0.64430    -0.00007    -0.01096
  Hartree   419.36565   419.31480  -243.73074     0.08616     0.00013    -0.00250
  E(xc)    -475.36106  -475.36307  -485.11403     0.00183     0.00001    -0.00003
  Local   -1342.09791 -1341.71930  1720.64821    -0.60233     0.00030     0.01085
  n-local  -109.97551  -109.99075  -112.10301    -0.00610     0.00026    -0.00004
  augment   -12.57015   -12.56950   -11.47097    -0.00102    -0.00001     0.00002
  Kinetic  1936.94236  1937.05555  2288.26894    -0.07420    -0.00373     0.00252
  Fock        0.00000     0.00000     0.00000     0.00000     0.00000     0.00000
  vdW         1.24292     1.24415     1.58038     0.00053    -0.00000    -0.00002
  -------------------------------------------------------------------------------------
  Total      -1.78147    -1.75545   101.45875     0.04917    -0.00310    -0.00016
  in kB     -14.37676   -14.16671   818.78672     0.39680    -0.02502    -0.00130
  external pressure =      263.41 kB  Pullay stress =        0.00 kB


 VOLUME and BASIS-vectors are now :
 -----------------------------------------------------------------------------
  energy-cutoff  :      600.00
  volume of cell :      198.53
      direct lattice vectors                 reciprocal lattice vectors
     4.934310885 -0.000222400  0.000000000     0.202667819  0.117022500  0.000000000
    -2.467348046  4.273127376  0.000000000     0.000010548  0.234026730  0.000000000
     0.000000000  0.000000000  9.416039238     0.000000000  0.000000000  0.106201766

  length of vectors
     4.934310890  4.934310890  9.416039238     0.234026730  0.234026730  0.106201766


 FORCES acting on ions
    electron-ion (+dipol)            ewald-force                    non-local-force                 convergence-correction
 -----------------------------------------------------------------------------------------------
   -.100E+01 -.454E-02 0.447E+00   0.115E+01 0.772E-02 -.410E+00   0.120E+00 0.161E-02 0.106E+00   -.443E-05 0.379E-04 -.135E-01
   0.273E+00 0.345E-03 -.308E+00   -.296E+00 0.165E-02 0.308E+00   -.261E-01 0.129E-02 0.588E-02   -.101E-03 0.222E-04 -.137E-01
   0.379E-01 -.136E+00 -.308E+00   -.282E-01 0.156E+00 0.308E+00   -.100E-01 0.105E-01 0.590E-02   -.284E-04 0.525E-04 -.137E-01
   0.381E-01 0.136E+00 -.308E+00   -.282E-01 -.153E+00 0.308E+00   -.101E-01 -.798E-02 0.595E-02   -.543E-04 -.151E-04 -.137E-01
   -.587E-02 0.425E-03 0.126E+00   -.506E-04 0.163E-02 -.140E+00   -.249E-02 0.128E-02 -.932E-02   0.384E-04 -.173E-04 0.137E-01
   0.185E-02 0.593E-03 0.112E+00   -.561E-02 0.163E-02 -.126E+00   -.314E-02 0.124E-02 -.123E-01   0.345E-04 -.224E-04 0.137E-01
   -.219E-02 -.184E-02 0.112E+00   -.287E-02 0.322E-02 -.126E+00   -.271E-02 0.153E-02 -.123E-01   0.400E-04 -.142E-04 0.137E-01
   -.182E-02 0.259E-02 0.112E+00   -.287E-02 0.509E-04 -.126E+00   -.276E-02 0.105E-02 -.123E-01   0.337E-04 -.185E-04 0.137E-01
   0.303E-03 0.216E-01 0.870E-01   0.139E-02 -.235E-01 -.751E-01   0.282E-02 -.616E-03 0.113E-01   -.167E-04 0.150E-04 -.128E-01
   0.620E-02 -.192E-01 0.858E-01   0.138E-02 0.202E-01 -.751E-01   0.266E-02 -.204E-02 0.154E-01   -.283E-04 0.197E-04 -.128E-01
   0.387E-01 -.385E-02 0.862E-01   -.365E-01 -.165E-02 -.750E-01   0.399E-02 -.123E-02 0.134E-01   -.260E-04 0.142E-04 -.128E-01
   -.491E-01 -.366E-03 0.330E+00   0.560E-01 -.166E-02 -.334E+00   0.266E-02 -.129E-02 0.244E-01   -.183E-04 0.795E-05 -.128E-01
   0.580E-02 0.191E-01 0.595E-01   0.134E-02 -.240E-01 -.744E-01   0.276E-02 -.512E-03 0.152E-01   0.434E-04 -.171E-04 0.127E-01
   0.697E-03 -.230E-01 0.606E-01   0.132E-02 0.207E-01 -.744E-01   0.271E-02 -.201E-02 0.112E-01   0.156E-04 -.108E-04 0.127E-01
   0.396E-01 0.275E-02 0.602E-01   -.374E-01 -.165E-02 -.745E-01   0.401E-02 -.125E-02 0.133E-01   0.242E-04 -.132E-04 0.127E-01
   -.508E-01 -.214E-03 0.306E+00   0.577E-01 -.166E-02 -.337E+00   0.267E-02 -.130E-02 0.255E-01   0.325E-04 -.292E-04 0.127E-01
   0.102E+00 0.981E-03 -.246E+00   -.995E-01 -.165E-02 0.264E+00   -.961E-03 -.894E-03 -.157E-01   0.198E-03 -.133E-03 -.137E-01
   -.325E+00 0.873E-02 -.733E+00   0.316E+00 -.101E-01 0.788E+00   -.318E-01 -.655E-03 -.676E-01   0.203E-03 -.132E-03 -.136E-01
   0.436E+00 0.442E+00 -.738E+00   -.509E+00 -.480E+00 0.794E+00   -.239E-01 0.373E-02 -.679E-01   0.204E-03 -.127E-03 -.136E-01
   0.445E+00 -.442E+00 -.728E+00   -.518E+00 0.478E+00 0.783E+00   -.225E-01 -.609E-02 -.674E-01   0.209E-03 -.130E-03 -.137E-01
   0.136E-02 0.575E-03 0.112E+00   0.218E-02 -.202E-02 -.124E+00   0.208E-02 -.109E-02 0.577E-03   -.148E-03 0.880E-04 0.137E-01
   -.184E-02 0.381E-03 0.118E+00   0.493E-02 -.199E-02 -.131E+00   0.200E-02 -.110E-02 0.203E-02   -.143E-03 0.875E-04 0.137E-01
   -.254E-03 0.146E-02 0.118E+00   0.349E-02 -.287E-02 -.131E+00   0.211E-02 -.103E-02 0.201E-02   -.146E-03 0.831E-04 0.137E-01
   -.527E-03 -.227E-03 0.118E+00   0.355E-02 -.123E-02 -.131E+00   0.211E-02 -.117E-02 0.196E-02   -.144E-03 0.840E-04 0.137E-01
   -.697E-01 0.279E-01 0.112E+00   0.739E-01 -.296E-01 -.102E+00   -.277E-02 0.130E-02 -.680E-02   0.996E-04 -.530E-04 -.128E-01
   0.807E-01 0.574E-01 0.194E+00   -.913E-01 -.615E-01 -.188E+00   -.280E-02 0.779E-03 -.566E-02   0.937E-04 -.607E-04 -.128E-01
   -.201E-01 -.875E-01 0.153E+00   0.189E-01 0.974E-01 -.145E+00   -.231E-02 0.104E-02 -.630E-02   0.104E-03 -.536E-04 -.128E-01
   0.159E-01 -.636E-03 0.700E-01   -.210E-01 0.198E-02 -.621E-01   -.908E-03 0.106E-02 0.378E-02   0.902E-04 -.565E-04 -.128E-01
   0.823E-01 -.603E-01 0.170E+00   -.924E-01 0.667E-01 -.189E+00   -.268E-02 0.124E-02 -.618E-02   -.161E-03 0.103E-03 0.127E-01
   -.696E-01 -.298E-01 0.850E-01   0.745E-01 0.338E-01 -.101E+00   -.270E-02 0.643E-03 -.742E-02   -.151E-03 0.972E-04 0.127E-01
   -.201E-01 0.865E-01 0.127E+00   0.196E-01 -.943E-01 -.145E+00   -.219E-02 0.977E-03 -.677E-02   -.150E-03 0.957E-04 0.127E-01
   0.170E-01 -.117E-02 0.437E-01   -.214E-01 0.200E-02 -.615E-01   -.754E-03 0.956E-03 0.331E-02   -.164E-03 0.102E-03 0.127E-01
 -----------------------------------------------------------------------------------------------
   0.914E-03 -.379E-04 0.369E-01   -.433E-13 0.379E-13 0.362E-14   -.851E-03 0.126E-04 -.372E-01   -.193E-04 0.735E-05 0.200E-03
 
 
 POSITION                                       TOTAL-FORCE (eV/Angst)
 -----------------------------------------------------------------------------------
      2.46251     -0.00011      1.16815         0.271037      0.004835      0.136097
      4.93431     -0.00022      1.17700        -0.050447      0.003313     -0.007418
      1.23348      2.13645      1.17700        -0.000684      0.032002     -0.007326
      3.70064      2.13634      1.17700        -0.000598     -0.025423     -0.007432
      2.46715     -0.00011      5.88502        -0.008384      0.003325     -0.009011
      4.93431     -0.00022      5.88502        -0.006866      0.003449     -0.011730
      1.23348      2.13645      5.88502        -0.007729      0.002889     -0.011730
      3.70064      2.13634      5.88502        -0.007429      0.003672     -0.011750
     -1.23367      2.13656      3.53101         0.004492     -0.002508      0.010368
      1.23348      2.13645      3.53101         0.010201     -0.001029      0.013263
     -2.46735      4.27313      3.53101         0.006108     -0.006717      0.011794
     -0.00019      4.27302      3.53101         0.009698     -0.003306      0.004392
     -1.23367      2.13656      8.23903         0.009935     -0.005505      0.012917
      1.23348      2.13645      8.23903         0.004736     -0.004263      0.010062
     -2.46735      4.27313      8.23903         0.006183     -0.000176      0.011539
     -0.00019      4.27302      8.23903         0.009757     -0.003208      0.004706
     -0.00019      1.42441      1.17700         0.001501     -0.001692     -0.010758
      2.46696      1.42430      1.17700        -0.040207     -0.002185     -0.025710
     -1.23387      3.56098      1.17700        -0.096813     -0.034614     -0.025178
      1.23329      3.56086      1.17700        -0.095278      0.029936     -0.026139
     -0.00019      1.42441      5.88502         0.005480     -0.002455      0.002245
      2.46696      1.42430      5.88502         0.004952     -0.002623      0.002496
     -1.23387      3.56098      5.88502         0.005205     -0.002347      0.002479
      1.23329      3.56086      5.88502         0.004985     -0.002541      0.002438
      1.23367      0.71204      3.53101         0.001676     -0.000512     -0.009843
      3.70083      0.71193      3.53101        -0.013401     -0.003436     -0.011962
     -0.00000      2.84860      3.53101        -0.003300      0.010955     -0.010959
      2.46715      2.84849      3.53101        -0.005882      0.002351     -0.001105
      1.23367      0.71204      8.23903        -0.013006      0.007919     -0.012832
      3.70083      0.71193      8.23903         0.002175      0.004863     -0.010559
     -0.00000      2.84860      8.23903        -0.002830     -0.006855     -0.011655
      2.46715      2.84849      8.23903        -0.005268      0.001889     -0.001699
 -----------------------------------------------------------------------------------
    total drift:                                0.000044     -0.000018     -0.000116


--------------------------------------------------------------------------------------------------------



  FREE ENERGIE OF THE ION-ELECTRON SYSTEM (eV)
  ---------------------------------------------------
  free  energy   TOTEN  =      -284.68483982 eV

  energy  without entropy=     -284.68483982  energy(sigma->0) =     -284.68483982
 


--------------------------------------------------------------------------------------------------------


    POTLOK:  cpu time    0.65: real time    0.65


--------------------------------------------------------------------------------------------------------


     LOOP+:  cpu time 2283.47: real time 2284.86
    4ORBIT:  cpu time    0.00: real time    0.00
 BZINTS: Fermi energy:  8.510612;128.000000 electrons
         Band energy: -86.447061;  BLOECHL correction: -0.008454

 total amount of memory used by VASP on root node   375634. kBytes
========================================================================

   base      :      30000. kBytes
   nonl-proj :      72821. kBytes
   fftplans  :       6527. kBytes
   grid      :      13818. kBytes
   one-center:         98. kBytes
   wavefun   :     252370. kBytes
 
  
  
 General timing and accounting informations for this job:
 ========================================================
  
                  Total CPU time used (sec):     2314.949
                            User time (sec):     1916.726
                          System time (sec):      398.223
                         Elapsed time (sec):     2317.129
  
                   Maximum memory used (kb):      497016.
                   Average memory used (kb):           0.
  
                          Minor page faults:     43130932
                          Major page faults:            7
                 Voluntary context switches:         1187
