 running on    6 total cores
 distrk:  each k-point on    6 cores,    1 groups
 distr:  one band on    1 cores,    6 groups
 using from now: INCAR     
 vasp.5.3.5 31Mar14 (build Nov 02 2014 15:17:37) complex                        
  
 POSCAR found :  1 types and      32 ions
 scaLAPACK will be used

 ----------------------------------------------------------------------------- 
|                                                                             |
|           W    W    AA    RRRRR   N    N  II  N    N   GGGG   !!!           |
|           W    W   A  A   R    R  NN   N  II  NN   N  G    G  !!!           |
|           W    W  A    A  R    R  N N  N  II  N N  N  G       !!!           |
|           W WW W  AAAAAA  RRRRR   N  N N  II  N  N N  G  GGG   !            |
|           WW  WW  A    A  R   R   N   NN  II  N   NN  G    G                |
|           W    W  A    A  R    R  N    N  II  N    N   GGGG   !!!           |
|                                                                             |
|      For optimal performance we recommend to set                            |
|        NCORE= 4 - approx SQRT( number of cores)                             |
|      NCORE specifies how many cores store one orbital (NPAR=cpu/NCORE).     |
|      This setting can  greatly improve the performance of VASP for DFT.     |
|      The default, NPAR=number of cores might be grossly inefficient         |
|      on modern multi-core architectures or massively parallel machines.     |
|      Do your own testing !!!!                                               |
|      Unfortunately you need to use the default for GW and RPA calculations. |
|      (for HF NCORE is supported but not extensively tested yet)             |
|                                                                             |
 ----------------------------------------------------------------------------- 


 ----------------------------------------------------------------------------- 
|                                                                             |
|  ADVICE TO THIS USER RUNNING 'VASP/VAMP'   (HEAR YOUR MASTER'S VOICE ...):  |
|                                                                             |
|      You have a (more or less) 'large supercell' and for larger cells       |
|      it might be more efficient to use real space projection operators      |
|      So try LREAL= Auto  in the INCAR   file.                               |
|      Mind: If you want to do a very accurate calculations keep the          |
|      reciprocal projection scheme          (i.e. LREAL=.FALSE.)             |
|                                                                             |
 ----------------------------------------------------------------------------- 

 LDA part: xc-table for Pade appr. of Perdew
 POSCAR, INCAR and KPOINTS ok, starting setup
 FFT: planning ...
 WAVECAR not read
 WARNING: random wavefunctions but no delay for mixing, default for NELMDL
 entering main loop
       N       E                     dE             d eps       ncg     rms          rms(c)
DAV:   1     0.702245853809E+03    0.70225E+03   -0.84198E+04 12768   0.201E+03
DAV:   2    -0.254900446341E+03   -0.95715E+03   -0.92178E+03 15852   0.341E+02
DAV:   3    -0.312455445067E+03   -0.57555E+02   -0.56929E+02 15516   0.821E+01
DAV:   4    -0.313585541755E+03   -0.11301E+01   -0.11277E+01 15960   0.124E+01
DAV:   5    -0.313618683896E+03   -0.33142E-01   -0.33129E-01 16296   0.199E+00    0.221E+01
DAV:   6    -0.299245004968E+03    0.14374E+02   -0.14827E+01 14592   0.107E+01    0.116E+01
DAV:   7    -0.294702184103E+03    0.45428E+01   -0.15546E+01 14520   0.109E+01    0.194E+00
DAV:   8    -0.294763852383E+03   -0.61668E-01   -0.56062E-01 14928   0.208E+00    0.633E-01
DAV:   9    -0.294764289634E+03   -0.43725E-03   -0.50627E-02 14760   0.720E-01    0.352E-01
DAV:  10    -0.294762593252E+03    0.16964E-02   -0.11647E-02 15408   0.251E-01    0.299E-01
DAV:  11    -0.294761621553E+03    0.97170E-03   -0.41630E-02 20028   0.428E-01    0.206E-01
DAV:  12    -0.294761745359E+03   -0.12381E-03   -0.19880E-02 15120   0.287E-01    0.163E-01
DAV:  13    -0.294761787069E+03   -0.41710E-04   -0.11689E-02 15108   0.214E-01    0.112E-01
DAV:  14    -0.294761852394E+03   -0.65325E-04   -0.80483E-04 14640   0.841E-02    0.122E-01
DAV:  15    -0.294761637908E+03    0.21449E-03   -0.12589E-03 16944   0.664E-02    0.415E-02
DAV:  16    -0.294761664301E+03   -0.26393E-04   -0.73305E-04 16668   0.457E-02    0.524E-02
DAV:  17    -0.294761689175E+03   -0.24874E-04   -0.19994E-03 17352   0.638E-02    0.586E-02
DAV:  18    -0.294761629789E+03    0.59385E-04   -0.21891E-04 16188   0.277E-02    0.229E-02
DAV:  19    -0.294761625182E+03    0.46070E-05   -0.18949E-05 15276   0.103E-02    0.126E-02
DAV:  20    -0.294761623611E+03    0.15717E-05   -0.99057E-06 17712   0.547E-03    0.511E-03
DAV:  21    -0.294761624436E+03   -0.82597E-06   -0.58579E-06 15720   0.392E-03    0.102E-02
DAV:  22    -0.294761623490E+03    0.94689E-06   -0.33415E-05 19956   0.759E-03    0.635E-03
DAV:  23    -0.294761623189E+03    0.30061E-06   -0.11305E-06 14724   0.186E-03    0.380E-03
DAV:  24    -0.294761623020E+03    0.16878E-06   -0.84621E-07 14016   0.149E-03    0.140E-03
DAV:  25    -0.294761622982E+03    0.37742E-07   -0.26992E-07 14568   0.105E-03    0.292E-04
DAV:  26    -0.294761622982E+03    0.27285E-09   -0.14052E-08  9396   0.309E-04
   1 F= -.29983430E+03 E0= -.29983430E+03  d E =0.000000E+00
