  12  12   0   0
  0.9768392E+01  0.4701933E-09  0.6237062E-09  0.3997126E-09  0.5000000E-15
  1.000000000000000E-004
  CAR 
 ethylene                                
     10.46648711    -17.54195937  301     -2.86086534      1.00000000
    -17.542  0.0000E+00  0.0000E+00
    -17.449  0.0000E+00  0.0000E+00
    -17.355  0.0000E+00  0.0000E+00
    -17.262  0.0000E+00  0.0000E+00
    -17.169  0.0000E+00  0.0000E+00
    -17.075  0.0000E+00  0.0000E+00
    -16.982  0.0000E+00  0.0000E+00
    -16.888  0.0000E+00  0.0000E+00
    -16.795  0.0000E+00  0.0000E+00
    -16.702  0.0000E+00  0.0000E+00
    -16.608  0.0000E+00  0.0000E+00
    -16.515  0.0000E+00  0.0000E+00
    -16.422  0.0000E+00  0.0000E+00
    -16.328  0.0000E+00  0.0000E+00
    -16.235  0.0000E+00  0.0000E+00
    -16.142  0.0000E+00  0.0000E+00
    -16.048  0.0000E+00  0.0000E+00
    -15.955  0.0000E+00  0.0000E+00
    -15.861  0.0000E+00  0.0000E+00
    -15.768  0.0000E+00  0.0000E+00
    -15.675  0.0000E+00  0.0000E+00
    -15.581  0.0000E+00  0.0000E+00
    -15.488  0.9911E-02  0.2910E-03
    -15.395  0.2350E-01  0.1807E-02
    -15.301  0.5448E-01  0.5107E-02
    -15.208  0.1262E+00  0.1313E-01
    -15.115  0.0000E+00  0.2000E-01
    -15.021  0.0000E+00  0.2000E-01
    -14.928  0.0000E+00  0.2000E-01
    -14.834  0.0000E+00  0.2000E-01
    -14.741  0.0000E+00  0.2000E-01
    -14.648  0.0000E+00  0.2000E-01
    -14.554  0.0000E+00  0.2000E-01
    -14.461  0.0000E+00  0.2000E-01
    -14.368  0.0000E+00  0.2000E-01
    -14.274  0.0000E+00  0.2000E-01
    -14.181  0.0000E+00  0.2000E-01
    -14.088  0.0000E+00  0.2000E-01
    -13.994  0.0000E+00  0.2000E-01
    -13.901  0.0000E+00  0.2000E-01
    -13.807  0.0000E+00  0.2000E-01
    -13.714  0.0000E+00  0.2000E-01
    -13.621  0.0000E+00  0.2000E-01
    -13.527  0.0000E+00  0.2000E-01
    -13.434  0.0000E+00  0.2000E-01
    -13.341  0.0000E+00  0.2000E-01
    -13.247  0.0000E+00  0.2000E-01
    -13.154  0.0000E+00  0.2000E-01
    -13.061  0.0000E+00  0.2000E-01
    -12.967  0.0000E+00  0.2000E-01
    -12.874  0.0000E+00  0.2000E-01
    -12.781  0.0000E+00  0.2000E-01
    -12.687  0.0000E+00  0.2000E-01
    -12.594  0.0000E+00  0.2000E-01
    -12.500  0.0000E+00  0.2000E-01
    -12.407  0.0000E+00  0.2000E-01
    -12.314  0.0000E+00  0.2000E-01
    -12.220  0.0000E+00  0.2000E-01
    -12.127  0.0000E+00  0.2000E-01
    -12.034  0.0000E+00  0.2000E-01
    -11.940  0.0000E+00  0.2000E-01
    -11.847  0.0000E+00  0.2000E-01
    -11.754  0.0000E+00  0.2000E-01
    -11.660  0.0000E+00  0.2000E-01
    -11.567  0.0000E+00  0.2000E-01
    -11.473  0.0000E+00  0.2000E-01
    -11.380  0.0000E+00  0.2000E-01
    -11.287  0.0000E+00  0.2000E-01
    -11.193  0.0000E+00  0.2000E-01
    -11.100  0.0000E+00  0.2000E-01
    -11.007  0.0000E+00  0.2000E-01
    -10.913  0.0000E+00  0.2000E-01
    -10.820  0.4466E-01  0.2212E-01
    -10.727  0.4931E-01  0.2653E-01
    -10.633  0.6605E-01  0.3170E-01
    -10.540  0.5364E-01  0.3822E-01
    -10.446  0.0000E+00  0.4000E-01
    -10.353  0.0000E+00  0.4000E-01
    -10.260  0.0000E+00  0.4000E-01
    -10.166  0.0000E+00  0.4000E-01
    -10.073  0.0000E+00  0.4000E-01
     -9.980  0.0000E+00  0.4000E-01
     -9.886  0.0000E+00  0.4000E-01
     -9.793  0.0000E+00  0.4000E-01
     -9.700  0.0000E+00  0.4000E-01
     -9.606  0.0000E+00  0.4000E-01
     -9.513  0.0000E+00  0.4000E-01
     -9.420  0.0000E+00  0.4000E-01
     -9.326  0.0000E+00  0.4000E-01
     -9.233  0.0000E+00  0.4000E-01
     -9.139  0.0000E+00  0.4000E-01
     -9.046  0.0000E+00  0.4000E-01
     -8.953  0.0000E+00  0.4000E-01
     -8.859  0.0000E+00  0.4000E-01
     -8.766  0.0000E+00  0.4000E-01
     -8.673  0.0000E+00  0.4000E-01
     -8.579  0.0000E+00  0.4000E-01
     -8.486  0.0000E+00  0.4000E-01
     -8.393  0.0000E+00  0.4000E-01
     -8.299  0.0000E+00  0.4000E-01
     -8.206  0.1926E-01  0.4041E-01
     -8.112  0.4056E-01  0.4361E-01
     -8.019  0.3306E-01  0.4703E-01
     -7.926  0.2742E-01  0.4975E-01
     -7.832  0.2674E-01  0.5227E-01
     -7.739  0.3885E-01  0.5516E-01
     -7.646  0.3154E-01  0.5870E-01
     -7.552  0.0000E+00  0.6000E-01
     -7.459  0.0000E+00  0.6000E-01
     -7.366  0.0000E+00  0.6000E-01
     -7.272  0.0000E+00  0.6000E-01
     -7.179  0.0000E+00  0.6000E-01
     -7.085  0.0000E+00  0.6000E-01
     -6.992  0.8279E-03  0.6001E-01
     -6.899  0.6918E-02  0.6040E-01
     -6.805  0.1313E-01  0.6131E-01
     -6.712  0.2515E-01  0.6302E-01
     -6.619  0.6731E-01  0.6694E-01
     -6.525  0.5107E-01  0.7401E-01
     -6.432  0.2786E-01  0.7748E-01
     -6.339  0.1647E-01  0.7957E-01
     -6.245  0.0000E+00  0.8000E-01
     -6.152  0.0000E+00  0.8000E-01
     -6.058  0.0000E+00  0.8000E-01
     -5.965  0.0000E+00  0.8000E-01
     -5.872  0.0000E+00  0.8000E-01
     -5.778  0.0000E+00  0.8000E-01
     -5.685  0.0000E+00  0.8000E-01
     -5.592  0.0000E+00  0.8000E-01
     -5.498  0.4619E-02  0.8004E-01
     -5.405  0.8846E-02  0.8074E-01
     -5.312  0.1143E-01  0.8168E-01
     -5.218  0.1475E-01  0.8289E-01
     -5.125  0.2009E-01  0.8449E-01
     -5.032  0.3302E-01  0.8688E-01
     -4.938  0.4313E-01  0.9098E-01
     -4.845  0.3157E-01  0.9463E-01
     -4.751  0.1966E-01  0.9729E-01
     -4.658  0.1169E-01  0.9873E-01
     -4.565  0.6619E-02  0.9957E-01
     -4.471  0.1588E-02  0.9998E-01
     -4.378  0.0000E+00  0.1000E+00
     -4.285  0.0000E+00  0.1000E+00
     -4.191  0.0000E+00  0.1000E+00
     -4.098  0.0000E+00  0.1000E+00
     -4.005  0.0000E+00  0.1000E+00
     -3.911  0.0000E+00  0.1000E+00
     -3.818  0.0000E+00  0.1000E+00
     -3.724  0.0000E+00  0.1000E+00
     -3.631  0.2926E-02  0.1001E+00
     -3.538  0.6745E-02  0.1005E+00
     -3.444  0.1262E-01  0.1014E+00
     -3.351  0.2581E-01  0.1031E+00
     -3.258  0.7030E-01  0.1071E+00
     -3.164  0.6486E-01  0.1138E+00
     -3.071  0.2493E-01  0.1174E+00
     -2.978  0.1529E-01  0.1192E+00
     -2.884  0.0000E+00  0.1200E+00
     -2.791  0.0000E+00  0.1200E+00
     -2.697  0.0000E+00  0.1200E+00
     -2.604  0.0000E+00  0.1200E+00
     -2.511  0.0000E+00  0.1200E+00
     -2.417  0.0000E+00  0.1200E+00
     -2.324  0.0000E+00  0.1200E+00
     -2.231  0.0000E+00  0.1200E+00
     -2.137  0.0000E+00  0.1200E+00
     -2.044  0.0000E+00  0.1200E+00
     -1.951  0.0000E+00  0.1200E+00
     -1.857  0.0000E+00  0.1200E+00
     -1.764  0.0000E+00  0.1200E+00
     -1.671  0.0000E+00  0.1200E+00
     -1.577  0.0000E+00  0.1200E+00
     -1.484  0.0000E+00  0.1200E+00
     -1.390  0.0000E+00  0.1200E+00
     -1.297  0.0000E+00  0.1200E+00
     -1.204  0.0000E+00  0.1200E+00
     -1.110  0.0000E+00  0.1200E+00
     -1.017  0.0000E+00  0.1200E+00
     -0.924  0.0000E+00  0.1200E+00
     -0.830  0.0000E+00  0.1200E+00
     -0.737  0.0000E+00  0.1200E+00
     -0.644  0.0000E+00  0.1200E+00
     -0.550  0.0000E+00  0.1200E+00
     -0.457  0.0000E+00  0.1200E+00
     -0.363  0.0000E+00  0.1200E+00
     -0.270  0.0000E+00  0.1200E+00
     -0.177  0.0000E+00  0.1200E+00
     -0.083  0.0000E+00  0.1200E+00
      0.010  0.0000E+00  0.1200E+00
      0.103  0.0000E+00  0.1200E+00
      0.197  0.0000E+00  0.1200E+00
      0.290  0.0000E+00  0.1200E+00
      0.383  0.0000E+00  0.1200E+00
      0.477  0.0000E+00  0.1200E+00
      0.570  0.0000E+00  0.1200E+00
      0.664  0.0000E+00  0.1200E+00
      0.757  0.0000E+00  0.1200E+00
      0.850  0.0000E+00  0.1200E+00
      0.944  0.0000E+00  0.1200E+00
      1.037  0.0000E+00  0.1200E+00
      1.130  0.0000E+00  0.1200E+00
      1.224  0.0000E+00  0.1200E+00
      1.317  0.0000E+00  0.1200E+00
      1.410  0.0000E+00  0.1200E+00
      1.504  0.3035E-02  0.1201E+00
      1.597  0.4424E-02  0.1205E+00
      1.691  0.5626E-02  0.1209E+00
      1.784  0.6715E-02  0.1215E+00
      1.877  0.7997E-02  0.1222E+00
      1.971  0.9535E-02  0.1230E+00
      2.064  0.1165E-01  0.1240E+00
      2.157  0.1373E-01  0.1253E+00
      2.251  0.1435E-01  0.1266E+00
      2.344  0.1521E-01  0.1279E+00
      2.437  0.1655E-01  0.1294E+00
      2.531  0.1864E-01  0.1310E+00
      2.624  0.2335E-01  0.1330E+00
      2.717  0.2279E-01  0.1352E+00
      2.811  0.1984E-01  0.1373E+00
      2.904  0.1288E-01  0.1390E+00
      2.998  0.5007E-02  0.1398E+00
      3.091  0.0000E+00  0.1400E+00
      3.184  0.0000E+00  0.1400E+00
      3.278  0.0000E+00  0.1400E+00
      3.371  0.0000E+00  0.1400E+00
      3.464  0.0000E+00  0.1400E+00
      3.558  0.0000E+00  0.1400E+00
      3.651  0.0000E+00  0.1400E+00
      3.744  0.3517E-04  0.1400E+00
      3.838  0.4888E-02  0.1403E+00
      3.931  0.5207E-02  0.1408E+00
      4.025  0.5663E-02  0.1413E+00
      4.118  0.6276E-02  0.1419E+00
      4.211  0.6858E-02  0.1425E+00
      4.305  0.7691E-02  0.1431E+00
      4.398  0.8673E-02  0.1439E+00
      4.491  0.9591E-02  0.1448E+00
      4.585  0.1081E-01  0.1457E+00
      4.678  0.1310E-01  0.1468E+00
      4.771  0.1630E-01  0.1482E+00
      4.865  0.2199E-01  0.1499E+00
      4.958  0.2646E-01  0.1522E+00
      5.052  0.2385E-01  0.1545E+00
      5.145  0.1701E-01  0.1565E+00
      5.238  0.1326E-01  0.1578E+00
      5.332  0.9802E-02  0.1589E+00
      5.425  0.9784E-02  0.1598E+00
      5.518  0.1202E-01  0.1608E+00
      5.612  0.1108E-01  0.1618E+00
      5.705  0.1211E-01  0.1629E+00
      5.798  0.1704E-01  0.1642E+00
      5.892  0.1596E-01  0.1657E+00
      5.985  0.1570E-01  0.1672E+00
      6.078  0.1648E-01  0.1687E+00
      6.172  0.1753E-01  0.1703E+00
      6.265  0.2059E-01  0.1721E+00
      6.359  0.2074E-01  0.1741E+00
      6.452  0.1429E-01  0.1757E+00
      6.545  0.1298E-01  0.1770E+00
      6.639  0.1193E-01  0.1781E+00
      6.732  0.1236E-01  0.1793E+00
      6.825  0.1003E-01  0.1804E+00
      6.919  0.1172E-01  0.1813E+00
      7.012  0.1246E-01  0.1825E+00
      7.105  0.1187E-01  0.1836E+00
      7.199  0.1160E-01  0.1847E+00
      7.292  0.9199E-02  0.1857E+00
      7.386  0.1101E-01  0.1866E+00
      7.479  0.8643E-02  0.1876E+00
      7.572  0.7542E-02  0.1883E+00
      7.666  0.5641E-02  0.1890E+00
      7.759  0.3105E-02  0.1893E+00
      7.852  0.1870E-02  0.1896E+00
      7.946  0.1316E-02  0.1897E+00
      8.039  0.1029E-02  0.1898E+00
      8.132  0.6946E-03  0.1899E+00
      8.226  0.4350E-03  0.1900E+00
      8.319  0.2308E-03  0.1900E+00
      8.413  0.4535E-04  0.1900E+00
      8.506  0.0000E+00  0.1900E+00
      8.599  0.0000E+00  0.1900E+00
      8.693  0.0000E+00  0.1900E+00
      8.786  0.0000E+00  0.1900E+00
      8.879  0.0000E+00  0.1900E+00
      8.973  0.0000E+00  0.1900E+00
      9.066  0.0000E+00  0.1900E+00
      9.159  0.0000E+00  0.1900E+00
      9.253  0.0000E+00  0.1900E+00
      9.346  0.0000E+00  0.1900E+00
      9.440  0.0000E+00  0.1900E+00
      9.533  0.0000E+00  0.1900E+00
      9.626  0.0000E+00  0.1900E+00
      9.720  0.0000E+00  0.1900E+00
      9.813  0.0000E+00  0.1900E+00
      9.906  0.0000E+00  0.1900E+00
     10.000  0.0000E+00  0.1900E+00
     10.093  0.0000E+00  0.1900E+00
     10.186  0.0000E+00  0.1900E+00
     10.280  0.0000E+00  0.1900E+00
     10.373  0.0000E+00  0.1900E+00
     10.466  0.0000E+00  0.1900E+00
