   12   12  200    1
  0.9768392E+01  0.4701933E-09  0.6237061E-09  0.3997126E-09  0.5000000E-15
  1.000000000000000E-004
  CAR 
 ethylene                                
     24    350     19
 
  0.0000000E+00  0.0000000E+00  0.0000000E+00  0.8680556E-03
    1      -15.541959
    2      -15.176662
    3      -10.618879
    4      -10.616811
    5       -7.685396
    6       -7.599523
    7       -7.010487
    8       -6.599252
    9       -4.972356
   10       -4.442741
   11       -3.257082
   12       -2.942919
   13        1.428136
   14        2.900203
   15        3.771640
   16        4.888592
   17        6.372153
   18        7.356437
   19        7.445384
 
  0.8333333E-01  0.0000000E+00  0.0000000E+00  0.1736111E-02
    1      -15.532140
    2      -15.178317
    3      -10.635478
    4      -10.633117
    5       -7.693640
    6       -7.597703
    7       -6.979394
    8       -6.584936
    9       -4.977405
   10       -4.462827
   11       -3.251871
   12       -2.957274
   13        1.486626
   14        2.924285
   15        3.771637
   16        4.904498
   17        6.398479
   18        7.050493
   19        7.342362
 
  0.1666667E+00  0.0000000E+00  0.0000000E+00  0.1736111E-02
    1      -15.503842
    2      -15.184201
    3      -10.685136
    4      -10.672650
    5       -7.708304
    6       -7.593803
    7       -6.899353
    8       -6.549319
    9       -4.988234
   10       -4.519092
   11       -3.238699
   12       -2.995743
   13        1.653569
   14        2.983451
   15        3.786002
   16        4.950988
   17        6.466629
   18        6.492297
   19        7.058656
 
  0.2500000E+00  0.0000000E+00  0.0000000E+00  0.1736111E-02
    1      -15.460453
    2      -15.196698
    3      -10.749622
    4      -10.728390
    5       -7.712920
    6       -7.591969
    7       -6.796155
    8       -6.510400
    9       -4.993577
   10       -4.601254
   11       -3.222614
   12       -3.046995
   13        1.905178
   14        3.038474
   15        3.851710
   16        5.022714
   17        5.940883
   18        6.494963
   19        6.736839
 
  0.3333333E+00  0.0000000E+00  0.0000000E+00  0.1736111E-02
    1      -15.407224
    2      -15.218703
    3      -10.809488
    4      -10.787051
    5       -7.700237
    6       -7.597483
    7       -6.691655
    8       -6.487814
    9       -4.980624
   10       -4.696411
   11       -3.207156
   12       -3.098462
   13        2.205726
   14        3.038862
   15        4.002859
   16        5.087661
   17        5.478879
   18        6.181060
   19        6.755762
 
  0.4166667E+00  0.0000000E+00  0.0000000E+00  0.1736111E-02
    1      -15.350608
    2      -15.252242
    3      -10.848315
    4      -10.833989
    5       -7.673417
    6       -7.614176
    7       -6.600721
    8       -6.494236
    9       -4.941564
   10       -4.791884
   11       -3.191565
   12       -3.141005
   13        2.510676
   14        2.953016
   15        4.240546
   16        4.895682
   17        5.375936
   18        5.826766
   19        6.862842
 
  0.5000000E+00  0.0000000E+00  0.0000000E+00  0.8680556E-03
    1      -15.297182
    2      -15.297182
    3      -10.856749
    4      -10.856749
    5       -7.641491
    6       -7.641491
    7       -6.532869
    8       -6.532868
    9       -4.876615
   10       -4.876614
   11       -3.171278
   12       -3.171277
   13        2.772314
   14        2.772314
   15        4.546600
   16        4.546600
   17        5.551686
   18        5.551687
   19        6.958101
 
  0.0000000E+00  0.8333333E-01  0.0000000E+00  0.1736111E-02
    1      -15.536178
    2      -15.183384
    3      -10.617624
    4      -10.615743
    5       -7.688424
    6       -7.606796
    7       -6.999711
    8       -6.603624
    9       -4.964142
   10       -4.452639
   11       -3.248063
   12       -2.943700
   13        1.448772
   14        2.873112
   15        3.775197
   16        4.872491
   17        6.355586
   18        7.363283
   19        7.447501
 
  0.8333333E-01  0.8333333E-01  0.0000000E+00  0.3472222E-02
    1      -15.526510
    2      -15.184789
    3      -10.637409
    4      -10.629440
    5       -7.696798
    6       -7.602668
    7       -6.970061
    8       -6.589452
    9       -4.969009
   10       -4.471631
   11       -3.244852
   12       -2.958060
   13        1.506578
   14        2.898339
   15        3.774968
   16        4.889801
   17        6.381154
   18        7.053528
   19        7.353568
 
  0.1666667E+00  0.8333333E-01  0.0000000E+00  0.3472222E-02
    1      -15.498668
    2      -15.189936
    3      -10.687639
    4      -10.669922
    5       -7.710284
    6       -7.595097
    7       -6.892909
    8       -6.554037
    9       -4.979427
   10       -4.525066
   11       -3.236870
   12       -2.996645
   13        1.671662
   14        2.961546
   15        3.788327
   16        4.939420
   17        6.449006
   18        6.505359
   19        7.046219
 
  0.2500000E+00  0.8333333E-01  0.0000000E+00  0.3472222E-02
    1      -15.456049
    2      -15.201266
    3      -10.752472
    4      -10.727319
    5       -7.712517
    6       -7.590623
    7       -6.792316
    8       -6.514992
    9       -4.984544
   10       -4.603677
   11       -3.227223
   12       -3.048539
   13        1.920596
   14        3.024375
   15        3.851605
   16        5.015260
   17        5.950708
   18        6.527212
   19        6.665658
 
  0.3333333E+00  0.8333333E-01  0.0000000E+00  0.3472222E-02
    1      -15.403899
    2      -15.221771
    3      -10.812564
    4      -10.787657
    5       -7.697566
    6       -7.594432
    7       -6.689750
    8       -6.491683
    9       -4.971912
   10       -4.695408
   11       -3.216944
   12       -3.101748
   13        2.218045
   14        3.034106
   15        4.000868
   16        5.093450
   17        5.475441
   18        6.189690
   19        6.714033
 
  0.4166667E+00  0.8333333E-01  0.0000000E+00  0.3472222E-02
    1      -15.348662
    2      -15.253620
    3      -10.851409
    4      -10.835926
    5       -7.669318
    6       -7.610053
    7       -6.600375
    8       -6.496842
    9       -4.933852
   10       -4.788009
   11       -3.203235
   12       -3.147406
   13        2.519813
   14        2.955011
   15        4.241236
   16        4.915703
   17        5.355698
   18        5.824354
   19        6.853087
 
  0.5000000E+00  0.8333333E-01  0.0000000E+00  0.1736111E-02
    1      -15.296840
    2      -15.296839
    3      -10.859506
    4      -10.859506
    5       -7.636967
    6       -7.636966
    7       -6.534006
    8       -6.534006
    9       -4.870528
   10       -4.870527
   11       -3.181234
   12       -3.181234
   13        2.778293
   14        2.778294
   15        4.555194
   16        4.555194
   17        5.540863
   18        5.540863
   19        6.986154
 
  0.0000000E+00  0.1666667E+00  0.0000000E+00  0.1736111E-02
    1      -15.519141
    2      -15.202985
    3      -10.614212
    4      -10.612817
    5       -7.696401
    6       -7.626181
    7       -6.969705
    8       -6.617055
    9       -4.939829
   10       -4.481413
   11       -3.222258
   12       -2.947206
   13        1.510019
   14        2.791508
   15        3.793054
   16        4.817559
   17        6.329112
   18        7.369105
   19        7.465057
 
  0.8333333E-01  0.1666667E+00  0.0000000E+00  0.3472222E-02
    1      -15.509927
    2      -15.203666
    3      -10.637745
    4      -10.624337
    5       -7.704544
    6       -7.616782
    7       -6.943525
    8       -6.603179
    9       -4.944218
   10       -4.497543
   11       -3.224150
   12       -2.961712
   13        1.565896
   14        2.819465
   15        3.793104
   16        4.838235
   17        6.351247
   18        7.061368
   19        7.389589
 
  0.1666667E+00  0.1666667E+00  0.0000000E+00  0.3472222E-02
    1      -15.483451
    2      -15.206691
    3      -10.690959
    4      -10.666020
    5       -7.714018
    6       -7.600527
    7       -6.873805
    8       -6.568210
    9       -4.953647
   10       -4.543417
   11       -3.229561
   12       -3.001182
   13        1.725637
   14        2.892466
   15        3.806223
   16        4.895568
   17        6.409573
   18        6.537921
   19        7.051231
 
  0.2500000E+00  0.1666667E+00  0.0000000E+00  0.3472222E-02
    1      -15.443118
    2      -15.214648
    3      -10.757916
    4      -10.726748
    5       -7.709712
    6       -7.588936
    7       -6.780399
    8       -6.528656
    9       -4.958304
   10       -4.612114
   11       -3.236560
   12       -3.055771
   13        1.966869
   14        2.975386
   15        3.865773
   16        4.981246
   17        5.980571
   18        6.505794
   19        6.645328
 
  0.3333333E+00  0.1666667E+00  0.0000000E+00  0.3472222E-02
    1      -15.394179
    2      -15.230807
    3      -10.819509
    4      -10.790773
    5       -7.688991
    6       -7.587522
    7       -6.683575
    8       -6.503092
    9       -4.946788
   10       -4.693860
   11       -3.240024
   12       -3.114497
   13        2.255258
   14        3.012298
   15        4.009925
   16        5.086857
   17        5.481782
   18        6.170526
   19        6.704810
 
  0.4166667E+00  0.1666667E+00  0.0000000E+00  0.3472222E-02
    1      -15.343006
    2      -15.257725
    3      -10.859137
    4      -10.841898
    5       -7.657444
    6       -7.599510
    7       -6.598982
    8       -6.504453
    9       -4.911822
   10       -4.777812
   11       -3.232604
   12       -3.167936
   13        2.547160
   14        2.956128
   15        4.253878
   16        4.969158
   17        5.297815
   18        5.798343
   19        6.884483
 
  0.5000000E+00  0.1666667E+00  0.0000000E+00  0.1736111E-02
    1      -15.295901
    2      -15.295901
    3      -10.867008
    4      -10.867008
    5       -7.624587
    6       -7.624586
    7       -6.537152
    8       -6.537152
    9       -4.853501
   10       -4.853501
   11       -3.208757
   12       -3.208756
   13        2.794517
   14        2.794518
   15        4.583434
   16        4.583434
   17        5.502488
   18        5.502488
   19        7.071809
 
  0.0000000E+00  0.2500000E+00  0.0000000E+00  0.1736111E-02
    1      -15.491794
    2      -15.233816
    3      -10.609579
    4      -10.608765
    5       -7.706458
    6       -7.651926
    7       -6.925733
    8       -6.640103
    9       -4.900508
   10       -4.526413
   11       -3.183151
   12       -2.956166
   13        1.609931
   14        2.658831
   15        3.839497
   16        4.712861
   17        6.340642
   18        7.331671
   19        7.511591
 
  0.8333333E-01  0.2500000E+00  0.0000000E+00  0.3472222E-02
    1      -15.483322
    2      -15.233392
    3      -10.635507
    4      -10.620075
    5       -7.712748
    6       -7.637700
    7       -6.903521
    8       -6.626535
    9       -4.904386
   10       -4.538926
   11       -3.191237
   12       -2.971310
   13        1.662841
   14        2.689903
   15        3.841818
   16        4.736673
   17        6.356081
   18        7.062747
   19        7.443890
 
  0.1666667E+00  0.2500000E+00  0.0000000E+00  0.3472222E-02
    1      -15.459078
    2      -15.233154
    3      -10.691820
    4      -10.664414
    5       -7.714989
    6       -7.612482
    7       -6.843030
    8       -6.591791
    9       -4.912816
   10       -4.574820
   11       -3.213120
   12       -3.013194
   13        1.814405
   14        2.774265
   15        3.859890
   16        4.801835
   17        6.384812
   18        6.579844
   19        7.104365
 
  0.2500000E+00  0.2500000E+00  0.0000000E+00  0.3472222E-02
    1      -15.422487
    2      -15.235901
    3      -10.762001
    4      -10.729361
    5       -7.701609
    6       -7.591583
    7       -6.759783
    8       -6.550919
    9       -4.917410
   10       -4.629446
   11       -3.241339
   12       -3.073040
   13        2.043719
   14        2.882084
   15        3.921040
   16        4.898141
   17        6.026106
   18        6.384684
   19        6.796403
 
  0.3333333E+00  0.2500000E+00  0.0000000E+00  0.3472222E-02
    1      -15.378770
    2      -15.245286
    3      -10.826515
    4      -10.797477
    5       -7.673910
    6       -7.581823
    7       -6.672024
    8       -6.521406
    9       -4.908234
   10       -4.695769
   11       -3.263890
   12       -3.139805
   13        2.317561
   14        2.959025
   15        4.059464
   16        5.024027
   17        5.522015
   18        6.082144
   19        6.825671
 
  0.4166667E+00  0.2500000E+00  0.0000000E+00  0.3472222E-02
    1      -15.334159
    2      -15.264454
    3      -10.868354
    4      -10.851293
    5       -7.639378
    6       -7.587049
    7       -6.595571
    8       -6.516431
    9       -4.878797
   10       -4.765380
   11       -3.268307
   12       -3.201698
   13        2.591941
   14        2.945373
   15        4.299627
   16        5.044441
   17        5.202400
   18        5.726130
   19        7.003481
 
  0.5000000E+00  0.2500000E+00  0.0000000E+00  0.1736111E-02
    1      -15.294618
    2      -15.294618
    3      -10.877189
    4      -10.877189
    5       -7.607659
    6       -7.607658
    7       -6.541584
    8       -6.541583
    9       -4.829235
   10       -4.829235
   11       -3.247246
   12       -3.247246
   13        2.816344
   14        2.816344
   15        4.636737
   16        4.636737
   17        5.426412
   18        5.426413
   19        7.214760
 
  0.0000000E+00  0.3333333E+00  0.0000000E+00  0.1736111E-02
    1      -15.455704
    2      -15.273399
    3      -10.604995
    4      -10.604650
    5       -7.714778
    6       -7.677895
    7       -6.873626
    8       -6.673001
    9       -4.848269
   10       -4.583872
   11       -3.135854
   12       -2.973672
   13        1.744998
   14        2.486996
   15        3.924196
   16        4.561321
   17        6.422415
   18        7.207737
   19        7.589331
 
  0.8333333E-01  0.3333333E+00  0.0000000E+00  0.3472222E-02
    1      -15.448233
    2      -15.271597
    3      -10.631229
    4      -10.617858
    5       -7.717001
    6       -7.661772
    7       -6.854790
    8       -6.659482
    9       -4.851861
   10       -4.592974
   11       -3.149243
   12       -2.989934
   13        1.794267
   14        2.521213
   15        3.930975
   16        4.585907
   17        6.428080
   18        7.024882
   19        7.503191
 
  0.1666667E+00  0.3333333E+00  0.0000000E+00  0.3472222E-02
    1      -15.427025
    2      -15.267306
    3      -10.689437
    4      -10.666119
    5       -7.709633
    6       -7.631140
    7       -6.802979
    8       -6.624255
    9       -4.860016
   10       -4.619008
   11       -3.185687
   12       -3.035512
   13        1.935630
   14        2.616702
   15        3.959694
   16        4.654109
   17        6.408139
   18        6.610073
   19        7.197424
 
  0.2500000E+00  0.3333333E+00  0.0000000E+00  0.3472222E-02
    1      -15.395489
    2      -15.263522
    3      -10.762647
    4      -10.735462
    5       -7.686750
    6       -7.601759
    7       -6.730698
    8       -6.580788
    9       -4.865810
   10       -4.658425
   11       -3.233976
   12       -3.101665
   13        2.149734
   14        2.749019
   15        4.029760
   16        4.756958
   17        6.078273
   18        6.300809
   19        6.998974
 
  0.3333333E+00  0.3333333E+00  0.0000000E+00  0.3472222E-02
    1      -15.358792
    2      -15.264338
    3      -10.830722
    4      -10.806953
    5       -7.653305
    6       -7.582156
    7       -6.654267
    8       -6.545451
    9       -4.860980
   10       -4.706244
   11       -3.277306
   12       -3.175765
   13        2.403804
   14        2.869898
   15        4.165706
   16        4.892957
   17        5.591272
   18        5.969711
   19        7.043267
 
  0.4166667E+00  0.3333333E+00  0.0000000E+00  0.3472222E-02
    1      -15.322918
    2      -15.273577
    3      -10.875980
    4      -10.862164
    5       -7.618178
    6       -7.577821
    7       -6.589025
    8       -6.531621
    9       -4.840156
   10       -4.756789
   11       -3.298507
   12       -3.242576
   13        2.651623
   14        2.913980
   15        4.392870
   16        5.062621
   17        5.138743
   18        5.616249
   19        7.202241
 
  0.5000000E+00  0.3333333E+00  0.0000000E+00  0.1736111E-02
    1      -15.293331
    2      -15.293330
    3      -10.887291
    4      -10.887291
    5       -7.590697
    6       -7.590696
    7       -6.546165
    8       -6.546165
    9       -4.803697
   10       -4.803697
   11       -3.286872
   12       -3.286872
   13        2.837750
   14        2.837750
   15        4.718836
   16        4.718836
   17        5.312522
   18        5.312523
   19        7.401456
 
  0.0000000E+00  0.4166667E+00  0.0000000E+00  0.1736111E-02
    1      -15.412984
    2      -15.318658
    3      -10.601675
    4      -10.601584
    5       -7.717755
    6       -7.699226
    7       -6.818444
    8       -6.715024
    9       -4.786253
   10       -4.649438
   11       -3.086255
   12       -3.001680
   13        1.909786
   14        2.293629
   15        4.048383
   16        4.383755
   17        6.575720
   18        7.007303
   19        7.695054
 
  0.8333333E-01  0.4166667E+00  0.0000000E+00  0.3472222E-02
    1      -15.406757
    2      -15.315357
    3      -10.626037
    4      -10.618311
    5       -7.714210
    6       -7.684862
    7       -6.802090
    8       -6.701182
    9       -4.790057
   10       -4.655888
   11       -3.102970
   12       -3.019129
   13        1.955055
   14        2.331194
   15        4.060816
   16        4.406191
   17        6.565840
   18        6.913023
   19        7.565750
 
  0.1666667E+00  0.4166667E+00  0.0000000E+00  0.3472222E-02
    1      -15.389258
    2      -15.306596
    3      -10.684226
    4      -10.670859
    5       -7.696673
    6       -7.654010
    7       -6.757159
    8       -6.664285
    9       -4.799337
   10       -4.673864
   11       -3.148938
   12       -3.068070
   13        2.085093
   14        2.437911
   15        4.103002
   16        4.470680
   17        6.475030
   18        6.603965
   19        7.321726
 
  0.2500000E+00  0.4166667E+00  0.0000000E+00  0.3472222E-02
    1      -15.363894
    2      -15.295573
    3      -10.759251
    4      -10.743820
    5       -7.666017
    6       -7.619526
    7       -6.694961
    8       -6.616561
    9       -4.808553
   10       -4.699776
   11       -3.211922
   12       -3.138716
   13        2.281454
   14        2.593138
   15        4.185809
   16        4.572928
   17        6.133103
   18        6.242722
   19        7.238527
 
  0.3333333E+00  0.4166667E+00  0.0000000E+00  0.3472222E-02
    1      -15.335688
    2      -15.286767
    3      -10.830527
    4      -10.817147
    5       -7.629983
    6       -7.590998
    7       -6.630608
    8       -6.573409
    9       -4.811107
   10       -4.729195
   11       -3.273378
   12       -3.215883
   13        2.510439
   14        2.755301
   15        4.323096
   16        4.712971
   17        5.674742
   18        5.863603
   19        7.310722
 
  0.4166667E+00  0.4166667E+00  0.0000000E+00  0.3472222E-02
    1      -15.310248
    2      -15.284689
    3      -10.879674
    4      -10.871934
    5       -7.597953
    6       -7.575838
    7       -6.578638
    8       -6.548367
    9       -4.802837
   10       -4.758342
   11       -3.313177
   12       -3.281020
   13        2.721369
   14        2.861418
   15        4.533126
   16        4.892119
   17        5.243943
   18        5.490237
   19        7.442197
 
  0.5000000E+00  0.4166667E+00  0.0000000E+00  0.1736111E-02
    1      -15.292389
    2      -15.292388
    3      -10.894639
    4      -10.894638
    5       -7.578252
    6       -7.578252
    7       -6.549620
    8       -6.549619
    9       -4.784098
   10       -4.784097
   11       -3.316699
   12       -3.316698
   13        2.853119
   14        2.853119
   15        4.824259
   16        4.824259
   17        5.178958
   18        5.178958
   19        7.588089
 
  0.0000000E+00  0.5000000E+00  0.0000000E+00  0.8680556E-03
    1      -15.366287
    2      -15.366287
    3      -10.600463
    4      -10.600463
    5       -7.712866
    6       -7.712866
    7       -6.764431
    8       -6.764430
    9       -4.718467
   10       -4.718467
   11       -3.040042
   12       -3.040042
   13        2.096339
   14        2.096339
   15        4.205929
   16        4.205929
   17        6.781297
   18        6.781298
   19        7.823568
 
  0.8333333E-01  0.5000000E+00  0.0000000E+00  0.1736111E-02
    1      -15.361469
    2      -15.361469
    3      -10.621305
    4      -10.621305
    5       -7.703199
    6       -7.703199
    7       -6.749662
    8       -6.749661
    9       -4.723164
   10       -4.723164
   11       -3.057919
   12       -3.057918
   13        2.137642
   14        2.137642
   15        4.223975
   16        4.223975
   17        6.742533
   18        6.742533
   19        7.633099
 
  0.1666667E+00  0.5000000E+00  0.0000000E+00  0.1736111E-02
    1      -15.348207
    2      -15.348207
    3      -10.677464
    4      -10.677464
    5       -7.677179
    6       -7.677179
    7       -6.709653
    8       -6.709653
    9       -4.735595
   10       -4.735594
   11       -3.107706
   12       -3.107706
   13        2.255933
   14        2.255933
   15        4.279025
   16        4.279025
   17        6.552636
   18        6.552637
   19        7.467481
 
  0.2500000E+00  0.5000000E+00  0.0000000E+00  0.1736111E-02
    1      -15.329819
    2      -15.329818
    3      -10.752447
    4      -10.752447
    5       -7.642281
    6       -7.642281
    7       -6.655716
    8       -6.655715
    9       -4.751327
   10       -4.751327
   11       -3.178003
   12       -3.178003
   13        2.432550
   14        2.432550
   15        4.373784
   16        4.373784
   17        6.188908
   18        6.188909
   19        7.486827
 
  0.3333333E+00  0.5000000E+00  0.0000000E+00  0.1736111E-02
    1      -15.311106
    2      -15.311106
    3      -10.825665
    4      -10.825665
    5       -7.607879
    6       -7.607878
    7       -6.602765
    8       -6.602765
    9       -4.765235
   10       -4.765235
   11       -3.251248
   12       -3.251248
   13        2.630930
   14        2.630930
   15        4.513512
   16        4.513513
   17        5.765941
   18        5.765942
   19        7.576852
 
  0.4166667E+00  0.5000000E+00  0.0000000E+00  0.1736111E-02
    1      -15.297184
    2      -15.297183
    3      -10.878261
    4      -10.878261
    5       -7.582841
    6       -7.582841
    7       -6.564671
    8       -6.564670
    9       -4.773914
   10       -4.773914
   11       -3.306936
   12       -3.306935
   13        2.794182
   14        2.794182
   15        4.706826
   16        4.706826
   17        5.363150
   18        5.363150
   19        7.650792
 
  0.5000000E+00  0.5000000E+00  0.0000000E+00  0.8680556E-03
    1      -15.292046
    2      -15.292046
    3      -10.897321
    4      -10.897320
    5       -7.573690
    6       -7.573689
    7       -6.550919
    8       -6.550919
    9       -4.776718
   10       -4.776718
   11       -3.327806
   12       -3.327806
   13        2.858670
   14        2.858671
   15        4.899244
   16        4.899244
   17        5.092770
   18        5.092770
   19        7.676807
 
  0.0000000E+00  0.0000000E+00  0.1250000E+00  0.1736111E-02
    1      -15.509675
    2      -15.169301
    3      -10.599111
    4      -10.598768
    5       -7.799103
    6       -7.700577
    7       -6.930718
    8       -6.586889
    9       -4.997955
   10       -4.509380
   11       -3.280155
   12       -2.950954
   13        1.441918
   14        2.845084
   15        3.866343
   16        5.019025
   17        6.257527
   18        7.051240
   19        7.336651
 
  0.8333333E-01  0.0000000E+00  0.1250000E+00  0.1736111E-02
    1      -15.499019
    2      -15.171247
    3      -10.625482
    4      -10.610306
    5       -7.832679
    6       -7.708149
    7       -6.844884
    8       -6.581611
    9       -4.937768
   10       -4.539266
   11       -3.273863
   12       -3.031253
   13        1.474343
   14        2.869641
   15        3.786711
   16        4.966949
   17        6.305018
   18        6.822764
   19        7.569592
 
  0.1666667E+00  0.0000000E+00  0.1250000E+00  0.1736111E-02
    1      -15.470794
    2      -15.176758
    3      -10.676012
    4      -10.651655
    5       -7.848591
    6       -7.708041
    7       -6.738816
    8       -6.557763
    9       -4.895212
   10       -4.609953
   11       -3.257591
   12       -3.128216
   13        1.608630
   14        2.937626
   15        3.740949
   16        4.970265
   17        6.369716
   18        6.507234
   19        7.431949
 
  0.2500000E+00  0.0000000E+00  0.1250000E+00  0.1736111E-02
    1      -15.428436
    2      -15.188239
    3      -10.739839
    4      -10.707767
    5       -7.839869
    6       -7.702395
    7       -6.631938
    8       -6.533908
    9       -4.869014
   10       -4.713715
   11       -3.231169
   12       -3.220487
   13        1.824796
   14        3.024003
   15        3.750749
   16        5.029438
   17        6.179836
   18        6.423972
   19        7.067359
 
  0.3333333E+00  0.0000000E+00  0.1250000E+00  0.1736111E-02
    1      -15.377208
    2      -15.208576
    3      -10.802861
    4      -10.760124
    5       -7.808205
    6       -7.695307
    7       -6.538717
    8       -6.529913
    9       -4.850875
   10       -4.836572
   11       -3.290610
   12       -3.196178
   13        2.095088
   14        3.075988
   15        3.845493
   16        5.138033
   17        5.824945
   18        6.404611
   19        6.808115
 
  0.4166667E+00  0.0000000E+00  0.1250000E+00  0.1736111E-02
    1      -15.323480
    2      -15.239794
    3      -10.850482
    4      -10.793125
    5       -7.762137
    6       -7.691195
    7       -6.558505
    8       -6.468411
    9       -4.961801
   10       -4.829822
   11       -3.329913
   12       -3.153268
   13        2.383983
   14        3.033077
   15        4.048088
   16        5.272960
   17        5.473745
   18        6.260691
   19        6.665285
 
  0.5000000E+00  0.0000000E+00  0.1250000E+00  0.1736111E-02
    1      -15.281844
    2      -15.273589
    3      -10.870954
    4      -10.798059
    5       -7.714103
    6       -7.692718
    7       -6.621207
    8       -6.425805
    9       -5.072453
   10       -4.797238
   11       -3.339565
   12       -3.102058
   13        2.648474
   14        2.871901
   15        4.349099
   16        5.066012
   17        5.529652
   18        6.066550
   19        6.583298
 
 -0.4166667E+00  0.0000000E+00  0.1250000E+00  0.1736111E-02
    1      -15.331988
    2      -15.232506
    3      -10.858314
    4      -10.774567
    5       -7.699445
    6       -7.676519
    7       -6.709743
    8       -6.412649
    9       -5.152859
   10       -4.749550
   11       -3.328476
   12       -3.043467
   13        2.610728
   14        2.845376
   15        4.721518
   16        4.739258
   17        5.812960
   18        5.889028
   19        6.520287
 
 -0.3333333E+00  0.0000000E+00  0.1250000E+00  0.1736111E-02
    1      -15.385172
    2      -15.202725
    3      -10.814380
    4      -10.729929
    5       -7.708687
    6       -7.657237
    7       -6.809675
    8       -6.428591
    9       -5.190864
   10       -4.688798
   11       -3.308930
   12       -2.982619
   13        2.294247
   14        2.948205
   15        4.457201
   16        5.118481
   17        5.758472
   18        6.175525
   19        6.478622
 
 -0.2500000E+00  0.0000000E+00  0.1250000E+00  0.1736111E-02
    1      -15.435108
    2      -15.184000
    3      -10.749192
    4      -10.676705
    5       -7.719151
    6       -7.656743
    7       -6.901947
    8       -6.468734
    9       -5.182677
   10       -4.622282
   11       -3.291746
   12       -2.929975
   13        1.976438
   14        2.961160
   15        4.239432
   16        5.330075
   17        5.858023
   18        6.313869
   19        6.745182
 
 -0.1666667E+00  0.0000000E+00  0.1250000E+00  0.1736111E-02
    1      -15.475572
    2      -15.174078
    3      -10.679396
    4      -10.629363
    5       -7.734794
    6       -7.669179
    7       -6.963774
    8       -6.520279
    9       -5.136429
   10       -4.561413
   11       -3.282614
   12       -2.899690
   13        1.706308
   14        2.918283
   15        4.083062
   16        5.244626
   17        6.269109
   18        6.280907
   19        7.219312
 
 -0.8333333E-01  0.0000000E+00  0.1250000E+00  0.1736111E-02
    1      -15.501509
    2      -15.169964
    3      -10.624157
    4      -10.600676
    5       -7.762075
    6       -7.686202
    7       -6.974969
    8       -6.564851
    9       -5.068837
   10       -4.519559
   11       -3.280710
   12       -2.904871
   13        1.520907
   14        2.867017
   15        3.965118
   16        5.118228
   17        6.243666
   18        6.748304
   19        7.381482
 
  0.0000000E+00  0.8333333E-01  0.1250000E+00  0.3472222E-02
    1      -15.504235
    2      -15.175501
    3      -10.600261
    4      -10.596044
    5       -7.801037
    6       -7.704253
    7       -6.924362
    8       -6.591220
    9       -4.990010
   10       -4.517643
   11       -3.272032
   12       -2.952801
   13        1.461628
   14        2.819285
   15        3.873480
   16        5.005273
   17        6.228653
   18        7.107713