   4   4   0   0
  0.3492237E+01  0.2466437E-09  0.2466437E-09  0.2652700E-09  0.5000000E-15
  1.000000000000000E-004
  CAR 
 graphite                                
     35.92039859    -13.36632188  301     19.86975186      1.00000000
    -13.366  0.0000E+00  0.0000E+00
    -13.202  0.0000E+00  0.0000E+00
    -13.038  0.0000E+00  0.0000E+00
    -12.873  0.0000E+00  0.0000E+00
    -12.709  0.0000E+00  0.0000E+00
    -12.545  0.0000E+00  0.0000E+00
    -12.381  0.0000E+00  0.0000E+00
    -12.216  0.0000E+00  0.0000E+00
    -12.052  0.0000E+00  0.0000E+00
    -11.888  0.0000E+00  0.0000E+00
    -11.723  0.0000E+00  0.0000E+00
    -11.559  0.0000E+00  0.0000E+00
    -11.395  0.0000E+00  0.0000E+00
    -11.231  0.0000E+00  0.0000E+00
    -11.066  0.5332E-04  0.1062E-05
    -10.902  0.2875E-03  0.2934E-04
    -10.738  0.4119E-03  0.8981E-04
    -10.573  0.4924E-03  0.1640E-03
    -10.409  0.5698E-03  0.2515E-03
    -10.245  0.6456E-03  0.3510E-03
    -10.081  0.7282E-03  0.4642E-03
     -9.916  0.7697E-03  0.5873E-03
     -9.752  0.8195E-03  0.7176E-03
     -9.588  0.8725E-03  0.8568E-03
     -9.423  0.9158E-03  0.1004E-02
     -9.259  0.9630E-03  0.1158E-02
     -9.095  0.1015E-02  0.1320E-02
     -8.931  0.1066E-02  0.1491E-02
     -8.766  0.1106E-02  0.1670E-02
     -8.602  0.1141E-02  0.1855E-02
     -8.438  0.1181E-02  0.2046E-02
     -8.273  0.1221E-02  0.2243E-02
     -8.109  0.1257E-02  0.2446E-02
     -7.945  0.1292E-02  0.2656E-02
     -7.780  0.1330E-02  0.2871E-02
     -7.616  0.1371E-02  0.3093E-02
     -7.452  0.1413E-02  0.3322E-02
     -7.288  0.1452E-02  0.3557E-02
     -7.123  0.1492E-02  0.3799E-02
     -6.959  0.1530E-02  0.4047E-02
     -6.795  0.1568E-02  0.4302E-02
     -6.630  0.1609E-02  0.4563E-02
     -6.466  0.1654E-02  0.4831E-02
     -6.302  0.1702E-02  0.5106E-02
     -6.138  0.1761E-02  0.5390E-02
     -5.973  0.1840E-02  0.5686E-02
     -5.809  0.1972E-02  0.5996E-02
     -5.645  0.2128E-02  0.6338E-02
     -5.480  0.2019E-02  0.6680E-02
     -5.316  0.2079E-02  0.7020E-02
     -5.152  0.1991E-02  0.7356E-02
     -4.988  0.1944E-02  0.7680E-02
     -4.823  0.1876E-02  0.7994E-02
     -4.659  0.1877E-02  0.8301E-02
     -4.495  0.1824E-02  0.8607E-02
     -4.330  0.1700E-02  0.8896E-02
     -4.166  0.1597E-02  0.9166E-02
     -4.002  0.1542E-02  0.9424E-02
     -3.838  0.1513E-02  0.9674E-02
     -3.673  0.1599E-02  0.9926E-02
     -3.509  0.1742E-02  0.1020E-01
     -3.345  0.1748E-02  0.1049E-01
     -3.180  0.1838E-02  0.1079E-01
     -3.016  0.1942E-02  0.1110E-01
     -2.852  0.1970E-02  0.1142E-01
     -2.688  0.2031E-02  0.1175E-01
     -2.523  0.2093E-02  0.1209E-01
     -2.359  0.2198E-02  0.1244E-01
     -2.195  0.2363E-02  0.1281E-01
     -2.030  0.2440E-02  0.1321E-01
     -1.866  0.2440E-02  0.1361E-01
     -1.702  0.2487E-02  0.1402E-01
     -1.538  0.2575E-02  0.1443E-01
     -1.373  0.2697E-02  0.1486E-01
     -1.209  0.2770E-02  0.1531E-01
     -1.045  0.2714E-02  0.1576E-01
     -0.880  0.2561E-02  0.1620E-01
     -0.716  0.2432E-02  0.1661E-01
     -0.552  0.2250E-02  0.1699E-01
     -0.387  0.2113E-02  0.1735E-01
     -0.223  0.2052E-02  0.1769E-01
     -0.059  0.2155E-02  0.1803E-01
      0.105  0.2226E-02  0.1839E-01
      0.270  0.2203E-02  0.1875E-01
      0.434  0.2445E-02  0.1914E-01
      0.598  0.2574E-02  0.1955E-01
      0.763  0.2717E-02  0.1998E-01
      0.927  0.2731E-02  0.2042E-01
      1.091  0.2953E-02  0.2089E-01
      1.255  0.3200E-02  0.2140E-01
      1.420  0.3269E-02  0.2193E-01
      1.584  0.3280E-02  0.2247E-01
      1.748  0.3233E-02  0.2300E-01
      1.913  0.3151E-02  0.2353E-01
      2.077  0.3146E-02  0.2404E-01
      2.241  0.3098E-02  0.2456E-01
      2.405  0.3122E-02  0.2507E-01
      2.570  0.3209E-02  0.2559E-01
      2.734  0.3463E-02  0.2613E-01
      2.898  0.2967E-02  0.2665E-01
      3.063  0.3058E-02  0.2714E-01
      3.227  0.3220E-02  0.2766E-01
      3.391  0.3352E-02  0.2820E-01
      3.555  0.3325E-02  0.2875E-01
      3.720  0.3319E-02  0.2930E-01
      3.884  0.3518E-02  0.2985E-01
      4.048  0.3834E-02  0.3046E-01
      4.213  0.3813E-02  0.3111E-01
      4.377  0.3837E-02  0.3172E-01
      4.541  0.4155E-02  0.3238E-01
      4.705  0.4098E-02  0.3306E-01
      4.870  0.3823E-02  0.3372E-01
      5.034  0.3565E-02  0.3432E-01
      5.198  0.3272E-02  0.3489E-01
      5.363  0.2916E-02  0.3539E-01
      5.527  0.2701E-02  0.3585E-01
      5.691  0.2567E-02  0.3628E-01
      5.855  0.2489E-02  0.3670E-01
      6.020  0.2497E-02  0.3711E-01
      6.184  0.2590E-02  0.3752E-01
      6.348  0.2769E-02  0.3797E-01
      6.513  0.2794E-02  0.3842E-01
      6.677  0.2732E-02  0.3888E-01
      6.841  0.2684E-02  0.3932E-01
      7.006  0.2673E-02  0.3976E-01
      7.170  0.2646E-02  0.4020E-01
      7.334  0.2633E-02  0.4063E-01
      7.498  0.2614E-02  0.4106E-01
      7.663  0.2599E-02  0.4149E-01
      7.827  0.2583E-02  0.4192E-01
      7.991  0.2564E-02  0.4234E-01
      8.156  0.2540E-02  0.4276E-01
      8.320  0.2510E-02  0.4317E-01
      8.484  0.2491E-02  0.4358E-01
      8.648  0.2477E-02  0.4399E-01
      8.813  0.2451E-02  0.4440E-01
      8.977  0.2374E-02  0.4479E-01
      9.141  0.2305E-02  0.4518E-01
      9.306  0.2269E-02  0.4555E-01
      9.470  0.2253E-02  0.4593E-01
      9.634  0.2309E-02  0.4630E-01
      9.798  0.2388E-02  0.4668E-01
      9.963  0.2475E-02  0.4708E-01
     10.127  0.2578E-02  0.4750E-01
     10.291  0.2706E-02  0.4793E-01
     10.456  0.2884E-02  0.4839E-01
     10.620  0.3145E-02  0.4888E-01
     10.784  0.3629E-02  0.4943E-01
     10.948  0.4012E-02  0.5007E-01
     11.113  0.4301E-02  0.5075E-01
     11.277  0.3893E-02  0.5143E-01
     11.441  0.3516E-02  0.5204E-01
     11.606  0.2410E-02  0.5251E-01
     11.770  0.2162E-02  0.5289E-01
     11.934  0.1994E-02  0.5323E-01
     12.098  0.1860E-02  0.5354E-01
     12.263  0.1772E-02  0.5384E-01
     12.427  0.1705E-02  0.5413E-01
     12.591  0.1633E-02  0.5440E-01
     12.756  0.1581E-02  0.5466E-01
     12.920  0.1554E-02  0.5492E-01
     13.084  0.1542E-02  0.5518E-01
     13.249  0.1570E-02  0.5543E-01
     13.413  0.1659E-02  0.5569E-01
     13.577  0.1769E-02  0.5598E-01
     13.741  0.2534E-02  0.5632E-01
     13.906  0.3597E-02  0.5682E-01
     14.070  0.5050E-02  0.5752E-01
     14.234  0.6303E-02  0.5853E-01
     14.399  0.4259E-02  0.5939E-01
     14.563  0.2255E-02  0.5987E-01
     14.727  0.2567E-02  0.6025E-01
     14.891  0.2500E-02  0.6066E-01
     15.056  0.2872E-02  0.6109E-01
     15.220  0.3843E-02  0.6164E-01
     15.384  0.3767E-02  0.6228E-01
     15.549  0.3589E-02  0.6287E-01
     15.713  0.3987E-02  0.6348E-01
     15.877  0.5121E-02  0.6421E-01
     16.041  0.5137E-02  0.6507E-01
     16.206  0.4989E-02  0.6590E-01
     16.370  0.4822E-02  0.6671E-01
     16.534  0.4338E-02  0.6747E-01
     16.699  0.3829E-02  0.6814E-01
     16.863  0.3821E-02  0.6876E-01
     17.027  0.3964E-02  0.6940E-01
     17.191  0.4135E-02  0.7006E-01
     17.356  0.4248E-02  0.7075E-01
     17.520  0.4161E-02  0.7145E-01
     17.684  0.4139E-02  0.7212E-01
     17.849  0.4105E-02  0.7280E-01
     18.013  0.4046E-02  0.7347E-01
     18.177  0.3990E-02  0.7413E-01
     18.341  0.3941E-02  0.7478E-01
     18.506  0.3897E-02  0.7543E-01
     18.670  0.3781E-02  0.7606E-01
     18.834  0.3699E-02  0.7667E-01
     18.999  0.3707E-02  0.7728E-01
     19.163  0.3364E-02  0.7789E-01
     19.327  0.3025E-02  0.7841E-01
     19.491  0.2923E-02  0.7889E-01
     19.656  0.3134E-02  0.7938E-01
     19.820  0.2852E-02  0.7986E-01
     19.984  0.3091E-02  0.8034E-01
     20.149  0.3816E-02  0.8090E-01
     20.313  0.4426E-02  0.8157E-01
     20.477  0.5791E-02  0.8241E-01
     20.642  0.5797E-02  0.8336E-01
     20.806  0.5746E-02  0.8432E-01
     20.970  0.5080E-02  0.8521E-01
     21.134  0.4721E-02  0.8603E-01
     21.299  0.4385E-02  0.8677E-01
     21.463  0.4403E-02  0.8747E-01
     21.627  0.4131E-02  0.8819E-01
     21.792  0.3345E-02  0.8880E-01
     21.956  0.3021E-02  0.8932E-01
     22.120  0.2892E-02  0.8980E-01
     22.284  0.2822E-02  0.9027E-01
     22.449  0.2798E-02  0.9073E-01
     22.613  0.2814E-02  0.9119E-01
     22.777  0.2944E-02  0.9166E-01
     22.942  0.3150E-02  0.9216E-01
     23.106  0.3414E-02  0.9270E-01
     23.270  0.3720E-02  0.9329E-01
     23.434  0.3969E-02  0.9392E-01
     23.599  0.4327E-02  0.9460E-01
     23.763  0.4839E-02  0.9535E-01
     23.927  0.5455E-02  0.9620E-01
     24.092  0.5946E-02  0.9713E-01
     24.256  0.6584E-02  0.9816E-01
     24.420  0.6256E-02  0.9925E-01
     24.584  0.5673E-02  0.1002E+00
     24.749  0.5567E-02  0.1011E+00
     24.913  0.4597E-02  0.1020E+00
     25.077  0.3316E-02  0.1027E+00
     25.242  0.2189E-02  0.1031E+00
     25.406  0.1905E-02  0.1034E+00
     25.570  0.1912E-02  0.1037E+00
     25.734  0.2130E-02  0.1040E+00
     25.899  0.2066E-02  0.1044E+00
     26.063  0.1998E-02  0.1047E+00
     26.227  0.1915E-02  0.1050E+00
     26.392  0.1907E-02  0.1054E+00
     26.556  0.1818E-02  0.1057E+00
     26.720  0.1745E-02  0.1060E+00
     26.884  0.1678E-02  0.1062E+00
     27.049  0.1635E-02  0.1065E+00
     27.213  0.1647E-02  0.1068E+00
     27.377  0.1658E-02  0.1070E+00
     27.542  0.1668E-02  0.1073E+00
     27.706  0.1677E-02  0.1076E+00
     27.870  0.1684E-02  0.1079E+00
     28.035  0.1697E-02  0.1081E+00
     28.199  0.1707E-02  0.1084E+00
     28.363  0.1714E-02  0.1087E+00
     28.527  0.1716E-02  0.1090E+00
     28.692  0.1743E-02  0.1093E+00
     28.856  0.1810E-02  0.1096E+00
     29.020  0.1854E-02  0.1099E+00
     29.185  0.1846E-02  0.1102E+00
     29.349  0.1871E-02  0.1105E+00
     29.513  0.1904E-02  0.1108E+00
     29.677  0.1950E-02  0.1111E+00
     29.842  0.2000E-02  0.1114E+00
     30.006  0.2046E-02  0.1118E+00
     30.170  0.2086E-02  0.1121E+00
     30.335  0.2155E-02  0.1124E+00
     30.499  0.2251E-02  0.1128E+00
     30.663  0.2534E-02  0.1132E+00
     30.827  0.2405E-02  0.1136E+00
     30.992  0.2327E-02  0.1140E+00
     31.156  0.2360E-02  0.1144E+00
     31.320  0.2424E-02  0.1148E+00
     31.485  0.2477E-02  0.1152E+00
     31.649  0.2552E-02  0.1156E+00
     31.813  0.2611E-02  0.1160E+00
     31.977  0.2646E-02  0.1164E+00
     32.142  0.2675E-02  0.1169E+00
     32.306  0.2658E-02  0.1173E+00
     32.470  0.2656E-02  0.1178E+00
     32.635  0.2751E-02  0.1182E+00
     32.799  0.4139E-02  0.1187E+00
     32.963  0.3445E-02  0.1194E+00
     33.127  0.1467E-02  0.1198E+00
     33.292  0.4870E-03  0.1199E+00
     33.456  0.1749E-03  0.1200E+00
     33.620  0.1387E-04  0.1200E+00
     33.785  0.0000E+00  0.1200E+00
     33.949  0.0000E+00  0.1200E+00
     34.113  0.0000E+00  0.1200E+00
     34.278  0.0000E+00  0.1200E+00
     34.442  0.0000E+00  0.1200E+00
     34.606  0.0000E+00  0.1200E+00
     34.770  0.0000E+00  0.1200E+00
     34.935  0.0000E+00  0.1200E+00
     35.099  0.0000E+00  0.1200E+00
     35.263  0.0000E+00  0.1200E+00
     35.428  0.0000E+00  0.1200E+00
     35.592  0.0000E+00  0.1200E+00
     35.756  0.0000E+00  0.1200E+00
     35.920  0.0000E+00  0.1200E+00
