<?xml version="1.0" encoding="ISO-8859-1"?>
<modeling>
 <generator>
  <i name="program" type="string">vasp </i>
  <i name="version" type="string">5.3.5  </i>
  <i name="subversion" type="string">31Mar14 (build Nov 02 2014 15:17:37) complex                          parallel </i>
  <i name="platform" type="string">ion-Intel-MKL </i>
  <i name="date" type="string">2016 10 19 </i>
  <i name="time" type="string">16:24:56 </i>
 </generator>
 <incar>
  <i type="string" name="SYSTEM">graphite</i>
  <i type="string" name="PREC">accurate</i>
  <i type="int" name="NELM">   200</i>
  <i type="int" name="IBRION">    -1</i>
  <i name="EDIFF">      0.00000001</i>
  <i name="EDIFFG">      0.00100000</i>
  <i type="int" name="NSW">     0</i>
  <i type="int" name="ISIF">     2</i>
  <i name="ENCUT">    800.00000000</i>
  <i type="int" name="ISMEAR">    -5</i>
  <i type="logical" name="LWAVE"> F  </i>
  <i type="logical" name="LCHARG"> F  </i>
  <i type="int" name="NELM">   200</i>
  <i type="string" name="GGA">PE</i>
 </incar>
 <kpoints>
  <generation param="Gamma">
   <v type="int" name="divisions">       6        6        4 </v>
   <v name="usershift">      0.00000000       0.00000000       0.00000000 </v>
   <v name="genvec1">      0.16666667      -0.00000000       0.00000000 </v>
   <v name="genvec2">      0.00000000       0.16666667       0.00000000 </v>
   <v name="genvec3">      0.00000000       0.00000000       0.25000000 </v>
   <v name="shift">      0.00000000       0.00000000       0.00000000 </v>
  </generation>
  <varray name="kpointlist" >
   <v>       0.00000000       0.00000000       0.00000000 </v>
   <v>       0.16666667      -0.00000000       0.00000000 </v>
   <v>       0.33333333      -0.00000000       0.00000000 </v>
   <v>       0.50000000       0.00000000       0.00000000 </v>
   <v>       0.00000000       0.16666667       0.00000000 </v>
   <v>       0.16666667       0.16666667       0.00000000 </v>
   <v>       0.33333333       0.16666667       0.00000000 </v>
   <v>       0.50000000       0.16666667       0.00000000 </v>
   <v>      -0.33333333       0.16666667       0.00000000 </v>
   <v>      -0.16666667       0.16666667       0.00000000 </v>
   <v>       0.00000000       0.33333333       0.00000000 </v>
   <v>       0.16666667       0.33333333       0.00000000 </v>
   <v>       0.33333333       0.33333333       0.00000000 </v>
   <v>       0.50000000       0.33333333       0.00000000 </v>
   <v>      -0.33333333       0.33333333       0.00000000 </v>
   <v>      -0.16666667       0.33333333       0.00000000 </v>
   <v>       0.00000000       0.50000000       0.00000000 </v>
   <v>       0.16666667       0.50000000       0.00000000 </v>
   <v>       0.33333333       0.50000000       0.00000000 </v>
   <v>       0.50000000       0.50000000       0.00000000 </v>
   <v>       0.00000000       0.00000000       0.25000000 </v>
   <v>       0.16666667      -0.00000000       0.25000000 </v>
   <v>       0.33333333      -0.00000000       0.25000000 </v>
   <v>       0.50000000       0.00000000       0.25000000 </v>
   <v>      -0.33333333       0.00000000       0.25000000 </v>
   <v>      -0.16666667       0.00000000       0.25000000 </v>
   <v>       0.00000000       0.16666667       0.25000000 </v>
   <v>       0.16666667       0.16666667       0.25000000 </v>
   <v>       0.33333333       0.16666667       0.25000000 </v>
   <v>       0.50000000       0.16666667       0.25000000 </v>
   <v>      -0.33333333       0.16666667       0.25000000 </v>
   <v>      -0.16666667       0.16666667       0.25000000 </v>
   <v>       0.00000000       0.33333333       0.25000000 </v>
   <v>       0.16666667       0.33333333       0.25000000 </v>
   <v>       0.33333333       0.33333333       0.25000000 </v>
   <v>       0.50000000       0.33333333       0.25000000 </v>
   <v>      -0.33333333       0.33333333       0.25000000 </v>
   <v>      -0.16666667       0.33333333       0.25000000 </v>
   <v>       0.00000000       0.50000000       0.25000000 </v>
   <v>       0.16666667       0.50000000       0.25000000 </v>
   <v>       0.33333333       0.50000000       0.25000000 </v>
   <v>       0.50000000       0.50000000       0.25000000 </v>
   <v>      -0.33333333       0.50000000       0.25000000 </v>
   <v>      -0.16666667       0.50000000       0.25000000 </v>
   <v>      -0.00000000      -0.33333333       0.25000000 </v>
   <v>       0.16666667      -0.33333333       0.25000000 </v>
   <v>       0.33333333      -0.33333333       0.25000000 </v>
   <v>       0.50000000      -0.33333333       0.25000000 </v>
   <v>      -0.33333333      -0.33333333       0.25000000 </v>
   <v>      -0.16666667      -0.33333333       0.25000000 </v>
   <v>      -0.00000000      -0.16666667       0.25000000 </v>
   <v>       0.16666667      -0.16666667       0.25000000 </v>
   <v>       0.33333333      -0.16666667       0.25000000 </v>
   <v>       0.50000000      -0.16666667       0.25000000 </v>
   <v>      -0.33333333      -0.16666667       0.25000000 </v>
   <v>      -0.16666667      -0.16666667       0.25000000 </v>
   <v>       0.00000000       0.00000000       0.50000000 </v>
   <v>       0.16666667      -0.00000000       0.50000000 </v>
   <v>       0.33333333      -0.00000000       0.50000000 </v>
   <v>       0.50000000       0.00000000       0.50000000 </v>
   <v>       0.00000000       0.16666667       0.50000000 </v>
   <v>       0.16666667       0.16666667       0.50000000 </v>
   <v>       0.33333333       0.16666667       0.50000000 </v>
   <v>       0.50000000       0.16666667       0.50000000 </v>
   <v>      -0.33333333       0.16666667       0.50000000 </v>
   <v>      -0.16666667       0.16666667       0.50000000 </v>
   <v>       0.00000000       0.33333333       0.50000000 </v>
   <v>       0.16666667       0.33333333       0.50000000 </v>
   <v>       0.33333333       0.33333333       0.50000000 </v>
   <v>       0.50000000       0.33333333       0.50000000 </v>
   <v>      -0.33333333       0.33333333       0.50000000 </v>
   <v>      -0.16666667       0.33333333       0.50000000 </v>
   <v>       0.00000000       0.50000000       0.50000000 </v>
   <v>       0.16666667       0.50000000       0.50000000 </v>
   <v>       0.33333333       0.50000000       0.50000000 </v>
   <v>       0.50000000       0.50000000       0.50000000 </v>
  </varray>
  <varray name="weights" >
   <v>       0.00694444 </v>
   <v>       0.01388889 </v>
   <v>       0.01388889 </v>
   <v>       0.00694444 </v>
   <v>       0.01388889 </v>
   <v>       0.01388889 </v>
   <v>       0.01388889 </v>
   <v>       0.01388889 </v>
   <v>       0.01388889 </v>
   <v>       0.01388889 </v>
   <v>       0.01388889 </v>
   <v>       0.01388889 </v>
   <v>       0.01388889 </v>
   <v>       0.01388889 </v>
   <v>       0.01388889 </v>
   <v>       0.01388889 </v>
   <v>       0.00694444 </v>
   <v>       0.01388889 </v>
   <v>       0.01388889 </v>
   <v>       0.00694444 </v>
   <v>       0.01388889 </v>
   <v>       0.01388889 </v>
   <v>       0.01388889 </v>
   <v>       0.01388889 </v>
   <v>       0.01388889 </v>
   <v>       0.01388889 </v>
   <v>       0.01388889 </v>
   <v>       0.01388889 </v>
   <v>       0.01388889 </v>
   <v>       0.01388889 </v>
   <v>       0.01388889 </v>
   <v>       0.01388889 </v>
   <v>       0.01388889 </v>
   <v>       0.01388889 </v>
   <v>       0.01388889 </v>
   <v>       0.01388889 </v>
   <v>       0.01388889 </v>
   <v>       0.01388889 </v>
   <v>       0.01388889 </v>
   <v>       0.01388889 </v>
   <v>       0.01388889 </v>
   <v>       0.01388889 </v>
   <v>       0.01388889 </v>
   <v>       0.01388889 </v>
   <v>       0.01388889 </v>
   <v>       0.01388889 </v>
   <v>       0.01388889 </v>
   <v>       0.01388889 </v>
   <v>       0.01388889 </v>
   <v>       0.01388889 </v>
   <v>       0.01388889 </v>
   <v>       0.01388889 </v>
   <v>       0.01388889 </v>
   <v>       0.01388889 </v>
   <v>       0.01388889 </v>
   <v>       0.01388889 </v>
   <v>       0.00694444 </v>
   <v>       0.01388889 </v>
   <v>       0.01388889 </v>
   <v>       0.00694444 </v>
   <v>       0.01388889 </v>
   <v>       0.01388889 </v>
   <v>       0.01388889 </v>
   <v>       0.01388889 </v>
   <v>       0.01388889 </v>
   <v>       0.01388889 </v>
   <v>       0.01388889 </v>
   <v>       0.01388889 </v>
   <v>       0.01388889 </v>
   <v>       0.01388889 </v>
   <v>       0.01388889 </v>
   <v>       0.01388889 </v>
   <v>       0.00694444 </v>
   <v>       0.01388889 </v>
   <v>       0.01388889 </v>
   <v>       0.00694444 </v>
  </varray>
  <varray name="tetrahedronlist"  type="int" >
   <v type="int" >        2        2        5        6       27 </v>
   <v type="int" >        2        1        2        5       27 </v>
   <v type="int" >        2        1        2       21       27 </v>
   <v type="int" >        2        2        6       27       28 </v>
   <v type="int" >        2        2       22       27       28 </v>
   <v type="int" >        2        2       21       22       27 </v>
   <v type="int" >        2        3        6        7       28 </v>
   <v type="int" >        2        2        3        6       28 </v>
   <v type="int" >        2        2        3       22       28 </v>
   <v type="int" >        2        3        7       28       29 </v>
   <v type="int" >        2        3       23       28       29 </v>
   <v type="int" >        2        3       22       23       28 </v>
   <v type="int" >        2        4        7        8       29 </v>
   <v type="int" >        2        3        4        7       29 </v>
   <v type="int" >        2        3        4       23       29 </v>
   <v type="int" >        2        4        8       29       30 </v>
   <v type="int" >        2        4       24       29       30 </v>
   <v type="int" >        2        4       23       24       29 </v>
   <v type="int" >        2        3        8        9       30 </v>
   <v type="int" >        2        3        4        8       30 </v>
   <v type="int" >        2        3        4       24       30 </v>
   <v type="int" >        2        3        9       30       31 </v>
   <v type="int" >        2        3       25       30       31 </v>
   <v type="int" >        2        3       24       25       30 </v>
   <v type="int" >        2        2        9       10       31 </v>
   <v type="int" >        2        2        3        9       31 </v>
   <v type="int" >        2        2        3       25       31 </v>
   <v type="int" >        2        2       10       31       32 </v>
   <v type="int" >        2        2       26       31       32 </v>
   <v type="int" >        2        2       25       26       31 </v>
   <v type="int" >        2        1        5       10       32 </v>
   <v type="int" >        2        1        2       10       32 </v>
   <v type="int" >        2        1        2       26       32 </v>
   <v type="int" >        2        1        5       27       32 </v>
   <v type="int" >        2        1       21       27       32 </v>
   <v type="int" >        2        1       21       26       32 </v>
   <v type="int" >        2        6       11       12       33 </v>
   <v type="int" >        2        5        6       11       33 </v>
   <v type="int" >        2        5        6       27       33 </v>
   <v type="int" >        2        6       12       33       34 </v>
   <v type="int" >        2        6       28       33       34 </v>
   <v type="int" >        2        6       27       28       33 </v>
   <v type="int" >        2        7       12       13       34 </v>
   <v type="int" >        2        6        7       12       34 </v>
   <v type="int" >        2        6        7       28       34 </v>
   <v type="int" >        2        7       13       34       35 </v>
   <v type="int" >        2        7       29       34       35 </v>
   <v type="int" >        2        7       28       29       34 </v>
   <v type="int" >        2        8       13       14       35 </v>
   <v type="int" >        2        7        8       13       35 </v>
   <v type="int" >        2        7        8       29       35 </v>
   <v type="int" >        2        8       14       35       36 </v>
   <v type="int" >        2        8       30       35       36 </v>
   <v type="int" >        2        8       29       30       35 </v>
   <v type="int" >        2        9       14       15       36 </v>
   <v type="int" >        2        8        9       14       36 </v>
   <v type="int" >        2        8        9       30       36 </v>
   <v type="int" >        2        9       15       36       37 </v>
   <v type="int" >        2        9       31       36       37 </v>
   <v type="int" >        2        9       30       31       36 </v>
   <v type="int" >        2       10       15       16       37 </v>
   <v type="int" >        2        9       10       15       37 </v>
   <v type="int" >        2        9       10       31       37 </v>
   <v type="int" >        2       10       16       37       38 </v>
   <v type="int" >        2       10       32       37       38 </v>
   <v type="int" >        2       10       31       32       37 </v>
   <v type="int" >        2        5       11       16       38 </v>
   <v type="int" >        2        5       10       16       38 </v>
   <v type="int" >        2        5       10       32       38 </v>
   <v type="int" >        2        5       11       33       38 </v>
   <v type="int" >        2        5       27       33       38 </v>
   <v type="int" >        2        5       27       32       38 </v>
   <v type="int" >        2       12       17       18       39 </v>
   <v type="int" >        2       11       12       17       39 </v>
   <v type="int" >        2       11       12       33       39 </v>
   <v type="int" >        2       12       18       39       40 </v>
   <v type="int" >        2       12       34       39       40 </v>
   <v type="int" >        2       12       33       34       39 </v>
   <v type="int" >        2       13       18       19       40 </v>
   <v type="int" >        2       12       13       18       40 </v>
   <v type="int" >        2       12       13       34       40 </v>
   <v type="int" >        2       13       19       40       41 </v>
   <v type="int" >        2       13       35       40       41 </v>
   <v type="int" >        2       13       34       35       40 </v>
   <v type="int" >        2       14       19       20       41 </v>
   <v type="int" >        2       13       14       19       41 </v>
   <v type="int" >        2       13       14       35       41 </v>
   <v type="int" >        2       14       20       41       42 </v>
   <v type="int" >        2       14       36       41       42 </v>
   <v type="int" >        2       14       35       36       41 </v>
   <v type="int" >        2       15       19       20       42 </v>
   <v type="int" >        2       14       15       20       42 </v>
   <v type="int" >        2       14       15       36       42 </v>
   <v type="int" >        2       15       19       42       43 </v>
   <v type="int" >        2       15       37       42       43 </v>
   <v type="int" >        2       15       36       37       42 </v>
   <v type="int" >        2       16       18       19       43 </v>
   <v type="int" >        2       15       16       19       43 </v>
   <v type="int" >        2       15       16       37       43 </v>
   <v type="int" >        2       16       18       43       44 </v>
   <v type="int" >        2       16       38       43       44 </v>
   <v type="int" >        2       16       37       38       43 </v>
   <v type="int" >        2       11       17       18       44 </v>
   <v type="int" >        2       11       16       18       44 </v>
   <v type="int" >        2       11       16       38       44 </v>
   <v type="int" >        2       11       17       39       44 </v>
   <v type="int" >        2       11       33       39       44 </v>
   <v type="int" >        2       11       33       38       44 </v>
   <v type="int" >        2       11       16       18       45 </v>
   <v type="int" >        2       11       17       18       45 </v>
   <v type="int" >        2       17       18       39       45 </v>
   <v type="int" >        2       16       18       45       46 </v>
   <v type="int" >        2       18       40       45       46 </v>
   <v type="int" >        2       18       39       40       45 </v>
   <v type="int" >        2       15       16       19       46 </v>
   <v type="int" >        2       16       18       19       46 </v>
   <v type="int" >        2       18       19       40       46 </v>
   <v type="int" >        2       15       19       46       47 </v>
   <v type="int" >        2       19       41       46       47 </v>
   <v type="int" >        2       19       40       41       46 </v>
   <v type="int" >        2       14       15       20       47 </v>
   <v type="int" >        2       15       19       20       47 </v>
   <v type="int" >        2       19       20       41       47 </v>
   <v type="int" >        2       14       20       47       48 </v>
   <v type="int" >        2       20       42       47       48 </v>
   <v type="int" >        2       20       41       42       47 </v>
   <v type="int" >        2       13       14       19       48 </v>
   <v type="int" >        2       14       19       20       48 </v>
   <v type="int" >        2       19       20       42       48 </v>
   <v type="int" >        2       13       19       48       49 </v>
   <v type="int" >        2       19       43       48       49 </v>
   <v type="int" >        2       19       42       43       48 </v>
   <v type="int" >        2       12       13       18       49 </v>
   <v type="int" >        2       13       18       19       49 </v>
   <v type="int" >        2       18       19       43       49 </v>
   <v type="int" >        2       12       18       49       50 </v>
   <v type="int" >        2       18       44       49       50 </v>
   <v type="int" >        2       18       43       44       49 </v>
   <v type="int" >        2       11       12       17       50 </v>
   <v type="int" >        2       12       17       18       50 </v>
   <v type="int" >        2       17       18       44       50 </v>
   <v type="int" >        2       11       17       45       50 </v>
   <v type="int" >        2       17       39       45       50 </v>
   <v type="int" >        2       17       39       44       50 </v>
   <v type="int" >        2        5       10       16       51 </v>
   <v type="int" >        2        5       11       16       51 </v>
   <v type="int" >        2       11       16       45       51 </v>
   <v type="int" >        2       10       16       51       52 </v>
   <v type="int" >        2       16       46       51       52 </v>
   <v type="int" >        2       16       45       46       51 </v>
   <v type="int" >        2        9       10       15       52 </v>
   <v type="int" >        2       10       15       16       52 </v>
   <v type="int" >        2       15       16       46       52 </v>
   <v type="int" >        2        9       15       52       53 </v>
   <v type="int" >        2       15       47       52       53 </v>
   <v type="int" >        2       15       46       47       52 </v>
   <v type="int" >        2        8        9       14       53 </v>
   <v type="int" >        2        9       14       15       53 </v>
   <v type="int" >        2       14       15       47       53 </v>
   <v type="int" >        2        8       14       53       54 </v>
   <v type="int" >        2       14       48       53       54 </v>
   <v type="int" >        2       14       47       48       53 </v>
   <v type="int" >        2        7        8       13       54 </v>
   <v type="int" >        2        8       13       14       54 </v>
   <v type="int" >        2       13       14       48       54 </v>
   <v type="int" >        2        7       13       54       55 </v>
   <v type="int" >        2       13       49       54       55 </v>
   <v type="int" >        2       13       48       49       54 </v>
   <v type="int" >        2        6        7       12       55 </v>
   <v type="int" >        2        7       12       13       55 </v>
   <v type="int" >        2       12       13       49       55 </v>
   <v type="int" >        2        6       12       55       56 </v>
   <v type="int" >        2       12       50       55       56 </v>
   <v type="int" >        2       12       49       50       55 </v>
   <v type="int" >        2        5        6       11       56 </v>
   <v type="int" >        2        6       11       12       56 </v>
   <v type="int" >        2       11       12       50       56 </v>
   <v type="int" >        2        5       11       51       56 </v>
   <v type="int" >        2       11       45       51       56 </v>
   <v type="int" >        2       11       45       50       56 </v>
   <v type="int" >        2        1        2       10       21 </v>
   <v type="int" >        2        1        5       10       21 </v>
   <v type="int" >        2        5       10       21       51 </v>
   <v type="int" >        2        2       10       21       22 </v>
   <v type="int" >        2       10       21       22       52 </v>
   <v type="int" >        2       10       21       51       52 </v>
   <v type="int" >        2        2        3        9       22 </v>
   <v type="int" >        2        2        9       10       22 </v>
   <v type="int" >        2        9       10       22       52 </v>
   <v type="int" >        2        3        9       22       23 </v>
   <v type="int" >        2        9       22       23       53 </v>
   <v type="int" >        2        9       22       52       53 </v>
   <v type="int" >        2        3        4        8       23 </v>
   <v type="int" >        2        3        8        9       23 </v>
   <v type="int" >        2        8        9       23       53 </v>
   <v type="int" >        2        4        8       23       24 </v>
   <v type="int" >        2        8       23       24       54 </v>
   <v type="int" >        2        8       23       53       54 </v>
   <v type="int" >        2        3        4        7       24 </v>
   <v type="int" >        2        4        7        8       24 </v>
   <v type="int" >        2        7        8       24       54 </v>
   <v type="int" >        2        3        7       24       25 </v>
   <v type="int" >        2        7       24       25       55 </v>
   <v type="int" >        2        7       24       54       55 </v>
   <v type="int" >        2        2        3        6       25 </v>
   <v type="int" >        2        3        6        7       25 </v>
   <v type="int" >        2        6        7       25       55 </v>
   <v type="int" >        2        2        6       25       26 </v>
   <v type="int" >        2        6       25       26       56 </v>
   <v type="int" >        2        6       25       55       56 </v>
   <v type="int" >        2        1        2        5       26 </v>
   <v type="int" >        2        2        5        6       26 </v>
   <v type="int" >        2        5        6       26       56 </v>
   <v type="int" >        2        1        5       21       26 </v>
   <v type="int" >        2        5       21       26       51 </v>
   <v type="int" >        2        5       26       51       56 </v>
   <v type="int" >        2       22       27       28       61 </v>
   <v type="int" >        2       21       22       27       61 </v>
   <v type="int" >        2       21       22       57       61 </v>
   <v type="int" >        2       22       28       61       62 </v>
   <v type="int" >        2       22       58       61       62 </v>
   <v type="int" >        2       22       57       58       61 </v>
   <v type="int" >        2       23       28       29       62 </v>
   <v type="int" >        2       22       23       28       62 </v>
   <v type="int" >        2       22       23       58       62 </v>
   <v type="int" >        2       23       29       62       63 </v>
   <v type="int" >        2       23       59       62       63 </v>
   <v type="int" >        2       23       58       59       62 </v>
   <v type="int" >        2       24       29       30       63 </v>
   <v type="int" >        2       23       24       29       63 </v>
   <v type="int" >        2       23       24       59       63 </v>
   <v type="int" >        2       24       30       63       64 </v>
   <v type="int" >        2       24       60       63       64 </v>
   <v type="int" >        2       24       59       60       63 </v>
   <v type="int" >        2       25       30       31       64 </v>
   <v type="int" >        2       24       25       30       64 </v>
   <v type="int" >        2       24       25       60       64 </v>
   <v type="int" >        2       25       31       64       65 </v>
   <v type="int" >        2       25       59       64       65 </v>
   <v type="int" >        2       25       59       60       64 </v>
   <v type="int" >        2       26       31       32       65 </v>
   <v type="int" >        2       25       26       31       65 </v>
   <v type="int" >        2       25       26       59       65 </v>
   <v type="int" >        2       26       32       65       66 </v>
   <v type="int" >        2       26       58       65       66 </v>
   <v type="int" >        2       26       58       59       65 </v>
   <v type="int" >        2       21       27       32       66 </v>
   <v type="int" >        2       21       26       32       66 </v>
   <v type="int" >        2       21       26       58       66 </v>
   <v type="int" >        2       21       27       61       66 </v>
   <v type="int" >        2       21       57       61       66 </v>
   <v type="int" >        2       21       57       58       66 </v>
   <v type="int" >        2       28       33       34       67 </v>
   <v type="int" >        2       27       28       33       67 </v>
   <v type="int" >        2       27       28       61       67 </v>
   <v type="int" >        2       28       34       67       68 </v>
   <v type="int" >        2       28       62       67       68 </v>
   <v type="int" >        2       28       61       62       67 </v>
   <v type="int" >        2       29       34       35       68 </v>
   <v type="int" >        2       28       29       34       68 </v>
   <v type="int" >        2       28       29       62       68 </v>
   <v type="int" >        2       29       35       68       69 </v>
   <v type="int" >        2       29       63       68       69 </v>
   <v type="int" >        2       29       62       63       68 </v>
   <v type="int" >        2       30       35       36       69 </v>
   <v type="int" >        2       29       30       35       69 </v>
   <v type="int" >        2       29       30       63       69 </v>
   <v type="int" >        2       30       36       69       70 </v>
   <v type="int" >        2       30       64       69       70 </v>
   <v type="int" >        2       30       63       64       69 </v>
   <v type="int" >        2       31       36       37       70 </v>
   <v type="int" >        2       30       31       36       70 </v>
   <v type="int" >        2       30       31       64       70 </v>
   <v type="int" >        2       31       37       70       71 </v>
   <v type="int" >        2       31       65       70       71 </v>
   <v type="int" >        2       31       64       65       70 </v>
   <v type="int" >        2       32       37       38       71 </v>
   <v type="int" >        2       31       32       37       71 </v>
   <v type="int" >        2       31       32       65       71 </v>
   <v type="int" >        2       32       38       71       72 </v>
   <v type="int" >        2       32       66       71       72 </v>
   <v type="int" >        2       32       65       66       71 </v>
   <v type="int" >        2       27       33       38       72 </v>
   <v type="int" >        2       27       32       38       72 </v>
   <v type="int" >        2       27       32       66       72 </v>
   <v type="int" >        2       27       33       67       72 </v>
   <v type="int" >        2       27       61       67       72 </v>
   <v type="int" >        2       27       61       66       72 </v>
   <v type="int" >        2       34       39       40       73 </v>
   <v type="int" >        2       33       34       39       73 </v>
   <v type="int" >        2       33       34       67       73 </v>
   <v type="int" >        2       34       40       73       74 </v>
   <v type="int" >        2       34       68       73       74 </v>
   <v type="int" >        2       34       67       68       73 </v>
   <v type="int" >        2       35       40       41       74 </v>
   <v type="int" >        2       34       35       40       74 </v>
   <v type="int" >        2       34       35       68       74 </v>
   <v type="int" >        2       35       41       74       75 </v>
   <v type="int" >        2       35       69       74       75 </v>
   <v type="int" >        2       35       68       69       74 </v>
   <v type="int" >        2       36       41       42       75 </v>
   <v type="int" >        2       35       36       41       75 </v>
   <v type="int" >        2       35       36       69       75 </v>
   <v type="int" >        2       36       42       75       76 </v>
   <v type="int" >        2       36       70       75       76 </v>
   <v type="int" >        2       36       69       70       75 </v>
   <v type="int" >        2       37       42       43       76 </v>
   <v type="int" >        2       36       37       42       76 </v>
   <v type="int" >        2       36       37       70       76 </v>
   <v type="int" >        2       37       43       75       76 </v>
   <v type="int" >        2       37       71       75       76 </v>
   <v type="int" >        2       37       70       71       76 </v>
   <v type="int" >        2       38       43       44       75 </v>
   <v type="int" >        2       37       38       43       75 </v>
   <v type="int" >        2       37       38       71       75 </v>
   <v type="int" >        2       38       44       74       75 </v>
   <v type="int" >        2       38       72       74       75 </v>
   <v type="int" >        2       38       71       72       75 </v>
   <v type="int" >        2       33       39       44       74 </v>
   <v type="int" >        2       33       38       44       74 </v>
   <v type="int" >        2       33       38       72       74 </v>
   <v type="int" >        2       33       39       73       74 </v>
   <v type="int" >        2       33       67       73       74 </v>
   <v type="int" >        2       33       67       72       74 </v>
   <v type="int" >        2       40       45       46       67 </v>
   <v type="int" >        2       39       40       45       67 </v>
   <v type="int" >        2       39       40       67       73 </v>
   <v type="int" >        2       40       46       67       72 </v>
   <v type="int" >        2       40       67       72       74 </v>
   <v type="int" >        2       40       67       73       74 </v>
   <v type="int" >        2       41       46       47       72 </v>
   <v type="int" >        2       40       41       46       72 </v>
   <v type="int" >        2       40       41       72       74 </v>
   <v type="int" >        2       41       47       71       72 </v>
   <v type="int" >        2       41       71       72       75 </v>
   <v type="int" >        2       41       72       74       75 </v>
   <v type="int" >        2       42       47       48       71 </v>
   <v type="int" >        2       41       42       47       71 </v>
   <v type="int" >        2       41       42       71       75 </v>
   <v type="int" >        2       42       48       70       71 </v>
   <v type="int" >        2       42       70       71       76 </v>
   <v type="int" >        2       42       71       75       76 </v>
   <v type="int" >        2       43       48       49       70 </v>
   <v type="int" >        2       42       43       48       70 </v>
   <v type="int" >        2       42       43       70       76 </v>
   <v type="int" >        2       43       49       69       70 </v>
   <v type="int" >        2       43       69       70       75 </v>
   <v type="int" >        2       43       70       75       76 </v>
   <v type="int" >        2       44       49       50       69 </v>
   <v type="int" >        2       43       44       49       69 </v>
   <v type="int" >        2       43       44       69       75 </v>
   <v type="int" >        2       44       50       68       69 </v>
   <v type="int" >        2       44       68       69       74 </v>
   <v type="int" >        2       44       69       74       75 </v>
   <v type="int" >        2       39       45       50       68 </v>
   <v type="int" >        2       39       44       50       68 </v>
   <v type="int" >        2       39       44       68       74 </v>
   <v type="int" >        2       39       45       67       68 </v>
   <v type="int" >        2       39       67       68       73 </v>
   <v type="int" >        2       39       68       73       74 </v>
   <v type="int" >        2       46       51       52       61 </v>
   <v type="int" >        2       45       46       51       61 </v>
   <v type="int" >        2       45       46       61       67 </v>
   <v type="int" >        2       46       52       61       66 </v>
   <v type="int" >        2       46       61       66       72 </v>
   <v type="int" >        2       46       61       67       72 </v>
   <v type="int" >        2       47       52       53       66 </v>
   <v type="int" >        2       46       47       52       66 </v>
   <v type="int" >        2       46       47       66       72 </v>
   <v type="int" >        2       47       53       65       66 </v>
   <v type="int" >        2       47       65       66       71 </v>
   <v type="int" >        2       47       66       71       72 </v>
   <v type="int" >        2       48       53       54       65 </v>
   <v type="int" >        2       47       48       53       65 </v>
   <v type="int" >        2       47       48       65       71 </v>
   <v type="int" >        2       48       54       64       65 </v>
   <v type="int" >        2       48       64       65       70 </v>
   <v type="int" >        2       48       65       70       71 </v>
   <v type="int" >        2       49       54       55       64 </v>
   <v type="int" >        2       48       49       54       64 </v>
   <v type="int" >        2       48       49       64       70 </v>
   <v type="int" >        2       49       55       63       64 </v>
   <v type="int" >        2       49       63       64       69 </v>
   <v type="int" >        2       49       64       69       70 </v>
   <v type="int" >        2       50       55       56       63 </v>
   <v type="int" >        2       49       50       55       63 </v>
   <v type="int" >        2       49       50       63       69 </v>
   <v type="int" >        2       50       56       62       63 </v>
   <v type="int" >        2       50       62       63       68 </v>
   <v type="int" >        2       50       63       68       69 </v>
   <v type="int" >        2       45       51       56       62 </v>
   <v type="int" >        2       45       50       56       62 </v>
   <v type="int" >        2       45       50       62       68 </v>
   <v type="int" >        2       45       51       61       62 </v>
   <v type="int" >        2       45       61       62       67 </v>
   <v type="int" >        2       45       62       67       68 </v>
   <v type="int" >        2       21       22       52       57 </v>
   <v type="int" >        2       21       51       52       57 </v>
   <v type="int" >        2       51       52       57       61 </v>
   <v type="int" >        2       22       52       57       58 </v>
   <v type="int" >        2       52       57       58       66 </v>
   <v type="int" >        2       52       57       61       66 </v>
   <v type="int" >        2       22       23       53       58 </v>
   <v type="int" >        2       22       52       53       58 </v>
   <v type="int" >        2       52       53       58       66 </v>
   <v type="int" >        2       23       53       58       59 </v>
   <v type="int" >        2       53       58       59       65 </v>
   <v type="int" >        2       53       58       65       66 </v>
   <v type="int" >        2       23       24       54       59 </v>
   <v type="int" >        2       23       53       54       59 </v>
   <v type="int" >        2       53       54       59       65 </v>
   <v type="int" >        2       24       54       59       60 </v>
   <v type="int" >        2       54       59       60       64 </v>
   <v type="int" >        2       54       59       64       65 </v>
   <v type="int" >        2       24       25       55       60 </v>
   <v type="int" >        2       24       54       55       60 </v>
   <v type="int" >        2       54       55       60       64 </v>
   <v type="int" >        2       25       55       59       60 </v>
   <v type="int" >        2       55       59       60       63 </v>
   <v type="int" >        2       55       60       63       64 </v>
   <v type="int" >        2       25       26       56       59 </v>
   <v type="int" >        2       25       55       56       59 </v>
   <v type="int" >        2       55       56       59       63 </v>
   <v type="int" >        2       26       56       58       59 </v>
   <v type="int" >        2       56       58       59       62 </v>
   <v type="int" >        2       56       59       62       63 </v>
   <v type="int" >        2       21       26       51       58 </v>
   <v type="int" >        2       26       51       56       58 </v>
   <v type="int" >        2       51       56       58       62 </v>
   <v type="int" >        2       21       51       57       58 </v>
   <v type="int" >        2       51       57       58       61 </v>
   <v type="int" >        2       51       58       61       62 </v>
  </varray>
  <i name="volumeweight">      0.00115741 </i>
 </kpoints>
 <parameters>
  <separator name="general" >
   <i type="string" name="SYSTEM">graphite</i>
   <i type="logical" name="LCOMPAT"> F  </i>
  </separator>
  <separator name="electronic" >
   <i type="string" name="PREC">accura</i>
   <i name="ENMAX">    800.00000000</i>
   <i name="ENAUG">    644.87300000</i>
   <i name="EDIFF">      0.00000001</i>
   <i type="int" name="IALGO">    38</i>
   <i type="int" name="IWAVPR">    10</i>
   <i type="int" name="NBANDS">    84</i>
   <i name="NELECT">    128.00000000</i>
   <i type="int" name="TURBO">     0</i>
   <i type="int" name="IRESTART">     0</i>
   <i type="int" name="NREBOOT">     0</i>
   <i type="int" name="NMIN">     0</i>
   <i name="EREF">      0.00000000</i>
   <separator name="electronic smearing" >
    <i type="int" name="ISMEAR">    -5</i>
    <i name="SIGMA">      0.20000000</i>
    <i name="KSPACING">      0.50000000</i>
    <i type="logical" name="KGAMMA"> T  </i>
   </separator>
   <separator name="electronic projectors" >
    <i type="logical" name="LREAL"> F  </i>
    <v name="ROPT">      0.00000000</v>
    <i type="int" name="LMAXPAW">  -100</i>
    <i type="int" name="LMAXMIX">     2</i>
    <i type="logical" name="NLSPLINE"> F  </i>
   </separator>
   <separator name="electronic startup" >
    <i type="int" name="ISTART">     0</i>
    <i type="int" name="ICHARG">     2</i>
    <i type="int" name="INIWAV">     1</i>
   </separator>
   <separator name="electronic spin" >
    <i type="int" name="ISPIN">     1</i>
    <i type="logical" name="LNONCOLLINEAR"> F  </i>
    <v name="MAGMOM">      1.00000000      1.00000000      1.00000000      1.00000000      1.00000000      1.00000000      1.00000000      1.00000000      1.00000000      1.00000000      1.00000000      1.00000000      1.00000000      1.00000000      1.00000000      1.00000000      1.00000000      1.00000000      1.00000000      1.00000000
      1.00000000      1.00000000      1.00000000      1.00000000      1.00000000      1.00000000      1.00000000      1.00000000      1.00000000      1.00000000      1.00000000      1.00000000</v>
    <i name="NUPDOWN">     -1.00000000</i>
    <i type="logical" name="LSORBIT"> F  </i>
    <v name="SAXIS">      0.00000000      0.00000000      1.00000000</v>
    <i type="logical" name="LSPIRAL"> F  </i>
    <v name="QSPIRAL">      0.00000000      0.00000000      0.00000000</v>
    <i type="logical" name="LZEROZ"> F  </i>
   </separator>
   <separator name="electronic exchange-correlation" >
    <i type="logical" name="LASPH"> F  </i>
    <i type="logical" name="LMETAGGA"> F  </i>
   </separator>
   <separator name="electronic convergence" >
    <i type="int" name="NELM">   200</i>
    <i type="int" name="NELMDL">     0</i>
    <i type="int" name="NELMIN">     2</i>
    <i name="ENINI">    800.00000000</i>
    <separator name="electronic convergence detail" >
     <i type="logical" name="LDIAG"> T  </i>
     <i type="logical" name="LSUBROT"> F  </i>
     <i name="WEIMIN">      0.00000000</i>
     <i name="EBREAK">      0.00000000</i>
     <i name="DEPER">      0.30000000</i>
     <i type="int" name="NRMM">     4</i>
     <i name="TIME">      0.40000000</i>
    </separator>
   </separator>
   <separator name="electronic mixer" >
    <i name="AMIX">      0.40000000</i>
    <i name="BMIX">      1.00000000</i>
    <i name="AMIN">      0.10000000</i>
    <i name="AMIX_MAG">      1.60000000</i>
    <i name="BMIX_MAG">      1.00000000</i>
    <separator name="electronic mixer details" >
     <i type="int" name="IMIX">     4</i>
     <i type="int" name="MAXMIX">   -45</i>
     <i name="WC">    100.00000000</i>
     <i type="int" name="INIMIX">     1</i>
     <i type="int" name="MIXPRE">     1</i>
     <i type="int" name="MREMOVE">     5</i>
    </separator>
   </separator>
   <separator name="electronic dipolcorrection" >
    <i type="logical" name="LDIPOL"> F  </i>
    <i type="logical" name="LMONO"> F  </i>
    <i type="int" name="IDIPOL">     0</i>
    <i name="EPSILON">      1.00000000</i>
    <v name="DIPOL">   -100.00000000   -100.00000000   -100.00000000</v>
    <i name="EFIELD">      0.00000000</i>
   </separator>
  </separator>
  <separator name="grids" >
   <i type="int" name="NGX">    48</i>
   <i type="int" name="NGY">    48</i>
   <i type="int" name="NGZ">   126</i>
   <i type="int" name="NGXF">    96</i>
   <i type="int" name="NGYF">    96</i>
   <i type="int" name="NGZF">   252</i>
   <i type="logical" name="ADDGRID"> F  </i>
  </separator>
  <separator name="ionic" >
   <i type="int" name="NSW">     0</i>
   <i type="int" name="IBRION">    -1</i>
   <i type="int" name="ISIF">     2</i>
   <i name="PSTRESS">      0.00000000</i>
   <i name="EDIFFG">      0.00100000</i>
   <i type="int" name="NFREE">     0</i>
   <i name="POTIM">      0.50000000</i>
   <i name="SMASS">     -3.00000000</i>
   <i name="SCALEE">      1.00000000</i>
  </separator>
  <separator name="ionic md" >
   <i name="TEBEG">      0.00010000</i>
   <i name="TEEND">      0.00010000</i>
   <i type="int" name="NBLOCK">     1</i>
   <i type="int" name="KBLOCK">     1</i>
   <i type="int" name="NPACO">   256</i>
   <i name="APACO">     16.00000000</i>
  </separator>
  <separator name="symmetry" >
   <i type="int" name="ISYM">     2</i>
   <i name="SYMPREC">      0.00001000</i>
  </separator>
  <separator name="dos" >
   <i type="logical" name="LORBIT"> F  </i>
   <v name="RWIGS">     -1.00000000</v>
   <i type="int" name="NEDOS">   301</i>
   <i name="EMIN">     10.00000000</i>
   <i name="EMAX">    -10.00000000</i>
   <i name="EFERMI">      0.00000000</i>
  </separator>
  <separator name="writing" >
   <i type="int" name="NWRITE">     2</i>
   <i type="logical" name="LWAVE"> F  </i>
   <i type="logical" name="LCHARG"> F  </i>
   <i type="logical" name="LPARD"> F  </i>
   <i type="logical" name="LVTOT"> F  </i>
   <i type="logical" name="LVHAR"> F  </i>
   <i type="logical" name="LELF"> F  </i>
   <i type="logical" name="LOPTICS"> F  </i>
   <v name="STM">      0.00000000      0.00000000      0.00000000      0.00000000      0.00000000      0.00000000      0.00000000</v>
  </separator>
  <separator name="performance" >
   <i type="int" name="NPAR">     6</i>
   <i type="int" name="NSIM">     4</i>
   <i type="int" name="NBLK">    -1</i>
   <i type="logical" name="LPLANE"> T  </i>
   <i type="logical" name="LSCALAPACK"> T  </i>
   <i type="logical" name="LSCAAWARE"> F  </i>
   <i type="logical" name="LSCALU"> F  </i>
   <i type="logical" name="LASYNC"> F  </i>
   <i type="logical" name="LORBITALREAL"> F  </i>
  </separator>
  <separator name="miscellaneous" >
   <i type="int" name="IDIOT">     3</i>
   <i type="logical" name="LMUSIC"> F  </i>
   <v name="POMASS">     12.01100000</v>
   <v name="DARWINR">      0.00000000</v>
   <v name="DARWINV">      1.00000000</v>
   <i type="logical" name="LCORR"> T  </i>
  </separator>
  <i type="logical" name="GGA_COMPAT"> T  </i>
  <i type="logical" name="LBERRY"> F  </i>
  <i type="int" name="ICORELEVEL">     0</i>
  <i type="logical" name="LDAU"> F  </i>
  <i type="int" name="I_CONSTRAINED_M">     0</i>
  <separator name="electronic exchange-correlation" >
   <i type="string" name="GGA">PE</i>
   <i type="int" name="VOSKOWN">     0</i>
   <i type="logical" name="LHFCALC"> F  </i>
   <i type="string" name="PRECFOCK"></i>
   <i type="logical" name="LSYMGRAD"> F  </i>
   <i type="logical" name="LHFONE"> F  </i>
   <i type="logical" name="LRHFCALC"> F  </i>
   <i type="logical" name="LTHOMAS"> F  </i>
   <i type="logical" name="LMODELHF"> F  </i>
   <i name="ENCUT4O">     -1.00000000</i>
   <i type="int" name="EXXOEP">     0</i>
   <i type="int" name="FOURORBIT">     0</i>
   <i name="AEXX">      0.00000000</i>
   <i name="HFALPHA">      0.00000000</i>
   <i name="MCALPHA">      0.00000000</i>
   <i name="ALDAX">      1.00000000</i>
   <i name="AGGAX">      1.00000000</i>
   <i name="ALDAC">      1.00000000</i>
   <i name="AGGAC">      1.00000000</i>
   <i type="int" name="NKREDX">     1</i>
   <i type="int" name="NKREDY">     1</i>
   <i type="int" name="NKREDZ">     1</i>
   <i type="logical" name="SHIFTRED"> F  </i>
   <i type="logical" name="ODDONLY"> F  </i>
   <i type="logical" name="EVENONLY"> F  </i>
   <i type="int" name="LMAXFOCK">     0</i>
   <i type="int" name="NMAXFOCKAE">     0</i>
   <i type="logical" name="LFOCKAEDFT"> F  </i>
   <i name="HFSCREEN">      0.00000000</i>
   <i name="HFSCREENC">      0.00000000</i>
   <i type="int" name="NBANDSGWLOW">     0</i>
  </separator>
  <separator name="vdW DFT" >
   <i type="logical" name="LUSE_VDW"> F  </i>
   <i name="Zab_VDW">     -0.84910000</i>
   <i name="PARAM1">      0.12340000</i>
   <i name="PARAM2">      1.00000000</i>
   <i name="PARAM3">      0.00000000</i>
  </separator>
  <separator name="model GW" >
   <i type="int" name="MODEL_GW">     0</i>
   <i name="MODEL_EPS0">      5.39550656</i>
   <i name="MODEL_ALPHA">      1.00000000</i>
  </separator>
  <separator name="linear response parameters" >
   <i type="logical" name="LEPSILON"> F  </i>
   <i type="logical" name="LRPA"> F  </i>
   <i type="logical" name="LNABLA"> F  </i>
   <i type="logical" name="LVEL"> F  </i>
   <i type="int" name="KINTER">     0</i>
   <i name="CSHIFT">      0.10000000</i>
   <i name="OMEGAMAX">     -1.00000000</i>
   <i name="DEG_THRESHOLD">      0.00200000</i>
  </separator>
  <separator name="orbital magnetization" >
   <i type="logical" name="NUCIND"> F  </i>
   <v name="MAGPOS">      0.00000000      0.00000000      0.00000000</v>
   <i type="logical" name="LNICSALL"> T  </i>
   <i type="logical" name="ORBITALMAG"> F  </i>
   <i type="logical" name="LMAGBLOCH"> F  </i>
   <i type="logical" name="LCHIMAG"> F  </i>
   <i type="logical" name="LGAUGE"> T  </i>
   <i type="int" name="MAGATOM">     0</i>
   <v name="MAGDIPOL">      0.00000000      0.00000000      0.00000000</v>
   <v name="AVECCONST">      0.00000000      0.00000000      0.00000000</v>
  </separator>
  <separator name="response functions" >
   <i type="logical" name="LADDER"> F  </i>
   <i type="logical" name="LFXC"> F  </i>
   <i type="logical" name="LHARTREE"> T  </i>
   <i type="int" name="IBSE">     0</i>
   <i type="logical" name="LTCTE"> F  </i>
   <i type="logical" name="LTETE"> F  </i>
   <i type="logical" name="LTRIPLET"> F  </i>
   <i type="logical" name="LFXCEPS"> F  </i>
   <i type="logical" name="LFXHEG"> F  </i>
   <i type="logical" name="L2ORDER"> F  </i>
   <i type="logical" name="LUSEW"> F  </i>
   <i name="ENCUTGW">     -2.00000000</i>
   <i name="ENCUTGWSOFT">     -2.00000000</i>
   <i name="ENCUTLF">     -1.00000000</i>
   <i type="int" name="LMAXMP2">    -1</i>
   <i name="SCISSOR">      0.00000000</i>
   <i type="int" name="NOMEGA">     0</i>
   <i type="int" name="NOMEGAR">     0</i>
   <i type="int" name="NBANDSGW">    -1</i>
   <i type="int" name="NBANDSO">    -1</i>
   <i type="int" name="NBANDSV">    -1</i>
   <i type="int" name="NELM">   200</i>
   <i type="int" name="DIM">     3</i>
   <i type="int" name="ANTIRES">     0</i>
   <i name="OMEGAMAX">    -30.00000000</i>
   <i name="OMEGAMIN">    -30.00000000</i>
   <i name="OMEGATL">   -200.00000000</i>
   <i type="int" name="OMEGAGRID">     0</i>
   <i name="CSHIFT">     -0.10000000</i>
   <i type="logical" name="SELFENERGY"> F  </i>
   <i type="logical" name="LSPECTRAL"> F  </i>
   <i type="logical" name="ODDONLYGW"> F  </i>
   <i type="logical" name="EVENONLYGW"> F  </i>
   <i type="int" name="NKREDLFX">     1</i>
   <i type="int" name="NKREDLFY">     1</i>
   <i type="int" name="NKREDLFZ">     1</i>
   <i type="int" name="MAXMEM">  1800</i>
   <i type="int" name="TELESCOPE">     0</i>
   <i type="int" name="TAUPAR">     1</i>
  </separator>
  <separator name="External order field" >
   <i name="OFIELD_KAPPA">      0.00000000</i>
   <v name="OFIELD_K">      0.00000000      0.00000000      0.00000000</v>
   <i name="OFIELD_Q6_NEAR">      0.00000000</i>
   <i name="OFIELD_Q6_FAR">      0.00000000</i>
   <i name="OFIELD_A">      0.00000000</i>
  </separator>
 </parameters>
 <atominfo>
  <atoms>      32 </atoms>
  <types>       1 </types>
  <array name="atoms" >
   <dimension dim="1">ion</dimension>
   <field type="string">element</field>
   <field type="int">atomtype</field>
   <set>
    <rc><c>C </c><c>   1</c></rc>
    <rc><c>C </c><c>   1</c></rc>
    <rc><c>C </c><c>   1</c></rc>
    <rc><c>C </c><c>   1</c></rc>
    <rc><c>C </c><c>   1</c></rc>
    <rc><c>C </c><c>   1</c></rc>
    <rc><c>C </c><c>   1</c></rc>
    <rc><c>C </c><c>   1</c></rc>
    <rc><c>C </c><c>   1</c></rc>
    <rc><c>C </c><c>   1</c></rc>
    <rc><c>C </c><c>   1</c></rc>
    <rc><c>C </c><c>   1</c></rc>
    <rc><c>C </c><c>   1</c></rc>
    <rc><c>C </c><c>   1</c></rc>
    <rc><c>C </c><c>   1</c></rc>
    <rc><c>C </c><c>   1</c></rc>
    <rc><c>C </c><c>   1</c></rc>
    <rc><c>C </c><c>   1</c></rc>
    <rc><c>C </c><c>   1</c></rc>
    <rc><c>C </c><c>   1</c></rc>
    <rc><c>C </c><c>   1</c></rc>
    <rc><c>C </c><c>   1</c></rc>
    <rc><c>C </c><c>   1</c></rc>
    <rc><c>C </c><c>   1</c></rc>
    <rc><c>C </c><c>   1</c></rc>
    <rc><c>C </c><c>   1</c></rc>
    <rc><c>C </c><c>   1</c></rc>
    <rc><c>C </c><c>   1</c></rc>
    <rc><c>C </c><c>   1</c></rc>
    <rc><c>C </c><c>   1</c></rc>
    <rc><c>C </c><c>   1</c></rc>
    <rc><c>C </c><c>   1</c></rc>
   </set>
  </array>
  <array name="atomtypes" >
   <dimension dim="1">type</dimension>
   <field type="int">atomspertype</field>
   <field type="string">element</field>
   <field>mass</field>
   <field>valence</field>
   <field type="string">pseudopotential</field>
   <set>
    <rc><c>  32</c><c>C </c><c>     12.01100000</c><c>      4.00000000</c><c> PAW_PBE C 08Apr2002                    </c></rc>
   </set>
  </array>
 </atominfo>
 <structure name="initialpos" >
  <crystal>
   <varray name="basis" >
    <v>       4.93287450      -0.00191929       0.00000000 </v>
    <v>      -2.46809940       4.27103499       0.00000000 </v>
    <v>       0.00000000       0.00000000      13.66140650 </v>
   </varray>
   <i name="volume">    287.76034971 </i>
   <varray name="rec_basis" >
    <v>       0.20276715       0.11717288       0.00000000 </v>
    <v>       0.00009112       0.23418794       0.00000000 </v>
    <v>       0.00000000       0.00000000       0.07319891 </v>
   </varray>
  </crystal>
  <varray name="positions" >
   <v>       0.49967330       0.00032672       0.12500000 </v>
   <v>       0.99967330       0.00032672       0.12500000 </v>
   <v>       0.49967330       0.50032672       0.12500000 </v>
   <v>       0.99967330       0.50032672       0.12500000 </v>
   <v>       0.49967330       0.00032672       0.62500000 </v>
   <v>       0.99967330       0.00032672       0.62500000 </v>
   <v>       0.49967330       0.50032672       0.62500000 </v>
   <v>       0.99967330       0.50032672       0.62500000 </v>
   <v>       0.00032672       0.49967330       0.37500000 </v>
   <v>       0.50032672       0.49967330       0.37500000 </v>
   <v>       0.00032672       0.99967330       0.37500000 </v>
   <v>       0.50032672       0.99967330       0.37500000 </v>
   <v>       0.00032672       0.49967330       0.87500000 </v>
   <v>       0.50032672       0.49967330       0.87500000 </v>
   <v>       0.00032672       0.99967330       0.87500000 </v>
   <v>       0.50032672       0.99967330       0.87500000 </v>
   <v>       0.16698094       0.33370753       0.12568848 </v>
   <v>       0.66629246       0.33370753       0.12500000 </v>
   <v>       0.16629246       0.83370753       0.12500000 </v>
   <v>       0.66629246       0.83370753       0.12500000 </v>
   <v>       0.16629246       0.33370753       0.62500000 </v>
   <v>       0.66629246       0.33370753       0.62500000 </v>
   <v>       0.16629246       0.83370753       0.62500000 </v>
   <v>       0.66629246       0.83370753       0.62500000 </v>
   <v>       0.33370753       0.16629246       0.37500000 </v>
   <v>       0.83370753       0.16629246       0.37500000 </v>
   <v>       0.33370753       0.66629246       0.37500000 </v>
   <v>       0.83370753       0.66629246       0.37500000 </v>
   <v>       0.33370753       0.16629246       0.87500000 </v>
   <v>       0.83370753       0.16629246       0.87500000 </v>
   <v>       0.33370753       0.66629246       0.87500000 </v>
   <v>       0.83370753       0.66629246       0.87500000 </v>
  </varray>
 </structure>
 <calculation>
  <scstep>
   <time name="dav">  414.49  829.42</time>
   <time name="total">  415.95  832.35</time>
   <energy>
    <i name="alphaZ">    289.94852147 </i>
    <i name="ewald">  -3597.11167782 </i>
    <i name="hartreedc">  -1246.23154159 </i>
    <i name="XCdc">    442.86493459 </i>
    <i name="pawpsdc">   1210.60617908 </i>
    <i name="pawaedc">  -1247.42152856 </i>
    <i name="eentropy">      0.00000000 </i>
    <i name="bandstr">    153.82963910 </i>
    <i name="atom">   4708.94155045 </i>
    <i name="e_fr_energy">    715.42607672 </i>
    <i name="e_wo_entrp">    715.42607672 </i>
    <i name="e_0_energy">    715.42607672 </i>
   </energy>
  </scstep>
  <scstep>
   <time name="dav">  475.03  950.51</time>
   <time name="total">  475.11  950.68</time>
   <energy>
    <i name="e_fr_energy">   -253.36257920 </i>
    <i name="e_wo_entrp">   -253.36257920 </i>
    <i name="e_0_energy">   -253.36257920 </i>
   </energy>
  </scstep>
  <scstep>
   <time name="dav">  474.33  949.08</time>
   <time name="total">  474.38  949.20</time>
   <energy>
    <i name="e_fr_energy">   -312.77986309 </i>
    <i name="e_wo_entrp">   -312.77986309 </i>
    <i name="e_0_energy">   -312.77986309 </i>
   </energy>
  </scstep>
  <scstep>
   <time name="dav">  476.83  954.12</time>
   <time name="total">  476.89  954.25</time>
   <energy>
    <i name="e_fr_energy">   -313.95887785 </i>
    <i name="e_wo_entrp">   -313.95887785 </i>
    <i name="e_0_energy">   -313.95887785 </i>
   </energy>
  </scstep>
  <scstep>
   <time name="dav">  484.62  969.44</time>
   <time name="total">  490.82  981.85</time>
   <energy>
    <i name="e_fr_energy">   -313.99410232 </i>
    <i name="e_wo_entrp">   -313.99410232 </i>
    <i name="e_0_energy">   -313.99410232 </i>
   </energy>
  </scstep>
  <scstep>
   <time name="dav">  450.89  902.22</time>
   <time name="total">  458.48  917.42</time>
   <energy>
    <i name="e_fr_energy">   -299.49180305 </i>
    <i name="e_wo_entrp">   -299.49180305 </i>
    <i name="e_0_energy">   -299.49180305 </i>
   </energy>
  </scstep>
  <scstep>
   <time name="dav">  447.67  895.80</time>
   <time name="total">  455.26  910.95</time>
   <energy>
    <i name="e_fr_energy">   -294.87632730 </i>
    <i name="e_wo_entrp">   -294.87632730 </i>
    <i name="e_0_energy">   -294.87632730 </i>
   </energy>
  </scstep>
  <scstep>
   <time name="dav">  466.66  933.76</time>
   <time name="total">  474.33  949.11</time>
   <energy>
    <i name="e_fr_energy">   -294.94518383 </i>
    <i name="e_wo_entrp">   -294.94518383 </i>
    <i name="e_0_energy">   -294.94518383 </i>
   </energy>
  </scstep>
  <scstep>
   <time name="dav">  437.51  875.47</time>
   <time name="total">  445.09  890.64</time>
   <energy>
    <i name="e_fr_energy">   -294.94422967 </i>
    <i name="e_wo_entrp">   -294.94422967 </i>
    <i name="e_0_energy">   -294.94422967 </i>
   </energy>
  </scstep>
  <scstep>
   <time name="dav">  553.83 1108.10</time>
   <time name="total">  561.45 1123.33</time>
   <energy>
    <i name="e_fr_energy">   -294.93843075 </i>
    <i name="e_wo_entrp">   -294.93843075 </i>
    <i name="e_0_energy">   -294.93843075 </i>
   </energy>
  </scstep>
  <scstep>
   <time name="dav">  433.08  866.61</time>
   <time name="total">  440.63  881.76</time>
   <energy>
    <i name="e_fr_energy">   -294.93843047 </i>
    <i name="e_wo_entrp">   -294.93843047 </i>
    <i name="e_0_energy">   -294.93843047 </i>
   </energy>
  </scstep>
  <scstep>
   <time name="dav">  429.48  859.40</time>
   <time name="total">  437.05  874.52</time>
   <energy>
    <i name="e_fr_energy">   -294.93785283 </i>
    <i name="e_wo_entrp">   -294.93785283 </i>
    <i name="e_0_energy">   -294.93785283 </i>
   </energy>
  </scstep>
  <scstep>
   <time name="dav">  433.57  867.57</time>
   <time name="total">  441.29  883.02</time>
   <energy>
    <i name="e_fr_energy">   -294.93748086 </i>
    <i name="e_wo_entrp">   -294.93748086 </i>
    <i name="e_0_energy">   -294.93748086 </i>
   </energy>
  </scstep>
  <scstep>
   <time name="dav">  443.50  887.32</time>
   <time name="total">  451.07  902.47</time>
   <energy>
    <i name="e_fr_energy">   -294.93723607 </i>
    <i name="e_wo_entrp">   -294.93723607 </i>
    <i name="e_0_energy">   -294.93723607 </i>
   </energy>
  </scstep>
  <scstep>
   <time name="dav">  466.83  934.12</time>
   <time name="total">  474.27  948.98</time>
   <energy>
    <i name="e_fr_energy">   -294.93751532 </i>
    <i name="e_wo_entrp">   -294.93751532 </i>
    <i name="e_0_energy">   -294.93751532 </i>
   </energy>
  </scstep>
  <scstep>
   <time name="dav">  444.54  889.49</time>
   <time name="total">  452.23  904.92</time>
   <energy>
    <i name="e_fr_energy">   -294.93724214 </i>
    <i name="e_wo_entrp">   -294.93724214 </i>
    <i name="e_0_energy">   -294.93724214 </i>
   </energy>
  </scstep>
  <scstep>
   <time name="dav">  597.76 1196.10</time>
   <time name="total">  605.31 1211.20</time>
   <energy>
    <i name="e_fr_energy">   -294.93718763 </i>
    <i name="e_wo_entrp">   -294.93718763 </i>
    <i name="e_0_energy">   -294.93718763 </i>
   </energy>
  </scstep>
  <scstep>
   <time name="dav">  449.16  898.74</time>
   <time name="total">  456.55  913.54</time>
   <energy>
    <i name="e_fr_energy">   -294.93716469 </i>
    <i name="e_wo_entrp">   -294.93716469 </i>
    <i name="e_0_energy">   -294.93716469 </i>
   </energy>
  </scstep>
  <scstep>
   <time name="dav">  465.13  930.71</time>
   <time name="total">  472.74  945.96</time>
   <energy>
    <i name="e_fr_energy">   -294.93716812 </i>
    <i name="e_wo_entrp">   -294.93716812 </i>
    <i name="e_0_energy">   -294.93716812 </i>
   </energy>
  </scstep>
  <scstep>
   <time name="dav">  433.94  868.29</time>
   <time name="total">  441.52  883.50</time>
   <energy>
    <i name="e_fr_energy">   -294.93716304 </i>
    <i name="e_wo_entrp">   -294.93716304 </i>
    <i name="e_0_energy">   -294.93716304 </i>
   </energy>
  </scstep>
  <scstep>
   <time name="dav">  474.04  948.56</time>
   <time name="total">  481.62  963.70</time>
   <energy>
    <i name="e_fr_energy">   -294.93716143 </i>
    <i name="e_wo_entrp">   -294.93716143 </i>
    <i name="e_0_energy">   -294.93716143 </i>
   </energy>
  </scstep>
  <scstep>
   <time name="dav">  597.24 1195.06</time>
   <time name="total">  605.05 1210.69</time>
   <energy>
    <i name="e_fr_energy">   -294.93716125 </i>
    <i name="e_wo_entrp">   -294.93716125 </i>
    <i name="e_0_energy">   -294.93716125 </i>
   </energy>
  </scstep>
  <scstep>
   <time name="dav">  438.03  876.48</time>
   <time name="total">  445.56  891.57</time>
   <energy>
    <i name="e_fr_energy">   -294.93715705 </i>
    <i name="e_wo_entrp">   -294.93715705 </i>
    <i name="e_0_energy">   -294.93715705 </i>
   </energy>
  </scstep>
  <scstep>
   <time name="dav">  474.59  949.63</time>
   <time name="total">  481.95  964.39</time>
   <energy>
    <i name="e_fr_energy">   -294.93715162 </i>
    <i name="e_wo_entrp">   -294.93715162 </i>
    <i name="e_0_energy">   -294.93715162 </i>
   </energy>
  </scstep>
  <scstep>
   <time name="dav">  484.59  969.64</time>
   <time name="total">  492.13  984.74</time>
   <energy>
    <i name="e_fr_energy">   -294.93715224 </i>
    <i name="e_wo_entrp">   -294.93715224 </i>
    <i name="e_0_energy">   -294.93715224 </i>
   </energy>
  </scstep>
  <scstep>
   <time name="dav">  470.90  942.25</time>
   <time name="total">  478.91  958.29</time>
   <energy>
    <i name="e_fr_energy">   -294.93715282 </i>
    <i name="e_wo_entrp">   -294.93715282 </i>
    <i name="e_0_energy">   -294.93715282 </i>
   </energy>
  </scstep>
  <scstep>
   <time name="dav">  457.86  916.17</time>
   <time name="total">  466.32  933.08</time>
   <energy>
    <i name="e_fr_energy">   -294.93715171 </i>
    <i name="e_wo_entrp">   -294.93715171 </i>
    <i name="e_0_energy">   -294.93715171 </i>
   </energy>
  </scstep>
  <scstep>
   <time name="dav">  401.42  803.29</time>
   <time name="total">  409.26  818.96</time>
   <energy>
    <i name="e_fr_energy">   -294.93715154 </i>
    <i name="e_wo_entrp">   -294.93715154 </i>
    <i name="e_0_energy">   -294.93715154 </i>
   </energy>
  </scstep>
  <scstep>
   <time name="dav">  413.59  827.60</time>
   <time name="total">  421.32  843.08</time>
   <energy>
    <i name="e_fr_energy">   -294.93715157 </i>
    <i name="e_wo_entrp">   -294.93715157 </i>
    <i name="e_0_energy">   -294.93715157 </i>
   </energy>
  </scstep>
  <scstep>
   <time name="dav">  350.30  700.75</time>
   <time name="total">  358.32  716.77</time>
   <energy>
    <i name="e_fr_energy">   -294.93715151 </i>
    <i name="e_wo_entrp">   -294.93715151 </i>
    <i name="e_0_energy">   -294.93715151 </i>
   </energy>
  </scstep>
  <scstep>
   <time name="dav">  363.71  727.78</time>
   <time name="total">  371.83  744.03</time>
   <energy>
    <i name="e_fr_energy">   -294.93715140 </i>
    <i name="e_wo_entrp">   -294.93715140 </i>
    <i name="e_0_energy">   -294.93715140 </i>
   </energy>
  </scstep>
  <scstep>
   <time name="dav">  336.00  672.32</time>
   <time name="total">  343.92  688.19</time>
   <energy>
    <i name="e_fr_energy">   -294.93715142 </i>
    <i name="e_wo_entrp">   -294.93715142 </i>
    <i name="e_0_energy">   -294.93715142 </i>
   </energy>
  </scstep>
  <scstep>
   <time name="dav">  337.86  676.05</time>
   <time name="total">  339.24  678.81</time>
   <energy>
    <i name="alphaZ">    289.94852147 </i>
    <i name="ewald">  -3597.11167782 </i>
    <i name="hartreedc">  -1529.29828948 </i>
    <i name="XCdc">    461.01783409 </i>
    <i name="pawpsdc">   2222.52899163 </i>
    <i name="pawaedc">  -2263.74512256 </i>
    <i name="eentropy">      0.00000000 </i>
    <i name="bandstr">   -587.21895920 </i>
    <i name="atom">   4708.94155045 </i>
    <i name="e_fr_energy">   -294.93715142 </i>
    <i name="e_wo_entrp">   -294.93715142 </i>
    <i name="e_0_energy">   -294.93715142 </i>
   </energy>
  </scstep>
  <structure>
   <crystal>
    <varray name="basis" >
     <v>       4.93287450      -0.00191929       0.00000000 </v>
     <v>      -2.46809940       4.27103499       0.00000000 </v>
     <v>       0.00000000       0.00000000      13.66140650 </v>
    </varray>
    <i name="volume">    287.76034971 </i>
    <varray name="rec_basis" >
     <v>       0.20276715       0.11717288       0.00000000 </v>
     <v>       0.00009112       0.23418794       0.00000000 </v>
     <v>       0.00000000       0.00000000       0.07319891 </v>
    </varray>
   </crystal>
   <varray name="positions" >
    <v>       0.49967330       0.00032672       0.12500000 </v>
    <v>       0.99967330       0.00032672       0.12500000 </v>
    <v>       0.49967330       0.50032672       0.12500000 </v>
    <v>       0.99967330       0.50032672       0.12500000 </v>
    <v>       0.49967330       0.00032672       0.62500000 </v>
    <v>       0.99967330       0.00032672       0.62500000 </v>
    <v>       0.49967330       0.50032672       0.62500000 </v>
    <v>       0.99967330       0.50032672       0.62500000 </v>
    <v>       0.00032672       0.49967330       0.37500000 </v>
    <v>       0.50032672       0.49967330       0.37500000 </v>
    <v>       0.00032672       0.99967330       0.37500000 </v>
    <v>       0.50032672       0.99967330       0.37500000 </v>
    <v>       0.00032672       0.49967330       0.87500000 </v>
    <v>       0.50032672       0.49967330       0.87500000 </v>
    <v>       0.00032672       0.99967330       0.87500000 </v>
    <v>       0.50032672       0.99967330       0.87500000 </v>
    <v>       0.16698094       0.33370753       0.12568848 </v>
    <v>       0.66629246       0.33370753       0.12500000 </v>
    <v>       0.16629246       0.83370753       0.12500000 </v>
    <v>       0.66629246       0.83370753       0.12500000 </v>
    <v>       0.16629246       0.33370753       0.62500000 </v>
    <v>       0.66629246       0.33370753       0.62500000 </v>
    <v>       0.16629246       0.83370753       0.62500000 </v>
    <v>       0.66629246       0.83370753       0.62500000 </v>
    <v>       0.33370753       0.16629246       0.37500000 </v>
    <v>       0.83370753       0.16629246       0.37500000 </v>
    <v>       0.33370753       0.66629246       0.37500000 </v>
    <v>       0.83370753       0.66629246       0.37500000 </v>
    <v>       0.33370753       0.16629246       0.87500000 </v>
    <v>       0.83370753       0.16629246       0.87500000 </v>
    <v>       0.33370753       0.66629246       0.87500000 </v>
    <v>       0.83370753       0.66629246       0.87500000 </v>
   </varray>
  </structure>
  <varray name="forces" >
   <v>      -0.02159307       0.00787731       0.00859862 </v>
   <v>       0.00531547       0.00837226       0.04391658 </v>
   <v>       0.05046914       0.03389253       0.04351190 </v>
   <v>       0.05000681      -0.01788900       0.04423839 </v>
   <v>      -0.01143606       0.00830987      -0.00383349 </v>
   <v>      -0.01143593       0.00831072      -0.00382066 </v>
   <v>      -0.01143460       0.00831107      -0.00382503 </v>
   <v>      -0.01143386       0.00830859      -0.00381302 </v>
   <v>       0.01479782      -0.01054057       0.00416447 </v>
   <v>       0.01491417      -0.01048959       0.00429918 </v>
   <v>       0.01481672      -0.01055916       0.00423071 </v>
   <v>       0.01492589      -0.01052524       0.00361516 </v>
   <v>       0.01334210      -0.00602296       0.00428658 </v>
   <v>       0.01324128      -0.00588372       0.00410866 </v>
   <v>       0.01317586      -0.00592177       0.00418605 </v>
   <v>       0.01336508      -0.00595279       0.00358505 </v>
   <v>      -0.19052797      -0.00760834      -0.13540298 </v>
   <v>       0.05687364      -0.00671110      -0.00697406 </v>
   <v>       0.02128627      -0.02726432      -0.00704087 </v>
   <v>       0.02139467       0.01388467      -0.00700439 </v>
   <v>       0.00923175      -0.00702400       0.00065254 </v>
   <v>       0.00922921      -0.00702350       0.00049446 </v>
   <v>       0.00923125      -0.00702297       0.00049448 </v>
   <v>       0.00923117      -0.00702567       0.00049576 </v>
   <v>      -0.01362658       0.00947442      -0.00034545 </v>
   <v>      -0.01330605       0.00946734      -0.00029033 </v>
   <v>      -0.01345644       0.00920736      -0.00035094 </v>
   <v>      -0.01345251       0.00936848      -0.00057695 </v>
   <v>      -0.01061988       0.00457892      -0.00023676 </v>
   <v>      -0.01094124       0.00456933      -0.00040940 </v>
   <v>      -0.01076846       0.00484900      -0.00036062 </v>
   <v>      -0.01081564       0.00468282      -0.00059363 </v>
  </varray>
  <varray name="stress" >
   <v>      -2.60815663       2.67766642       0.11381104 </v>
   <v>       2.67766642       0.40538981      -0.05411714 </v>
   <v>       0.11381108      -0.05411717      -6.88747729 </v>
  </varray>
  <energy>
   <i name="e_fr_energy">   -299.83378695 </i>
   <i name="e_wo_entrp">   -299.83378695 </i>
   <i name="e_0_energy">      0.00000000 </i>
  </energy>
  <time name="totalsc">15200.5130415.39</time>
  <eigenvalues>
   <array>
    <dimension dim="1">band</dimension>
    <dimension dim="2">kpoint</dimension>
    <dimension dim="3">spin</dimension>
    <field>eigene</field>
    <field>occ</field>
    <set>
     <set comment="spin 1">
      <set comment="kpoint 1">
       <r>  -15.0936    1.0000 </r>
       <r>  -14.9672    1.0000 </r>
       <r>  -14.9667    1.0000 </r>
       <r>  -14.8326    1.0000 </r>
       <r>   -9.7827    1.0000 </r>
       <r>   -9.7723    1.0000 </r>
       <r>   -9.7695    1.0000 </r>
       <r>   -9.7319    1.0000 </r>
       <r>   -9.7303    1.0000 </r>
       <r>   -9.7202    1.0000 </r>
       <r>   -9.7187    1.0000 </r>
       <r>   -9.7187    1.0000 </r>
       <r>   -9.7149    1.0000 </r>
       <r>   -9.6871    1.0000 </r>
       <r>   -9.6745    1.0000 </r>
       <r>   -9.6719    1.0000 </r>
       <r>   -8.7103    1.0000 </r>
       <r>   -8.7092    1.0000 </r>
       <r>   -8.7079    1.0000 </r>
       <r>   -8.6821    1.0000 </r>
       <r>   -8.6815    1.0000 </r>
       <r>   -8.6793    1.0000 </r>
       <r>   -8.6787    1.0000 </r>
       <r>   -8.6787    1.0000 </r>
       <r>   -8.6764    1.0000 </r>
       <r>   -8.6369    1.0000 </r>
       <r>   -8.6360    1.0000 </r>
       <r>   -8.6336    1.0000 </r>
       <r>   -3.9076    1.0000 </r>
       <r>   -3.0960    1.0000 </r>
       <r>   -3.0943    1.0000 </r>
       <r>   -2.1146    1.0000 </r>
       <r>   -1.8844    1.0000 </r>
       <r>   -1.8822    1.0000 </r>
       <r>   -1.8667    1.0000 </r>
       <r>   -1.8614    1.0000 </r>
       <r>   -1.8607    1.0000 </r>
       <r>   -1.8607    1.0000 </r>
       <r>   -1.8568    1.0000 </r>
       <r>   -1.8441    1.0000 </r>
       <r>   -1.8419    1.0000 </r>
       <r>   -1.8376    1.0000 </r>
       <r>   -1.8349    1.0000 </r>
       <r>   -1.8196    1.0000 </r>
       <r>    1.5092    1.0000 </r>
       <r>    1.5158    1.0000 </r>
       <r>    1.5158    1.0000 </r>
       <r>    1.5207    1.0000 </r>
       <r>    1.5274    1.0000 </r>
       <r>    1.5320    1.0000 </r>
       <r>    1.5323    1.0000 </r>
       <r>    1.5385    1.0000 </r>
       <r>    1.8012    1.0000 </r>
       <r>    1.8044    1.0000 </r>
       <r>    1.8065    1.0000 </r>
       <r>    2.1590    1.0000 </r>
       <r>    2.1616    1.0000 </r>
       <r>    2.1688    1.0000 </r>
       <r>    2.1692    1.0000 </r>
       <r>    2.1692    1.0000 </r>
       <r>    2.1731    1.0000 </r>
       <r>    2.4151    1.0000 </r>
       <r>    2.4320    1.0000 </r>
       <r>    2.4338    1.0000 </r>
       <r>    6.0274    0.0000 </r>
       <r>    6.0296    0.0000 </r>
       <r>    6.0347    0.0000 </r>
       <r>    6.1748    0.0000 </r>
       <r>    6.1776    0.0000 </r>
       <r>    6.1797    0.0000 </r>
       <r>    6.1820    0.0000 </r>
       <r>    6.1823    0.0000 </r>
       <r>    6.1856    0.0000 </r>
       <r>    6.6541    0.0000 </r>
       <r>    6.6605    0.0000 </r>
       <r>    6.6637    0.0000 </r>
       <r>    8.6815    0.0000 </r>
       <r>   11.1793    0.0000 </r>
       <r>   11.1821    0.0000 </r>
       <r>   11.7395    0.0000 </r>
       <r>   11.7434    0.0000 </r>
       <r>   11.7752    0.0000 </r>
       <r>   11.9099    0.0000 </r>
       <r>   11.9138    0.0000 </r>
      </set>
      <set comment="kpoint 2">
       <r>  -14.9281    1.0000 </r>
       <r>  -14.8029    1.0000 </r>
       <r>  -14.8024    1.0000 </r>
       <r>  -14.6697    1.0000 </r>
       <r>  -11.0776    1.0000 </r>
       <r>  -10.9823    1.0000 </r>
       <r>  -10.9819    1.0000 </r>
       <r>  -10.8825    1.0000 </r>
       <r>  -10.2072    1.0000 </r>
       <r>  -10.1999    1.0000 </r>
       <r>  -10.1237    1.0000 </r>
       <r>  -10.1230    1.0000 </r>
       <r>  -10.1160    1.0000 </r>
       <r>  -10.1151    1.0000 </r>
       <r>  -10.0370    1.0000 </r>
       <r>  -10.0291    1.0000 </r>
       <r>   -8.0860    1.0000 </r>
       <r>   -8.0800    1.0000 </r>
       <r>   -8.0201    1.0000 </r>
       <r>   -8.0181    1.0000 </r>
       <r>   -8.0130    1.0000 </r>
       <r>   -8.0123    1.0000 </r>
       <r>   -7.9478    1.0000 </r>
       <r>   -7.9414    1.0000 </r>
       <r>   -7.2419    1.0000 </r>
       <r>   -7.1739    1.0000 </r>
       <r>   -7.1724    1.0000 </r>
       <r>   -7.1019    1.0000 </r>
       <r>   -3.7067    1.0000 </r>
       <r>   -2.9003    1.0000 </r>
       <r>   -2.8987    1.0000 </r>
       <r>   -2.3750    1.0000 </r>
       <r>   -2.3583    1.0000 </r>
       <r>   -2.3462    1.0000 </r>
       <r>   -2.3460    1.0000 </r>
       <r>   -2.3302    1.0000 </r>
       <r>   -2.3283    1.0000 </r>
       <r>   -2.3167    1.0000 </r>
       <r>   -2.3000    1.0000 </r>
       <r>   -1.9260    1.0000 </r>
       <r>   -1.7199    1.0000 </r>
       <r>   -1.6984    1.0000 </r>
       <r>   -1.6956    1.0000 </r>
       <r>   -1.6738    1.0000 </r>
       <r>    0.7291    1.0000 </r>
       <r>    0.8589    1.0000 </r>
       <r>    0.8722    1.0000 </r>
       <r>    0.8762    1.0000 </r>
       <r>    0.8888    1.0000 </r>
       <r>    1.1710    1.0000 </r>
       <r>    1.1812    1.0000 </r>
       <r>    1.1855    1.0000 </r>
       <r>    1.1971    1.0000 </r>
       <r>    1.3217    1.0000 </r>
       <r>    1.3239    1.0000 </r>
       <r>    1.5818    1.0000 </r>
       <r>    1.5865    1.0000 </r>
       <r>    1.9647    1.0000 </r>
       <r>    2.0516    1.0000 </r>
       <r>    2.0541    1.0000 </r>
       <r>    2.0603    1.0000 </r>
       <r>    2.0611    1.0000 </r>
       <r>    2.4871    1.0000 </r>
       <r>    2.4997    1.0000 </r>
       <r>    6.2216    0.0000 </r>
       <r>    6.2238    0.0000 </r>
       <r>    6.4564    0.0000 </r>
       <r>    6.4598    0.0000 </r>
       <r>    6.4620    0.0000 </r>
       <r>    6.4656    0.0000 </r>
       <r>    6.9186    0.0000 </r>
       <r>    6.9329    0.0000 </r>
       <r>    6.9397    0.0000 </r>
       <r>    7.2802    0.0000 </r>
       <r>    7.2841    0.0000 </r>
       <r>    7.8208    0.0000 </r>
       <r>    8.8830    0.0000 </r>
       <r>   11.3575    0.0000 </r>
       <r>   11.3603    0.0000 </r>
       <r>   11.8316    0.0000 </r>
       <r>   11.9945    0.0000 </r>
       <r>   11.9959    0.0000 </r>
       <r>   12.1577    0.0000 </r>
       <r>   12.4938    0.0000 </r>
      </set>
      <set comment="kpoint 3">
       <r>  -14.4335    1.0000 </r>
       <r>  -14.3120    1.0000 </r>
       <r>  -14.3116    1.0000 </r>
       <r>  -14.1830    1.0000 </r>
       <r>  -12.4867    1.0000 </r>
       <r>  -12.3799    1.0000 </r>
       <r>  -12.3795    1.0000 </r>
       <r>  -12.2673    1.0000 </r>
       <r>  -10.6290    1.0000 </r>
       <r>  -10.6253    1.0000 </r>
       <r>  -10.5376    1.0000 </r>
       <r>  -10.5371    1.0000 </r>
       <r>  -10.5339    1.0000 </r>
       <r>  -10.5327    1.0000 </r>
       <r>  -10.4417    1.0000 </r>
       <r>  -10.4379    1.0000 </r>
       <r>   -6.9129    1.0000 </r>
       <r>   -6.9039    1.0000 </r>
       <r>   -6.8517    1.0000 </r>
       <r>   -6.8497    1.0000 </r>
       <r>   -6.8420    1.0000 </r>
       <r>   -6.8410    1.0000 </r>
       <r>   -6.7862    1.0000 </r>
       <r>   -6.7773    1.0000 </r>
       <r>   -5.1275    1.0000 </r>
       <r>   -5.0718    1.0000 </r>
       <r>   -5.0701    1.0000 </r>
       <r>   -5.0129    1.0000 </r>
       <r>   -3.5310    1.0000 </r>
       <r>   -3.5169    1.0000 </r>
       <r>   -3.4931    1.0000 </r>
       <r>   -3.4927    1.0000 </r>
       <r>   -3.4796    1.0000 </r>
       <r>   -3.4777    1.0000 </r>
       <r>   -3.4535    1.0000 </r>
       <r>   -3.4393    1.0000 </r>
       <r>   -3.1087    1.0000 </r>
       <r>   -2.3184    1.0000 </r>
       <r>   -2.3168    1.0000 </r>
       <r>   -1.3667    1.0000 </r>
       <r>   -1.2461    1.0000 </r>
       <r>   -1.2255    1.0000 </r>
       <r>   -1.2225    1.0000 </r>
       <r>   -1.2017    1.0000 </r>
       <r>   -0.8100    1.0000 </r>
       <r>   -0.7919    1.0000 </r>
       <r>   -0.7663    1.0000 </r>
       <r>   -0.7634    1.0000 </r>
       <r>   -0.7375    1.0000 </r>
       <r>   -0.1017    1.0000 </r>
       <r>   -0.1000    1.0000 </r>
       <r>    0.3727    1.0000 </r>
       <r>    0.3880    1.0000 </r>
       <r>    0.3921    1.0000 </r>
       <r>    0.4079    1.0000 </r>
       <r>    0.7272    1.0000 </r>
       <r>    1.2839    1.0000 </r>
       <r>    1.2873    1.0000 </r>
       <r>    1.8632    1.0000 </r>
       <r>    1.8657    1.0000 </r>
       <r>    1.8689    1.0000 </r>
       <r>    1.8698    1.0000 </r>
       <r>    2.4956    1.0000 </r>
       <r>    2.5020    1.0000 </r>
       <r>    6.7363    0.0000 </r>
       <r>    6.7395    0.0000 </r>
       <r>    7.0326    0.0000 </r>
       <r>    7.0348    0.0000 </r>
       <r>    7.0372    0.0000 </r>
       <r>    7.0406    0.0000 </r>
       <r>    7.4131    0.0000 </r>
       <r>    7.4167    0.0000 </r>
       <r>    9.0691    0.0000 </r>
       <r>    9.4198    0.0000 </r>
       <r>    9.4236    0.0000 </r>
       <r>    9.4896    0.0000 </r>
       <r>    9.8803    0.0000 </r>
       <r>   11.8105    0.0000 </r>
       <r>   11.8745    0.0000 </r>
       <r>   11.8775    0.0000 </r>
       <r>   12.1377    0.0000 </r>
       <r>   12.2226    0.0000 </r>
       <r>   12.2243    0.0000 </r>
       <r>   12.4863    0.0000 </r>
      </set>
      <set comment="kpoint 4">
       <r>  -13.6170    1.0000 </r>
       <r>  -13.6143    1.0000 </r>
       <r>  -13.5027    1.0000 </r>
       <r>  -13.5002    1.0000 </r>
       <r>  -13.5001    1.0000 </r>
       <r>  -13.4971    1.0000 </r>
       <r>  -13.3796    1.0000 </r>
       <r>  -13.3768    1.0000 </r>
       <r>  -10.7774    1.0000 </r>
       <r>  -10.7757    1.0000 </r>
[...]
       <r>   -4.3776    1.0000 </r>
       <r>   -4.3776    1.0000 </r>
       <r>   -4.3761    1.0000 </r>
       <r>   -4.3729    1.0000 </r>
       <r>   -2.9071    1.0000 </r>
       <r>   -2.9068    1.0000 </r>
       <r>   -2.9068    1.0000 </r>
       <r>   -2.9016    1.0000 </r>
       <r>   -2.8471    1.0000 </r>
       <r>   -2.8468    1.0000 </r>
       <r>   -2.8468    1.0000 </r>
       <r>   -2.8404    1.0000 </r>
       <r>   -1.9223    1.0000 </r>
       <r>   -1.9198    1.0000 </r>
       <r>   -1.9197    1.0000 </r>
       <r>   -1.9174    1.0000 </r>
       <r>   -0.7524    1.0000 </r>
       <r>   -0.7495    1.0000 </r>
       <r>   -0.7494    1.0000 </r>
       <r>   -0.7470    1.0000 </r>
       <r>   -0.4997    1.0000 </r>
       <r>   -0.4899    1.0000 </r>
       <r>   -0.4899    1.0000 </r>
       <r>   -0.4883    1.0000 </r>
       <r>   -0.4674    1.0000 </r>
       <r>   -0.4615    1.0000 </r>
       <r>   -0.4615    1.0000 </r>
       <r>   -0.4598    1.0000 </r>
       <r>    1.3456    1.0000 </r>
       <r>    1.3465    1.0000 </r>
       <r>    1.3466    1.0000 </r>
       <r>    1.3498    1.0000 </r>
       <r>    2.2673    1.0000 </r>
       <r>    2.2682    1.0000 </r>
       <r>    2.2684    1.0000 </r>
       <r>    2.2721    1.0000 </r>
       <r>    7.1453    0.0000 </r>
       <r>    7.1503    0.0000 </r>
       <r>    7.1503    0.0000 </r>
       <r>    7.1507    0.0000 </r>
       <r>    7.5207    0.0000 </r>
       <r>    7.5252    0.0000 </r>
       <r>    7.5252    0.0000 </r>
       <r>    7.5258    0.0000 </r>
       <r>   11.0674    0.0000 </r>
       <r>   11.0749    0.0000 </r>
       <r>   11.0753    0.0000 </r>
       <r>   11.0820    0.0000 </r>
       <r>   11.6159    0.0000 </r>
       <r>   11.6211    0.0000 </r>
       <r>   11.6229    0.0000 </r>
       <r>   11.6296    0.0000 </r>
       <r>   11.9464    0.0000 </r>
       <r>   11.9480    0.0000 </r>
       <r>   11.9487    0.0000 </r>
       <r>   11.9545    0.0000 </r>
      </set>
     </set>
    </set>
   </array>
  </eigenvalues>
  <separator name="orbital magnetization" >
   <v name="MAGDIPOLOUT">      0.00000000      0.00000000      0.00000000</v>
  </separator>
  <dos>
   <i name="efermi">      4.51701123 </i>
   <total>
    <array>
     <dimension dim="1">gridpoints</dimension>
     <dimension dim="2">spin</dimension>
     <field>energy</field>
     <field>total</field>
     <field>integrated</field>
     <set>
      <set comment="spin 1">
       <r>   -17.0936     0.0000     0.0000 </r>
       <r>   -16.9857     0.0000     0.0000 </r>
       <r>   -16.8778     0.0000     0.0000 </r>
       <r>   -16.7699     0.0000     0.0000 </r>
       <r>   -16.6620     0.0000     0.0000 </r>
       <r>   -16.5541     0.0000     0.0000 </r>
       <r>   -16.4461     0.0000     0.0000 </r>
       <r>   -16.3382     0.0000     0.0000 </r>
       <r>   -16.2303     0.0000     0.0000 </r>
       <r>   -16.1224     0.0000     0.0000 </r>
       <r>   -16.0145     0.0000     0.0000 </r>
       <r>   -15.9066     0.0000     0.0000 </r>
       <r>   -15.7987     0.0000     0.0000 </r>
       <r>   -15.6908     0.0000     0.0000 </r>
       <r>   -15.5829     0.0000     0.0000 </r>
       <r>   -15.4750     0.0000     0.0000 </r>
       <r>   -15.3671     0.0000     0.0000 </r>
       <r>   -15.2592     0.0000     0.0000 </r>
       <r>   -15.1513     0.0000     0.0000 </r>
       <r>   -15.0434     0.4588     0.0089 </r>
       <r>   -14.9355     2.7887     0.1706 </r>
       <r>   -14.8276     3.7392     0.5042 </r>
       <r>   -14.7197     5.1383     0.9975 </r>
       <r>   -14.6118     4.8567     1.5256 </r>
       <r>   -14.5039     5.0726     2.0653 </r>
       <r>   -14.3959     5.0028     2.6099 </r>
       <r>   -14.2880     4.8429     3.1420 </r>
       <r>   -14.1801     4.8488     3.6618 </r>
       <r>   -14.0722     5.0897     4.1980 </r>
       <r>   -13.9643     5.3311     4.7602 </r>
       <r>   -13.8564     7.2610     5.4509 </r>
       <r>   -13.7485     7.6836     6.2613 </r>
       <r>   -13.6406     5.9974     7.0892 </r>
       <r>   -13.5327     2.4121     7.5048 </r>
       <r>   -13.4248     1.8633     7.7255 </r>
       <r>   -13.3169     2.1142     7.9354 </r>
       <r>   -13.2090     2.4952     8.1841 </r>
       <r>   -13.1011     2.9435     8.4746 </r>
       <r>   -12.9932    10.0812     9.0408 </r>
       <r>   -12.8853     8.7463    10.0863 </r>
       <r>   -12.7774     6.9226    10.9746 </r>
       <r>   -12.6695     4.0181    11.4676 </r>
       <r>   -12.5616     4.1228    11.9068 </r>
       <r>   -12.4537     4.2335    12.3574 </r>
       <r>   -12.3457     4.3760    12.8218 </r>
       <r>   -12.2378     4.5146    13.3017 </r>
       <r>   -12.1299     4.6418    13.7958 </r>
       <r>   -12.0220     4.7692    14.3035 </r>
       <r>   -11.9141     5.5114    14.8632 </r>
       <r>   -11.8062     6.3908    15.4897 </r>
       <r>   -11.6983     6.0557    16.1719 </r>
       <r>   -11.5904     5.6215    16.8006 </r>
       <r>   -11.4825     5.4568    17.3938 </r>
       <r>   -11.3746     5.6210    17.9915 </r>
       <r>   -11.2667     5.7853    18.6069 </r>
       <r>   -11.1588     5.9497    19.2400 </r>
       <r>   -11.0509     5.8250    19.8857 </r>
       <r>   -10.9430     5.5778    20.4999 </r>
       <r>   -10.8351     5.4037    21.0886 </r>
       <r>   -10.7272     5.1754    21.6694 </r>
       <r>   -10.6193     3.9785    22.1608 </r>
       <r>   -10.5114     4.5180    22.6054 </r>
       <r>   -10.4035     4.9958    23.1262 </r>
       <r>   -10.2955     5.1777    23.6751 </r>
       <r>   -10.1876     6.0749    24.2497 </r>
       <r>   -10.0797     8.7165    25.0253 </r>
       <r>    -9.9718    10.6622    26.1720 </r>
       <r>    -9.8639     8.3594    27.1983 </r>
       <r>    -9.7560     6.0642    27.9761 </r>
       <r>    -9.6481     4.7059    28.5378 </r>
       <r>    -9.5402     4.2394    29.0205 </r>
       <r>    -9.4323     3.7730    29.4528 </r>
       <r>    -9.3244     8.0354    29.9721 </r>
       <r>    -9.2165     6.0338    30.6481 </r>
       <r>    -9.1086     1.9653    30.9751 </r>
       <r>    -9.0007     1.7618    31.1762 </r>
       <r>    -8.8928     1.5583    31.3553 </r>
       <r>    -8.7849     1.3548    31.5125 </r>
       <r>    -8.6770     1.2558    31.6491 </r>
       <r>    -8.5691     1.7199    31.8082 </r>
       <r>    -8.4612     2.2184    32.0207 </r>
       <r>    -8.3533     2.7168    32.2869 </r>
       <r>    -8.2453     4.4956    32.6376 </r>
       <r>    -8.1374     9.3996    33.3869 </r>
       <r>    -8.0295     5.8571    34.3941 </r>
       <r>    -7.9216     4.9211    34.9357 </r>
       <r>    -7.8137     6.0738    35.5289 </r>
       <r>    -7.7058     7.2264    36.2465 </r>
       <r>    -7.5979     8.3791    37.0884 </r>
       <r>    -7.4900     9.5318    38.0548 </r>
       <r>    -7.3821     7.5775    39.0242 </r>
       <r>    -7.2742     5.5730    39.6816 </r>
       <r>    -7.1663     5.5803    40.2828 </r>
       <r>    -7.0584     5.5854    40.8874 </r>
       <r>    -6.9505     5.4335    41.4819 </r>
       <r>    -6.8426     5.2625    42.0595 </r>
       <r>    -6.7347     5.1157    42.6186 </r>
       <r>    -6.6268     4.9972    43.1642 </r>
       <r>    -6.5189     4.8786    43.6970 </r>
       <r>    -6.4110     4.7601    44.2170 </r>
       <r>    -6.3031     4.6416    44.7243 </r>
       <r>    -6.1951     4.5232    45.2188 </r>
       <r>    -6.0872     4.4033    45.7004 </r>
       <r>    -5.9793     4.4959    46.1736 </r>
       <r>    -5.8714     5.1306    46.6948 </r>
       <r>    -5.7635     5.7163    47.2800 </r>
       <r>    -5.6556     6.3021    47.9284 </r>
       <r>    -5.5477     6.8879    48.6401 </r>
       <r>    -5.4398     7.4737    49.4149 </r>
       <r>    -5.3319     8.0596    50.2530 </r>
       <r>    -5.2240     8.6454    51.1543 </r>
       <r>    -5.1161     6.8756    52.0798 </r>
       <r>    -5.0082     4.2221    52.6015 </r>
       <r>    -4.9003     6.9924    53.2070 </r>
       <r>    -4.7924     6.2428    53.9546 </r>
       <r>    -4.6845     4.7929    54.5500 </r>
       <r>    -4.5766     3.3429    54.9889 </r>
       <r>    -4.4687     1.8928    55.2714 </r>
       <r>    -4.3608     1.2926    55.4145 </r>
       <r>    -4.2529     2.7677    55.6335 </r>
       <r>    -4.1449     4.2426    56.0118 </r>
       <r>    -4.0370     5.7175    56.5491 </r>
       <r>    -3.9291     9.8246    57.3592 </r>
       <r>    -3.8212    11.3278    58.5726 </r>
       <r>    -3.7133    12.0841    59.7823 </r>
       <r>    -3.6054    11.1621    61.1928 </r>
       <r>    -3.4975     5.0309    62.0819 </r>
       <r>    -3.3896     5.1832    62.5948 </r>
       <r>    -3.2817     6.3579    63.2179 </r>
       <r>    -3.1738     7.8976    63.9572 </r>
       <r>    -3.0659    13.0685    65.0872 </r>
       <r>    -2.9580    19.0182    66.8098 </r>
       <r>    -2.8501     6.6948    68.8480 </r>
       <r>    -2.7422     6.8314    69.5739 </r>
       <r>    -2.6343     7.0754    70.3238 </r>
       <r>    -2.5264     7.4797    71.1072 </r>
       <r>    -2.4185     8.7781    71.9814 </r>
       <r>    -2.3106    16.8912    73.1788 </r>
       <r>    -2.2027    14.4103    74.9180 </r>
       <r>    -2.0947    11.0269    76.2852 </r>
       <r>    -1.9868    13.6646    77.4671 </r>
       <r>    -1.8789    44.2521    79.8478 </r>
       <r>    -1.7710    18.1083    82.3289 </r>
       <r>    -1.6631    15.5474    84.3558 </r>
       <r>    -1.5552    14.0181    85.8459 </r>
       <r>    -1.4473    16.4919    87.4829 </r>
       <r>    -1.3394    10.4857    89.0831 </r>
       <r>    -1.2315     6.9052    90.0130 </r>
       <r>    -1.1236     7.1444    90.7326 </r>
       <r>    -1.0157     7.9940    91.5510 </r>
       <r>    -0.9078     8.8314    92.4576 </r>
       <r>    -0.7999    10.4204    93.4900 </r>
       <r>    -0.6920    10.6815    94.6535 </r>
       <r>    -0.5841    10.7900    95.7975 </r>
       <r>    -0.4762    26.6086    97.4424 </r>
       <r>    -0.3683    11.6011    98.7767 </r>
       <r>    -0.2604    12.0556   100.0395 </r>
       <r>    -0.1525    11.1336   101.2901 </r>
       <r>    -0.0445    10.1635   102.4390 </r>
       <r>     0.0634    10.0412   103.5302 </r>
       <r>     0.1713     9.6650   104.6023 </r>
       <r>     0.2792     9.6421   105.6449 </r>
       <r>     0.3871     9.5530   106.6801 </r>
       <r>     0.4950     9.5908   107.7174 </r>
       <r>     0.6029     9.2472   108.7300 </r>
       <r>     0.7108     9.0735   109.7178 </r>
       <r>     0.8187     9.1130   110.6973 </r>
       <r>     0.9266     9.6581   111.7153 </r>
       <r>     1.0345     9.5584   112.7478 </r>
       <r>     1.1424     9.9086   113.7934 </r>
       <r>     1.2503    11.0460   114.9520 </r>
       <r>     1.3582     9.7707   116.0732 </r>
       <r>     1.4661     8.0217   117.0403 </r>
       <r>     1.5740     6.4789   117.8086 </r>
       <r>     1.6819     6.0900   118.4890 </r>
       <r>     1.7898     4.6484   119.0844 </r>
       <r>     1.8977     3.2503   119.4952 </r>
       <r>     2.0057     2.8170   119.8256 </r>
       <r>     2.1136     3.6224   120.1509 </r>
       <r>     2.2215     5.1534   120.6229 </r>
       <r>     2.3294     7.6845   121.3208 </r>
       <r>     2.4373     9.8048   122.2399 </r>
       <r>     2.5452     8.3168   123.2854 </r>
       <r>     2.6531     7.1343   124.1153 </r>
       <r>     2.7610     5.5567   124.8096 </r>
       <r>     2.8689     4.3531   125.3387 </r>
       <r>     2.9768     3.5848   125.7649 </r>
       <r>     3.0847     3.1848   126.1279 </r>
       <r>     3.1926     2.8291   126.4526 </r>
       <r>     3.3005     2.4685   126.7381 </r>
       <r>     3.4084     2.1493   126.9867 </r>
       <r>     3.5163     1.8556   127.2027 </r>
       <r>     3.6242     1.5286   127.3861 </r>
       <r>     3.7321     1.3076   127.5391 </r>
       <r>     3.8400     1.0865   127.6683 </r>
       <r>     3.9479     0.8653   127.7736 </r>
       <r>     4.0559     0.6657   127.8559 </r>
       <r>     4.1638     0.4886   127.9180 </r>
       <r>     4.2717     0.3251   127.9618 </r>
       <r>     4.3796     0.1735   127.9886 </r>
       <r>     4.4875     0.0324   127.9996 </r>
       <r>     4.5954     0.0707   128.0024 </r>
       <r>     4.7033     0.1909   128.0164 </r>
       <r>     4.8112     0.3233   128.0441 </r>
       <r>     4.9191     0.4702   128.0867 </r>
       <r>     5.0270     0.6339   128.1461 </r>
       <r>     5.1349     0.8240   128.2245 </r>
       <r>     5.2428     1.0565   128.3258 </r>
       <r>     5.3507     1.2920   128.4525 </r>
       <r>     5.4586     1.5279   128.6046 </r>
       <r>     5.5665     1.7641   128.7823 </r>
       <r>     5.6744     2.7653   129.0138 </r>
       <r>     5.7823     3.5187   129.3560 </r>
       <r>     5.8902     3.8744   129.7596 </r>
       <r>     5.9981     4.8531   130.2118 </r>
       <r>     6.1061     9.2260   130.9148 </r>
       <r>     6.2140    13.4468   132.1092 </r>
       <r>     6.3219     9.1518   133.2581 </r>
       <r>     6.4298     7.2627   134.1363 </r>
       <r>     6.5377     6.2260   134.8491 </r>
       <r>     6.6456     5.6861   135.4890 </r>
       <r>     6.7535     5.4017   136.0866 </r>
       <r>     6.8614     4.9147   136.6467 </r>
       <r>     6.9693     4.2099   137.1395 </r>
       <r>     7.0772     3.7816   137.5696 </r>
       <r>     7.1851     3.6971   137.9692 </r>
       <r>     7.2930     3.9371   138.3785 </r>
       <r>     7.4009     4.3828   138.8271 </r>
       <r>     7.5088     4.7604   139.3220 </r>
       <r>     7.6167     4.8595   139.8451 </r>
       <r>     7.7246     4.6969   140.3605 </r>
       <r>     7.8325     4.5536   140.8594 </r>
       <r>     7.9404     4.3613   141.3398 </r>
       <r>     8.0484     4.2264   141.8027 </r>
       <r>     8.1563     4.1331   142.2534 </r>
       <r>     8.2642     4.0673   142.6957 </r>
       <r>     8.3721     4.0144   143.1316 </r>
       <r>     8.4800     3.9711   143.5624 </r>
       <r>     8.5879     3.9399   143.9891 </r>
       <r>     8.6958     3.7612   144.4115 </r>
       <r>     8.8037     3.6605   144.8073 </r>
       <r>     8.9116     3.8755   145.2142 </r>
       <r>     9.0195     3.8357   145.6323 </r>
       <r>     9.1274     3.7669   146.0404 </r>
       <r>     9.2353     3.7298   146.4465 </r>
       <r>     9.3432     3.7699   146.8506 </r>
       <r>     9.4511     3.8132   147.2599 </r>
       <r>     9.5590     3.8196   147.6721 </r>
       <r>     9.6669     3.8266   148.0845 </r>
       <r>     9.7748     3.8353   148.4979 </r>
       <r>     9.8827     3.8443   148.9121 </r>
       <r>     9.9906     3.8607   149.3279 </r>
       <r>    10.0986     3.9052   149.7457 </r>
       <r>    10.2065     5.2989   150.2281 </r>
       <r>    10.3144     6.1725   150.8886 </r>
       <r>    10.4223     5.8508   151.5345 </r>
       <r>    10.5302     5.5562   152.1496 </r>
       <r>    10.6381     5.4325   152.7396 </r>
       <r>    10.7460     4.5723   153.2964 </r>
       <r>    10.8539     5.4244   153.9702 </r>
       <r>    10.9618     3.1052   154.4167 </r>
       <r>    11.0697     2.4553   154.7045 </r>
       <r>    11.1776     2.9218   154.9890 </r>
       <r>    11.2855     3.4537   155.3335 </r>
       <r>    11.3934     3.4979   155.7146 </r>
       <r>    11.5013     3.0550   156.0696 </r>
       <r>    11.6092     2.9672   156.3891 </r>
       <r>    11.7171     3.4562   156.7327 </r>
       <r>    11.8250     6.6302   157.2234 </r>
       <r>    11.9329     6.9157   158.0080 </r>
       <r>    12.0408     8.4745   158.8248 </r>
       <r>    12.1488    10.8678   159.8646 </r>
       <r>    12.2567    12.8938   161.1594 </r>
       <r>    12.3646    13.1875   162.5680 </r>
       <r>    12.4725    13.4197   164.0051 </r>
       <r>    12.5804    13.7935   165.5183 </r>
       <r>    12.6883    11.5624   166.9088 </r>
       <r>    12.7962     4.2363   167.8202 </r>
       <r>    12.9041     0.1709   167.9787 </r>
       <r>    13.0120     0.0865   167.9923 </r>
       <r>    13.1199     0.0306   167.9984 </r>
       <r>    13.2278     0.0031   167.9999 </r>
       <r>    13.3357     0.0000   168.0000 </r>
       <r>    13.4436     0.0000   168.0000 </r>
       <r>    13.5515     0.0000   168.0000 </r>
       <r>    13.6594     0.0000   168.0000 </r>
       <r>    13.7673     0.0000   168.0000 </r>
       <r>    13.8752     0.0000   168.0000 </r>
       <r>    13.9831     0.0000   168.0000 </r>
       <r>    14.0910     0.0000   168.0000 </r>
       <r>    14.1990     0.0000   168.0000 </r>
       <r>    14.3069     0.0000   168.0000 </r>
       <r>    14.4148     0.0000   168.0000 </r>
       <r>    14.5227     0.0000   168.0000 </r>
       <r>    14.6306     0.0000   168.0000 </r>
       <r>    14.7385     0.0000   168.0000 </r>
       <r>    14.8464     0.0000   168.0000 </r>
       <r>    14.9543     0.0000   168.0000 </r>
       <r>    15.0622     0.0000   168.0000 </r>
       <r>    15.1701     0.0000   168.0000 </r>
       <r>    15.2780     0.0000   168.0000 </r>
      </set>
     </set>
    </array>
   </total>
  </dos>
 </calculation>
 <structure name="finalpos" >
  <crystal>
   <varray name="basis" >
    <v>       4.93287450      -0.00191929       0.00000000 </v>
    <v>      -2.46809940       4.27103499       0.00000000 </v>
    <v>       0.00000000       0.00000000      13.66140650 </v>
   </varray>
   <i name="volume">    287.76034971 </i>
   <varray name="rec_basis" >
    <v>       0.20276715       0.11717288       0.00000000 </v>
    <v>       0.00009112       0.23418794       0.00000000 </v>
    <v>       0.00000000       0.00000000       0.07319891 </v>
   </varray>
  </crystal>
  <varray name="positions" >
   <v>       0.49967330       0.00032672       0.12500000 </v>
   <v>       0.99967330       0.00032672       0.12500000 </v>
   <v>       0.49967330       0.50032672       0.12500000 </v>
   <v>       0.99967330       0.50032672       0.12500000 </v>
   <v>       0.49967330       0.00032672       0.62500000 </v>
   <v>       0.99967330       0.00032672       0.62500000 </v>
   <v>       0.49967330       0.50032672       0.62500000 </v>
   <v>       0.99967330       0.50032672       0.62500000 </v>
   <v>       0.00032672       0.49967330       0.37500000 </v>
   <v>       0.50032672       0.49967330       0.37500000 </v>
   <v>       0.00032672       0.99967330       0.37500000 </v>
   <v>       0.50032672       0.99967330       0.37500000 </v>
   <v>       0.00032672       0.49967330       0.87500000 </v>
   <v>       0.50032672       0.49967330       0.87500000 </v>
   <v>       0.00032672       0.99967330       0.87500000 </v>
   <v>       0.50032672       0.99967330       0.87500000 </v>
   <v>       0.16698094       0.33370753       0.12568848 </v>
   <v>       0.66629246       0.33370753       0.12500000 </v>
   <v>       0.16629246       0.83370753       0.12500000 </v>
   <v>       0.66629246       0.83370753       0.12500000 </v>
   <v>       0.16629246       0.33370753       0.62500000 </v>
   <v>       0.66629246       0.33370753       0.62500000 </v>
   <v>       0.16629246       0.83370753       0.62500000 </v>
   <v>       0.66629246       0.83370753       0.62500000 </v>
   <v>       0.33370753       0.16629246       0.37500000 </v>
   <v>       0.83370753       0.16629246       0.37500000 </v>
   <v>       0.33370753       0.66629246       0.37500000 </v>
   <v>       0.83370753       0.66629246       0.37500000 </v>
   <v>       0.33370753       0.16629246       0.87500000 </v>
   <v>       0.83370753       0.16629246       0.87500000 </v>
   <v>       0.33370753       0.66629246       0.87500000 </v>
   <v>       0.83370753       0.66629246       0.87500000 </v>
  </varray>
 </structure>
</modeling>
