   4   4   0   0
  0.9603652E+01  0.2466437E-09  0.2466437E-09  0.7294926E-09  0.5000000E-15
  1.000000000000000E-004
  CAR 
 graphite                                
     17.65096612    -17.59685542  301      3.97710232      1.00000000
    -17.597  0.0000E+00  0.0000E+00
    -17.479  0.0000E+00  0.0000E+00
    -17.362  0.0000E+00  0.0000E+00
    -17.244  0.0000E+00  0.0000E+00
    -17.127  0.0000E+00  0.0000E+00
    -17.009  0.0000E+00  0.0000E+00
    -16.892  0.0000E+00  0.0000E+00
    -16.774  0.0000E+00  0.0000E+00
    -16.657  0.0000E+00  0.0000E+00
    -16.539  0.0000E+00  0.0000E+00
    -16.422  0.0000E+00  0.0000E+00
    -16.304  0.0000E+00  0.0000E+00
    -16.187  0.0000E+00  0.0000E+00
    -16.069  0.0000E+00  0.0000E+00
    -15.952  0.0000E+00  0.0000E+00
    -15.834  0.0000E+00  0.0000E+00
    -15.717  0.0000E+00  0.0000E+00
    -15.599  0.0000E+00  0.0000E+00
    -15.482  0.1767E-02  0.1102E-03
    -15.364  0.3008E-02  0.4261E-03
    -15.247  0.3095E-02  0.7876E-03
    -15.130  0.3070E-02  0.1145E-02
    -15.012  0.3130E-02  0.1512E-02
    -14.895  0.3028E-02  0.1874E-02
    -14.777  0.3095E-02  0.2232E-02
    -14.660  0.3154E-02  0.2602E-02
    -14.542  0.3069E-02  0.2968E-02
    -14.425  0.3072E-02  0.3327E-02
    -14.307  0.3121E-02  0.3691E-02
    -14.190  0.3168E-02  0.4062E-02
    -14.072  0.3106E-02  0.4431E-02
    -13.955  0.3090E-02  0.4795E-02
    -13.837  0.3120E-02  0.5160E-02
    -13.720  0.3156E-02  0.5528E-02
    -13.602  0.3191E-02  0.5901E-02
    -13.485  0.3149E-02  0.6274E-02
    -13.367  0.3133E-02  0.6643E-02
    -13.250  0.3143E-02  0.7011E-02
    -13.132  0.3172E-02  0.7382E-02
    -13.015  0.3203E-02  0.7757E-02
    -12.897  0.3220E-02  0.8135E-02
    -12.780  0.3190E-02  0.8511E-02
    -12.662  0.3186E-02  0.8886E-02
    -12.545  0.3200E-02  0.9261E-02
    -12.427  0.3217E-02  0.9638E-02
    -12.310  0.3245E-02  0.1002E-01
    -12.192  0.3274E-02  0.1040E-01
    -12.075  0.3278E-02  0.1079E-01
    -11.957  0.3267E-02  0.1117E-01
    -11.840  0.3278E-02  0.1155E-01
    -11.722  0.3300E-02  0.1194E-01
    -11.605  0.3326E-02  0.1233E-01
    -11.487  0.3354E-02  0.1272E-01
    -11.370  0.3396E-02  0.1312E-01
    -11.252  0.3436E-02  0.1352E-01
    -11.135  0.3458E-02  0.1393E-01
    -11.017  0.3512E-02  0.1433E-01
    -10.900  0.3613E-02  0.1475E-01
    -10.782  0.3769E-02  0.1519E-01
    -10.665  0.3991E-02  0.1564E-01
    -10.547  0.4291E-02  0.1612E-01
    -10.430  0.5809E-02  0.1676E-01
    -10.312  0.3926E-02  0.1733E-01
    -10.195  0.3184E-02  0.1773E-01
    -10.077  0.5047E-02  0.1824E-01
     -9.960  0.2229E-02  0.1855E-01
     -9.842  0.1980E-02  0.1880E-01
     -9.725  0.1730E-02  0.1901E-01
     -9.607  0.1481E-02  0.1920E-01
     -9.490  0.1726E-02  0.1937E-01
     -9.372  0.1674E-02  0.1961E-01
     -9.255  0.8201E-03  0.1974E-01
     -9.137  0.1226E-02  0.1985E-01
     -9.020  0.2534E-02  0.2004E-01
     -8.902  0.4102E-02  0.2051E-01
     -8.785  0.2728E-02  0.2087E-01
     -8.667  0.2859E-02  0.2119E-01
     -8.550  0.5982E-02  0.2166E-01
     -8.432  0.4087E-02  0.2218E-01
     -8.315  0.4747E-02  0.2270E-01
     -8.197  0.5444E-02  0.2330E-01
     -8.080  0.3966E-02  0.2390E-01
     -7.962  0.3813E-02  0.2436E-01
     -7.845  0.3660E-02  0.2480E-01
     -7.727  0.3512E-02  0.2522E-01
     -7.610  0.3370E-02  0.2562E-01
     -7.492  0.3231E-02  0.2601E-01
     -7.375  0.3091E-02  0.2638E-01
     -7.257  0.2988E-02  0.2674E-01
     -7.140  0.2952E-02  0.2709E-01
     -7.023  0.2917E-02  0.2743E-01
     -6.905  0.2881E-02  0.2777E-01
     -6.788  0.2844E-02  0.2811E-01
     -6.670  0.2684E-02  0.2844E-01
     -6.553  0.2570E-02  0.2874E-01
     -6.435  0.2993E-02  0.2907E-01
     -6.318  0.3418E-02  0.2945E-01
     -6.200  0.3842E-02  0.2987E-01
     -6.083  0.3765E-02  0.3034E-01
     -5.965  0.3708E-02  0.3077E-01
     -5.848  0.3652E-02  0.3121E-01
     -5.730  0.3595E-02  0.3163E-01
     -5.613  0.3627E-02  0.3205E-01
     -5.495  0.3727E-02  0.3249E-01
     -5.378  0.3820E-02  0.3293E-01
     -5.260  0.3911E-02  0.3338E-01
     -5.143  0.3947E-02  0.3385E-01
     -5.025  0.3956E-02  0.3431E-01
     -4.908  0.3963E-02  0.3478E-01
     -4.790  0.3945E-02  0.3523E-01
     -4.673  0.4030E-02  0.3570E-01
     -4.555  0.4070E-02  0.3618E-01
     -4.438  0.4109E-02  0.3666E-01
     -4.320  0.4149E-02  0.3715E-01
     -4.203  0.4254E-02  0.3764E-01
     -4.085  0.4841E-02  0.3818E-01
     -3.968  0.5202E-02  0.3877E-01
     -3.850  0.5460E-02  0.3940E-01
     -3.733  0.5700E-02  0.4005E-01
     -3.615  0.5962E-02  0.4074E-01
     -3.498  0.6157E-02  0.4145E-01
     -3.380  0.6454E-02  0.4219E-01
     -3.263  0.7086E-02  0.4298E-01
     -3.145  0.7905E-02  0.4386E-01
     -3.028  0.8789E-02  0.4484E-01
     -2.910  0.9330E-02  0.4591E-01
     -2.793  0.8226E-02  0.4696E-01
     -2.675  0.7645E-02  0.4789E-01
     -2.558  0.9708E-02  0.4890E-01
     -2.440  0.1196E-01  0.5020E-01
     -2.323  0.1044E-01  0.5155E-01
     -2.205  0.9726E-02  0.5274E-01
     -2.088  0.8211E-02  0.5379E-01
     -1.970  0.7412E-02  0.5470E-01
     -1.853  0.7595E-02  0.5557E-01
     -1.735  0.6260E-02  0.5644E-01
     -1.618  0.6067E-02  0.5716E-01
     -1.500  0.6670E-02  0.5789E-01
     -1.383  0.7068E-02  0.5867E-01
     -1.265  0.8326E-02  0.5957E-01
     -1.148  0.7165E-02  0.6044E-01
     -1.030  0.6936E-02  0.6127E-01
     -0.913  0.6705E-02  0.6207E-01
     -0.795  0.6317E-02  0.6284E-01
     -0.678  0.6222E-02  0.6357E-01
     -0.560  0.6110E-02  0.6429E-01
     -0.443  0.5990E-02  0.6500E-01
     -0.325  0.5877E-02  0.6570E-01
     -0.208  0.5766E-02  0.6638E-01
     -0.090  0.5750E-02  0.6706E-01
      0.027  0.5863E-02  0.6775E-01
      0.145  0.5760E-02  0.6843E-01
      0.262  0.5625E-02  0.6910E-01
      0.380  0.5495E-02  0.6975E-01
      0.497  0.5765E-02  0.7041E-01
      0.615  0.5582E-02  0.7108E-01
      0.732  0.5722E-02  0.7175E-01
      0.850  0.5697E-02  0.7242E-01
      0.967  0.3734E-02  0.7297E-01
      1.084  0.3798E-02  0.7340E-01
      1.202  0.4066E-02  0.7386E-01
      1.319  0.4977E-02  0.7437E-01
      1.437  0.4826E-02  0.7496E-01
      1.554  0.4776E-02  0.7552E-01
      1.672  0.4738E-02  0.7608E-01
      1.789  0.5000E-02  0.7665E-01
      1.907  0.3698E-02  0.7716E-01
      2.024  0.3058E-02  0.7756E-01
      2.142  0.2738E-02  0.7790E-01
      2.259  0.2459E-02  0.7820E-01
      2.377  0.2123E-02  0.7847E-01
      2.494  0.1960E-02  0.7871E-01
      2.612  0.1775E-02  0.7893E-01
      2.729  0.1608E-02  0.7913E-01
      2.847  0.1383E-02  0.7931E-01
      2.964  0.1213E-02  0.7946E-01
      3.082  0.1048E-02  0.7959E-01
      3.199  0.8774E-03  0.7970E-01
      3.317  0.7015E-03  0.7980E-01
      3.434  0.5414E-03  0.7987E-01
      3.552  0.3951E-03  0.7992E-01
      3.669  0.2594E-03  0.7996E-01
      3.787  0.1487E-03  0.7999E-01
      3.904  0.5206E-04  0.8000E-01
      4.022  0.2635E-04  0.8000E-01
      4.139  0.1073E-03  0.8001E-01
      4.257  0.2029E-03  0.8003E-01
      4.374  0.3202E-03  0.8006E-01
      4.492  0.4732E-03  0.8010E-01
      4.609  0.6283E-03  0.8017E-01
      4.727  0.8126E-03  0.8025E-01
      4.844  0.1133E-02  0.8037E-01
      4.962  0.1429E-02  0.8052E-01
      5.079  0.1682E-02  0.8071E-01
      5.197  0.1682E-02  0.8090E-01
      5.314  0.2230E-02  0.8112E-01
      5.432  0.2791E-02  0.8142E-01
      5.549  0.4782E-02  0.8190E-01
      5.667  0.5094E-02  0.8253E-01
      5.784  0.5543E-02  0.8313E-01
      5.902  0.4675E-02  0.8370E-01
      6.019  0.4772E-02  0.8425E-01
      6.137  0.3978E-02  0.8477E-01
      6.254  0.3650E-02  0.8522E-01
      6.372  0.3377E-02  0.8563E-01
      6.489  0.3176E-02  0.8601E-01
      6.607  0.3011E-02  0.8638E-01
      6.724  0.2875E-02  0.8672E-01
      6.842  0.2761E-02  0.8705E-01
      6.959  0.2661E-02  0.8737E-01
      7.077  0.2595E-02  0.8768E-01
      7.194  0.2535E-02  0.8798E-01
      7.312  0.2478E-02  0.8828E-01
      7.429  0.2422E-02  0.8856E-01
      7.547  0.2367E-02  0.8885E-01
      7.664  0.2306E-02  0.8912E-01
      7.782  0.2374E-02  0.8939E-01
      7.899  0.2513E-02  0.8968E-01
      8.017  0.2556E-02  0.8998E-01
      8.134  0.2589E-02  0.9028E-01
      8.252  0.2650E-02  0.9059E-01
      8.369  0.2697E-02  0.9090E-01
      8.487  0.2713E-02  0.9122E-01
      8.604  0.2735E-02  0.9154E-01
      8.722  0.2768E-02  0.9186E-01
      8.839  0.2801E-02  0.9219E-01
      8.957  0.2805E-02  0.9252E-01
      9.074  0.2811E-02  0.9285E-01
      9.191  0.2828E-02  0.9318E-01
      9.309  0.2870E-02  0.9352E-01
      9.426  0.2943E-02  0.9386E-01
      9.544  0.3161E-02  0.9421E-01
      9.661  0.3422E-02  0.9460E-01
      9.779  0.3472E-02  0.9501E-01
      9.896  0.3333E-02  0.9541E-01
     10.014  0.3254E-02  0.9579E-01
     10.131  0.2738E-02  0.9614E-01
     10.249  0.2367E-02  0.9644E-01
     10.366  0.2247E-02  0.9671E-01
     10.484  0.2363E-02  0.9698E-01
     10.601  0.2489E-02  0.9726E-01
     10.719  0.2990E-02  0.9759E-01
     10.836  0.3107E-02  0.9795E-01
     10.954  0.3220E-02  0.9832E-01
     11.071  0.3332E-02  0.9870E-01
     11.189  0.3427E-02  0.9910E-01
     11.306  0.4047E-02  0.9952E-01
     11.424  0.6206E-02  0.1001E+00
     11.541  0.8651E-02  0.1010E+00
     11.659  0.9637E-02  0.1021E+00
     11.776  0.9005E-02  0.1032E+00
     11.894  0.7644E-02  0.1042E+00
     12.011  0.7382E-02  0.1051E+00
     12.129  0.7450E-02  0.1059E+00
     12.246  0.7736E-02  0.1068E+00
     12.364  0.1348E-01  0.1079E+00
     12.481  0.1376E-01  0.1097E+00
     12.599  0.1020E-01  0.1112E+00
     12.716  0.6031E-02  0.1121E+00
     12.834  0.4789E-02  0.1127E+00
     12.951  0.4380E-02  0.1132E+00
     13.069  0.3934E-02  0.1137E+00
     13.186  0.3376E-02  0.1141E+00
     13.304  0.3076E-02  0.1145E+00
     13.421  0.2800E-02  0.1149E+00
     13.539  0.2632E-02  0.1152E+00
     13.656  0.2583E-02  0.1155E+00
     13.774  0.2578E-02  0.1158E+00
     13.891  0.2658E-02  0.1161E+00
     14.009  0.2963E-02  0.1164E+00
     14.126  0.2888E-02  0.1168E+00
     14.244  0.2616E-02  0.1171E+00
     14.361  0.3985E-02  0.1174E+00
     14.479  0.4690E-02  0.1180E+00
     14.596  0.3978E-02  0.1185E+00
     14.714  0.2907E-02  0.1189E+00
     14.831  0.2525E-02  0.1192E+00
     14.949  0.2101E-02  0.1195E+00
     15.066  0.1558E-02  0.1197E+00
     15.184  0.1118E-02  0.1199E+00
     15.301  0.3280E-03  0.1200E+00
     15.419  0.5630E-04  0.1200E+00
     15.536  0.7959E-05  0.1200E+00
     15.654  0.0000E+00  0.1200E+00
     15.771  0.0000E+00  0.1200E+00
     15.889  0.0000E+00  0.1200E+00
     16.006  0.0000E+00  0.1200E+00
     16.124  0.0000E+00  0.1200E+00
     16.241  0.0000E+00  0.1200E+00
     16.359  0.0000E+00  0.1200E+00
     16.476  0.0000E+00  0.1200E+00
     16.594  0.0000E+00  0.1200E+00
     16.711  0.0000E+00  0.1200E+00
     16.829  0.0000E+00  0.1200E+00
     16.946  0.0000E+00  0.1200E+00
     17.064  0.0000E+00  0.1200E+00
     17.181  0.0000E+00  0.1200E+00
     17.298  0.0000E+00  0.1200E+00
     17.416  0.0000E+00  0.1200E+00
     17.533  0.0000E+00  0.1200E+00
     17.651  0.0000E+00  0.1200E+00
