    4    4  200    1
  0.9603652E+01  0.2466437E-09  0.2466437E-09  0.7294926E-09  0.5000000E-15
  1.000000000000000E-004
  CAR 
 graphite                                
     16    455     12
 
  0.0000000E+00  0.0000000E+00  0.0000000E+00  0.3858025E-03
    1      -15.596855
    2      -15.444563
    3       -4.222199
    4       -2.964905
    5        0.955508
    6        0.962860
    7        0.971967
    8        0.979088
    9        7.697373
   10       12.303132
   11       12.313589
   12       12.330430
 
  0.5555556E-01  0.0000000E+00  0.0000000E+00  0.1543210E-02
    1      -15.523441
    2      -15.371907
    3       -4.133333
    4       -2.880083
    5        0.667869
    6        0.678510
    7        0.802310
    8        0.811908
    9        7.789083
   10       12.338515
   11       12.372098
   12       12.637097
 
  0.1111111E+00  0.0000000E+00  0.0000000E+00  0.1543210E-02
    1      -15.303575
    2      -15.154288
    3       -3.867581
    4       -2.626713
    5       -0.154152
    6       -0.135565
    7        0.384244
    8        0.397802
    9        8.064660
   10       12.359652
   11       12.422129
   12       13.513353
 
  0.1666667E+00  0.0000000E+00  0.0000000E+00  0.1543210E-02
    1      -14.938408
    2      -14.792900
    3       -3.427799
    4       -2.208469
    5       -1.334454
    6       -1.305548
    7       -0.176980
    8       -0.160192
    9        8.524234
   10       12.270899
   11       12.373592
   12       13.219962
 
  0.2222222E+00  0.0000000E+00  0.0000000E+00  0.1543210E-02
    1      -14.429806
    2      -14.289442
    3       -2.819235
    4       -2.715091
    5       -2.675204
    6       -1.632706
    7       -0.772860
    8       -0.753411
    9        9.166133
   10       11.812430
   11       12.077060
   12       12.207221
 
  0.2777778E+00 -0.2775558E-16  0.0000000E+00  0.1543210E-02
    1      -13.780987
    2      -13.647041
    3       -4.182007
    4       -4.130460
    5       -2.052305
    6       -1.327541
    7       -1.306385
    8       -0.913507
    9        9.985209
   10       10.246831
   11       10.673180
   12       11.837180
 
  0.3333333E+00  0.0000000E+00  0.0000000E+00  0.1543210E-02
    1      -12.997005
    2      -12.870751
    3       -5.657306
    4       -5.594289
    5       -1.793425
    6       -1.770957
    7       -1.146075
    8       -0.078618
    9        8.642658
   10        9.187205
   11       10.956287
   12       11.613970
 
  0.3888889E+00 -0.2775558E-16  0.0000000E+00  0.1543210E-02
    1      -12.087592
    2      -11.970588
    3       -7.086296
    4       -7.012627
    5       -2.141905
    6       -2.118722
    7       -0.143089
    8        0.806167
    9        7.134154
   10        7.756992
   11       11.401634
   12       11.572395
 
  0.4444444E+00  0.0000000E+00  0.0000000E+00  0.1543210E-02
    1      -11.081720
    2      -10.978018
    3       -8.409492
    4       -8.329028
    5       -2.356592
    6       -2.332844
    7        0.840616
    8        1.557524
    9        5.947003
   10        6.544608
   11       11.294153
   12       11.495900
 
  0.5000000E+00  0.0000000E+00  0.0000000E+00  0.7716049E-03
    1      -10.303466
    2      -10.248439
    3       -9.252806
    4       -9.210311
    5       -2.428988
    6       -2.405255
    7        1.387057
    8        1.814660
    9        5.490347
   10        5.970662
   11       11.255062
   12       11.462676
 
  0.5555556E-01  0.5555556E-01  0.0000000E+00  0.7716049E-03
    1      -15.376710
    2      -15.226668
    3       -3.955910
    4       -2.710919
    5        0.139183
    6        0.149759
    7        0.487087
    8        0.495512
    9        7.972992
   10       12.441748
   11       12.490502
   12       13.150399
 
  0.1111111E+00  0.5555556E-01  0.0000000E+00  0.1543210E-02
    1      -15.084086
    2      -14.937074
    3       -3.602956
    4       -2.374804
    5       -0.811082
    6       -0.791908
    7       -0.054673
    8       -0.041479
    9        8.341273
   10       12.535723
   11       12.615822
   12       13.303127
 
  0.1666667E+00  0.5555556E-01  0.0000000E+00  0.1543210E-02
    1      -14.647092
    2      -14.504508
    3       -3.078369
    4       -2.051426
    5       -2.019896
    6       -1.877300
    7       -0.676482
    8       -0.658026
    9        8.893236
   10       12.447877
   11       12.461817
   12       12.585805
 
  0.2222222E+00  0.5555556E-01  0.0000000E+00  0.1543210E-02
    1      -14.068253
    2      -13.931477
    3       -3.450007
    4       -3.405924
    5       -2.389703
    6       -1.279193
    7       -1.257206
    8       -1.228439
    9        9.626024
   10       10.965266
   11       11.308077
   12       12.266596
 
  0.2777778E+00  0.5555556E-01  0.0000000E+00  0.1543210E-02
    1      -13.351591
    2      -13.221908
    3       -4.906193
    4       -4.850115
    5       -1.805341
    6       -1.781100
    7       -1.550657
    8       -0.447303
    9        9.395262
   10        9.860280
   11       10.532113
   12       12.038433
 
  0.3333333E+00  0.5555556E-01  0.0000000E+00  0.1543210E-02
    1      -12.504150
    2      -12.382969
    3       -6.350627
    4       -6.283131
    5       -2.221484
    6       -2.195735
    7       -0.588890
    8        0.424785
    9        7.840999
   10        8.410168
   11       11.550177
   12       11.849637
 
  0.3888889E+00  0.5555556E-01  0.0000000E+00  0.1543210E-02
    1      -11.541214
    2      -11.430460
    3       -7.728266
    4       -7.650740
    5       -2.507932
    6       -2.481381
    7        0.428402
    8        1.280921
    9        6.465459
   10        7.074470
   11       11.664113
   12       11.861611
 
  0.4444444E+00  0.5555556E-01  0.0000000E+00  0.1543210E-02
    1      -10.539998
    2      -10.452145
    3       -8.928315
    4       -8.854867
    5       -2.653778
    6       -2.626867
    7        1.288919
    8        1.826838
    9        5.596322
   10        6.101303
   11       11.588567
   12       11.802434
 
  0.5000000E+00  0.5555556E-01  0.0000000E+00  0.1543210E-02
    1      -10.541446
    2      -10.453510
    3       -8.926745
    4       -8.853209
    5       -2.654175
    6       -2.627341
    7        1.288190
    8        1.826575
    9        5.596544
   10        6.102044
   11       11.589035
   12       11.802904
 
 -0.4444444E+00  0.5555556E-01  0.0000000E+00  0.1543210E-02
    1      -11.542793
    2      -11.432030
    3       -7.726071
    4       -7.648525
    5       -2.509099
    6       -2.482530
    7        0.427193
    8        1.280010
    9        6.466157
   10        7.075757
   11       11.665508
   12       11.862904
 
 -0.3888889E+00  0.5555556E-01  0.0000000E+00  0.1543210E-02
    1      -12.505544
    2      -12.384355
    3       -6.348260
    4       -6.280745
    5       -2.223289
    6       -2.197545
    7       -0.590123
    8        0.423691
    9        7.841646
   10        8.411423
   11       11.549060
   12       11.851459
 
 -0.3333333E+00  0.5555556E-01  0.0000000E+00  0.1543210E-02
    1      -13.352771
    2      -13.223077
    3       -4.903788
    4       -4.847751
    5       -1.807599
    6       -1.783322
    7       -1.551787
    8       -0.448356
    9        9.395440
   10        9.861265
   11       10.530542
   12       12.041426
 
 -0.2777778E+00  0.5555556E-01  0.0000000E+00  0.1543210E-02
    1      -14.069223
    2      -13.932442
    3       -3.448078
    4       -3.403984
    5       -2.390671
    6       -1.281355
    7       -1.259363
    8       -1.229360
    9        9.624718
   10       10.964684
   11       11.308677
   12       12.270066
 
 -0.2222222E+00  0.5555556E-01  0.0000000E+00  0.1543210E-02
    1      -14.647858
    2      -14.505268
    3       -3.079213
    4       -2.050885
    5       -2.019360
    6       -1.878044
    7       -0.677376
    8       -0.659028
    9        8.892206
   10       12.431866
   11       12.466015
   12       12.587853
 
 -0.1666667E+00  0.5555556E-01  0.0000000E+00  0.1543210E-02
    1      -15.084624
    2      -14.937608
    3       -3.603520
    4       -2.375349
    5       -0.814090
    6       -0.794977
    7       -0.051813
    8       -0.038807
    9        8.340524
   10       12.539026
   11       12.619775
   12       13.442712
 
 -0.1111111E+00  0.5555556E-01  0.0000000E+00  0.1543210E-02
    1      -15.377035
    2      -15.226998
    3       -3.956252
    4       -2.711250
    5        0.128926
    6        0.139812
    7        0.497114
    8        0.505483
    9        7.972532
   10       12.443822
   11       12.493251
   12       13.138670
 
 -0.5555556E-01  0.5555556E-01  0.0000000E+00  0.7716049E-03
    1      -15.523548
    2      -15.372013
    3       -4.133447
    4       -2.880195
    5        0.655527
    6        0.666334
    7        0.814654
    8        0.824145
    9        7.788927
   10       12.338355
   11       12.372673
   12       12.623155
 
  0.1111111E+00  0.1111111E+00  0.0000000E+00  0.7716049E-03
    1      -14.719690
    2      -14.576324
    3       -3.165116
    4       -1.959265
    5       -1.711741
    6       -1.694459
    7       -0.757997
    8       -0.745981
    9        8.802801
   10       12.671492
   11       12.905215
   12       13.024397
 
  0.1666667E+00  0.1111111E+00  0.0000000E+00  0.1543210E-02
    1      -14.212411
    2      -14.074217
    3       -2.855714
    4       -2.826863
    5       -2.559566
    6       -1.501563
    7       -1.482712
    8       -1.387235
    9        9.447311
   10       11.409884
   11       11.663370
   12       13.124825
 
  0.2222222E+00  0.1111111E+00  0.0000000E+00  0.1543210E-02
    1      -13.565702
    2      -13.433958
    3       -4.177254
    4       -4.132812
    5       -2.146443
    6       -2.120051
    7       -1.796198
    8       -0.672234
    9        9.982380
   10       10.270715
   11       10.328215
   12       13.011085
 
  0.2777778E+00  0.1111111E+00  0.0000000E+00  0.1543210E-02
    1      -12.784942
    2      -12.660996
    3       -5.569512
    4       -5.511065
    5       -2.658671
    6       -2.628083
    7       -0.893785
    8        0.159361
    9        8.486627
   10        8.942287
   11       11.264796
   12       12.817241
 
  0.3333333E+00  0.1111111E+00  0.0000000E+00  0.1543210E-02
    1      -11.880698
    2      -11.765665
    3       -6.949694
    4       -6.879362
    5       -3.030290
    6       -2.997380
    7        0.107411
    8        1.045930
    9        7.049335
   10        7.588820
   11       12.376455
   12       12.658561
 
  0.3888889E+00  0.1111111E+00  0.0000000E+00  0.1543210E-02
    1      -10.882363
    2      -10.780922
    3       -8.243459
    4       -8.165685
    5       -3.256190
    6       -3.221733
    7        1.096364
    8        1.810898
    9        5.894801
   10        6.413226
   11       12.509033
   12       12.745236
 
  0.4444444E+00  0.1111111E+00  0.0000000E+00  0.1543210E-02
    1      -10.115239
    2      -10.061395
    3       -9.069488
    4       -9.028961
    5       -3.332188
    6       -3.297346
    7        1.654074
    8        2.078039
    9        5.453342
   10        5.831857
   11       12.471091
   12       12.717788
 
  0.5000000E+00  0.1111111E+00  0.0000000E+00  0.1543210E-02
    1      -10.885586
    2      -10.784109
    3       -8.239447
    4       -8.161607
    5       -3.257565
    6       -3.223084
    7        1.094216
    8        1.809578
    9        5.895585
   10        6.415586
   11       12.510660
   12       12.746748
 
 -0.4444444E+00  0.1111111E+00  0.0000000E+00  0.1543210E-02
    1      -11.883687
    2      -11.768647
    3       -6.945157
    4       -6.874780
    5       -3.032895
    6       -2.999938
    7        0.104922
    8        1.043819
    9        7.050395
   10        7.591433
   11       12.373551
   12       12.660816
 
 -0.3888889E+00  0.1111111E+00  0.0000000E+00  0.1543210E-02
    1      -12.787519
    2      -12.663576
    3       -5.564959
    4       -5.506537
    5       -2.662116
    6       -2.631464
    7       -0.896164
    8        0.157218
    9        8.486918
   10        8.944525
   11       11.261339
   12       12.821521
 
 -0.3333333E+00  0.1111111E+00  0.0000000E+00  0.1543210E-02
    1      -13.567858
    2      -13.436107
    3       -4.173639
    4       -4.129072
    5       -2.149666
    6       -2.123259
    7       -1.798300
    8       -0.674225
    9        9.981178
   10       10.267834
   11       10.329798
   12       13.017558
 
 -0.2777778E+00  0.1111111E+00  0.0000000E+00  0.1543210E-02
    1      -14.214132
    2      -14.075932
    3       -2.854998
    4       -2.826081
    5       -2.561308
    6       -1.502187
    7       -1.483354
    8       -1.388909
    9        9.445000
   10       11.406859
   11       11.664145
   12       13.133429
 
 -0.2222222E+00  0.1111111E+00  0.0000000E+00  0.1543210E-02
    1      -14.720970
    2      -14.577602
    3       -3.166447
    4       -1.960519
    5       -1.717420
    6       -1.699729
    7       -0.752502
    8       -0.740353
    9        8.801052
   10       12.665587
   11       12.921261
   12       12.966076
 
 -0.1666667E+00  0.1111111E+00  0.0000000E+00  0.1543210E-02
    1      -15.084944
    2      -14.937927
    3       -3.603861
    4       -2.375683
    5       -0.822937
    6       -0.803445
    7       -0.042732
    8       -0.029489
    9        8.340088
   10       12.549021
   11       12.629456
   12       13.499847
 
 -0.1111111E+00  0.1111111E+00  0.0000000E+00  0.7716049E-03
    1      -15.304003
    2      -15.154714
    3       -3.868037
    4       -2.627156
    5       -0.167346
    6       -0.148620
    7        0.397753
    8        0.411232
    9        8.064060
   10       12.368872
   11       12.431375
   12       13.514748
 
  0.1666667E+00  0.1666667E+00  0.0000000E+00  0.7716049E-03
    1      -13.637270
    2      -13.504875
    3       -3.774846
    4       -3.750243
    5       -2.420700
    6       -2.402791
    7       -1.878584
    8       -0.747817
    9       10.182540
   10       10.220569
   11       10.491303
   12       13.916369
 
  0.2222222E+00  0.1666667E+00  0.0000000E+00  0.1543210E-02
    1      -12.926285
    2      -12.800850
    3       -4.894373
    4       -4.855309
    5       -3.188894
    6       -3.161503
    7       -1.048352
    8        0.023524
    9        8.908706
   10        9.234610
   11       11.092742
   12       14.131073
 
  0.2777778E+00  0.1666667E+00  0.0000000E+00  0.1543210E-02
    1      -12.087483
    2      -11.970354
    3       -6.157847
    4       -6.100748
    5       -3.727130
    6       -3.690407
    7       -0.094274
    8        0.890889
    9        7.548462
   10        7.959615
   11       12.167653
   12       13.994493
 
  0.3333333E+00  0.1666667E+00  0.0000000E+00  0.1543210E-02
    1      -11.137357
    2      -11.030769
    3       -7.439122
    4       -7.368870
    5       -4.067171
    6       -4.025707
    7        0.924109
    8        1.761536
    9        6.283754
   10        6.744636
   11       13.376195
   12       13.853969
 
  0.3888889E+00  0.1666667E+00  0.0000000E+00  0.1543210E-02
    1      -10.155124
    2      -10.070982
    3       -8.586167
    4       -8.518330
    5       -4.233571
    6       -4.190106
    7        1.809651
    8        2.346415
    9        5.457214
   10        5.789370
   11       13.750236
   12       14.073982
 
  0.4444444E+00  0.1666667E+00  0.0000000E+00  0.1543210E-02
    1      -10.159412
    2      -10.075174
    3       -8.581522
    4       -8.513383
    5       -4.234418
    6       -4.190953
    7        1.807378
    8        2.345561
    9        5.456913
   10        5.792346
   11       13.751223
   12       14.074696
 
  0.5000000E+00  0.1666667E+00  0.0000000E+00  0.1543210E-02
    1      -11.142088
    2      -11.035486
    3       -7.432751
    4       -7.362395
    5       -4.069583
    6       -4.028058
    7        0.920502
    8        1.758677
    9        6.284497
   10        6.748736
   11       13.369811
   12       13.856153
 
 -0.4444444E+00  0.1666667E+00  0.0000000E+00  0.1543210E-02
    1      -12.091674
    2      -11.974537
    3       -6.151522
    4       -6.094311
    5       -3.730417
    6       -3.693620
    7       -0.097936
    8        0.887553
    9        7.548307
   10        7.963386
   11       12.161973
   12       13.999280
 
 -0.3888889E+00  0.1666667E+00  0.0000000E+00  0.1543210E-02
    1      -12.929841
    2      -12.804396
    3       -4.890038
    4       -4.850804
    5       -3.191085
    6       -3.163613
    7       -1.051702
    8        0.020344
    9        8.906429
   10        9.237540
   11       11.088007
   12       14.138584
 
 -0.3333333E+00  0.1666667E+00  0.0000000E+00  0.1543210E-02
    1      -13.640174
    2      -13.507774
    3       -3.776174
    4       -3.750992
    5       -2.418207
    6       -2.399935
    7       -1.881457
    8       -0.750588
    9       10.178691
   10       10.215965
   11       10.492738
   12       13.936827
 
 -0.2777778E+00  0.1666667E+00  0.0000000E+00  0.1543210E-02
    1      -14.214665
    2      -14.076464
    3       -2.863448
    4       -2.834092
    5       -2.561868
    6       -1.492871
    7       -1.473758
    8       -1.389474
    9        9.444319
   10       11.403880
   11       11.662515
   12       13.153164
 
 -0.2222222E+00  0.1666667E+00  0.0000000E+00  0.1543210E-02
    1      -14.648698
    2      -14.506114
    3       -3.080115
    4       -2.063254
    5       -2.031488
    6       -1.878938
    7       -0.663440
    8       -0.644970
    9        8.891088
   10       12.428210
   11       12.484803
   12       12.608467
 
 -0.1666667E+00  0.1666667E+00  0.0000000E+00  0.7716049E-03
    1      -14.939369
    2      -14.793860
    3       -3.428817
    4       -2.209465
    5       -1.347944
    6       -1.318899
    7       -0.162291
    8       -0.145562
    9        8.522935
   10       12.289205
   11       12.391700
   12       13.221006
 
  0.2222222E+00  0.2222222E+00  0.0000000E+00  0.7716049E-03
    1      -12.156990
    2      -12.039075
    3       -5.692144
    4       -5.660612
    5       -4.154843
    6       -4.130926
    7       -0.162856
    8        0.837016
    9        7.760164
   10        8.086641
   11       12.081395
   12       15.249016
 
  0.2777778E+00  0.2222222E+00  0.0000000E+00  0.1543210E-02
    1      -11.269124
    2      -11.160707
    3       -6.701328
    4       -6.652332
    5       -4.819668
    6       -4.783649
    7        0.827098
    8        1.722190
    9        6.576014
   10        6.943429
   11       13.218942
   12       15.325586
 
  0.3333333E+00  0.2222222E+00  0.0000000E+00  0.1543210E-02
    1      -10.295801
    2      -10.200502
    3       -7.821104
    4       -7.756186
    5       -5.166798
    6       -5.120670
    7        1.833573
    8        2.539948
    9        5.525418
   10        5.883496
   11       14.462203
   12       15.197411
 
  0.3888889E+00  0.2222222E+00  0.0000000E+00  0.1543210E-02
    1       -9.551759
    2       -9.501223
    3       -8.585253
    4       -8.555294
    5       -5.273996
    6       -5.224912
    7        2.447729
    8        2.859541
    9        5.161995
   10        5.214017
   11       15.122641
   12       15.576877
 
  0.4444444E+00  0.2222222E+00  0.0000000E+00  0.1543210E-02
    1      -10.302274
    2      -10.206931
    3       -7.813524
    4       -7.748346
    5       -5.168331
    6       -5.122132
    7        1.829222
    8        2.536900
    9        5.524689
   10        5.889417
   11       14.452292
   12       15.198204
 
  0.5000000E+00  0.2222222E+00  0.0000000E+00  0.1543210E-02
    1      -11.275118
    2      -11.166699
    3       -6.694277
    4       -6.644986
    5       -4.821379
    6       -4.785209
    7        0.822240
    8        1.717744
    9        6.574875
   10        6.948970
   11       13.210650
   12       15.329151
 
 -0.4444444E+00  0.2222222E+00  0.0000000E+00  0.1543210E-02
    1      -12.162168
    2      -12.044246
    3       -5.689723
    4       -5.657432
    5       -4.153232
    6       -4.128823
    7       -0.167489
    8        0.832546
    9        7.756851
   10        8.090795
   11       12.074502
   12       15.270051
 
 -0.3888889E+00  0.2222222E+00  0.0000000E+00  0.1543210E-02
    1      -12.930596
    2      -12.805275
    3       -4.898122
    4       -4.858421
    5       -3.181801
    6       -3.154003
    7       -1.052463
    8        0.019493
    9        8.903406
   10        9.236098
   11       11.087097
   12       14.164950
 
 -0.3333333E+00  0.2222222E+00  0.0000000E+00  0.1543210E-02
    1      -13.569143
    2      -13.437387
    3       -4.185377
    4       -4.140623
    5       -2.135162
    6       -2.108649
    7       -1.799622
    8       -0.675612
    9        9.975735
   10       10.266251
   11       10.326515
   12       13.044276
 
 -0.2777778E+00  0.2222222E+00  0.0000000E+00  0.1543210E-02
    1      -14.070826
    2      -13.934041
    3       -3.461212
    4       -3.416953
    5       -2.392340
    6       -1.264969
    7       -1.242989
    8       -1.231047
    9        9.622698
   10       10.957963
   11       11.303914
   12       12.295985
 
 -0.2222222E+00  0.2222222E+00  0.0000000E+00  0.7716049E-03
    1      -14.431518
    2      -14.291145
    3       -2.821023
    4       -2.728259
    5       -2.688227
    6       -1.634476
    7       -0.757014
    8       -0.737613
    9        9.163908
   10       11.805380
   11       12.101038
   12       12.124279
 
  0.2777778E+00  0.2777778E+00  0.0000000E+00  0.7716049E-03
    1      -10.350991
    2      -10.253704
    3       -7.327306
    4       -7.288775
    5       -5.692588
    6       -5.665297
    7        1.831051
    8        2.603928
    9        5.569749
   10        5.938140
   11       14.379777
   12       15.117080
 
  0.3333333E+00  0.2777778E+00  0.0000000E+00  0.1543210E-02
    1       -9.407584
    2       -9.329989
    3       -8.144383
    4       -8.097227
    5       -6.128748
    6       -6.091613
    7        2.793350
    8        3.339966
    9        4.720986
   10        5.034431
   11       14.975628
   12       15.182183
 
  0.3888889E+00  0.2777778E+00  0.0000000E+00  0.1543210E-02
    1       -9.415141
    2       -9.337347
    3       -8.137295
    4       -8.089224
    5       -6.128838
    6       -6.091461
    7        2.789063
    8        3.337779
    9        4.718455
   10        5.041487
   11       14.985226
   12       15.174009
 
  0.4444444E+00  0.2777778E+00  0.0000000E+00  0.1543210E-02
    1      -10.358998
    2      -10.261735
    3       -7.321806
    4       -7.282364
    5       -5.690688
    6       -5.662789
    7        1.825321
    8        2.598293
    9        5.568232
   10        5.945002
   11       14.368331
   12       15.126971
 
  0.5000000E+00  0.2777778E+00  0.0000000E+00  0.1543210E-02
    1      -11.276169
    2      -11.167769
    3       -6.701287
    4       -6.651601
    5       -4.812950
    6       -4.776438
    7        0.821326
    8        1.716258
    9        6.572828
   10        6.947934
   11       13.209549
   12       15.363747
 
 -0.4444444E+00  0.2777778E+00  0.0000000E+00  0.1543210E-02
    1      -12.093439
    2      -11.976317
    3       -6.162094
    4       -6.104646
    5       -3.716626
    6       -3.679716
    7       -0.099619
    8        0.885401
    9        7.543665
   10        7.960547
   11       12.159987
   12       14.032452
 
 -0.3888889E+00  0.2777778E+00  0.0000000E+00  0.1543210E-02
    1      -12.789789
    2      -12.665850
    3       -5.577001
    4       -5.518344
    5       -2.645455
    6       -2.614816
    7       -0.898419
    8        0.154672
    9        8.480320
   10        8.939709
   11       11.258761
   12       12.852590
 
 -0.3333333E+00  0.2777778E+00  0.0000000E+00  0.1543210E-02
    1      -13.355350
    2      -13.225665
    3       -4.916357
    4       -4.860129
    5       -1.789930
    6       -1.765700
    7       -1.554400
    8       -0.451109
    9        9.387769
   10        9.855143
   11       10.527572
   12       12.071105
 
 -0.2777778E+00  0.2777778E+00  0.0000000E+00  0.7716049E-03
    1      -13.783664
    2      -13.649713
    3       -4.194283
    4       -4.142605
    5       -2.055046
    6       -1.310671
    7       -1.289557
    8       -0.916284
    9        9.981929
   10       10.238973
   11       10.667115
   12       11.866385
 
  0.3333333E+00  0.3333333E+00  0.0000000E+00  0.7716049E-03
    1       -8.642956
    2       -8.597154
    3       -8.595117
    4       -8.551051
    5       -6.551385
    6       -6.550902
    7        3.594745
    8        3.968846
    9        3.974274
   10        4.397462
   11       14.857231
   12       14.875006
 
  0.3888889E+00  0.3333333E+00  0.0000000E+00  0.1543210E-02
    1       -9.417952
    2       -9.340646
    3       -8.139854
    4       -8.092053
    5       -6.122892
    6       -6.085085
    7        2.788325
    8        3.331604
    9        4.720950
   10        5.041915
   11       14.990565
   12       15.170340
 
  0.4444444E+00  0.3333333E+00  0.0000000E+00  0.1543210E-02
    1      -10.305107
    2      -10.209943
    3       -7.821101
    4       -7.755893
    5       -5.156758
    6       -5.110416
    7        1.827461
    8        2.531878
    9        5.523637
   10        5.887833
   11       14.450291
   12       15.234817
 
  0.5000000E+00  0.3333333E+00  0.0000000E+00  0.1543210E-02
    1      -11.145290
    2      -11.038763
    3       -7.442531
    4       -7.372110
    5       -4.054487
    6       -4.012949
    7        0.917883
    8        1.754151
    9        6.280488
   10        6.744869
   11       13.367770
   12       13.891520
 
 -0.4444444E+00  0.3333333E+00  0.0000000E+00  0.1543210E-02
    1      -11.887253
    2      -11.772245
    3       -6.955947
    4       -6.885639
    5       -3.015546
    6       -2.982622
    7        0.101665
    8        1.039485
    9        7.044293
   10        7.585546
   11       12.374385
   12       12.692920
 
 -0.3888889E+00  0.3333333E+00  0.0000000E+00  0.1543210E-02
    1      -12.509349
    2      -12.388172
    3       -6.359388
    4       -6.291782
    5       -2.204967
    6       -2.179265
    7       -0.593782
    8        0.419467
    9        7.834309
   10        8.404384
   11       11.550411
   12       11.882321
 
 -0.3333333E+00  0.3333333E+00  0.0000000E+00  0.7716049E-03
    1      -13.000884
    2      -12.874876
    3       -5.668313
    4       -5.605146
    5       -1.775726
    6       -1.753300
    7       -1.149897
    8       -0.082693
    9        8.634890
   10        9.180298
   11       10.953260
   12       11.645564
 
  0.3888889E+00  0.3888889E+00  0.0000000E+00  0.7716049E-03
    1       -9.561300
    2       -9.511932
    3       -8.585209
    4       -8.555973
    5       -5.262377
    6       -5.213189
    7        2.445505
    8        2.847966
    9        5.165497
   10        5.212882
   11       15.157973
   12       15.650966
 
  0.4444444E+00  0.3888889E+00  0.0000000E+00  0.1543210E-02
    1      -10.165695
    2      -10.082030
    3       -8.587449
    4       -8.519746
    5       -4.219419
    6       -4.175958
    7        1.804682
    8        2.335771
    9        5.457169
   10        5.787564
   11       13.787662
   12       14.111327
 
  0.5000000E+00  0.3888889E+00  0.0000000E+00  0.1543210E-02
    1      -10.891134
    2      -10.789850
    3       -8.247773
    4       -8.170012
    5       -3.240245
    6       -3.205800
    7        1.090353
    8        1.801846
    9        5.892431
   10        6.408839
   11       12.545370
   12       12.781414
 
 -0.4444444E+00  0.3888889E+00  0.0000000E+00  0.1543210E-02
    1      -11.548235
    2      -11.437544
    3       -7.735210
    4       -7.657640
    5       -2.490549
    6       -2.464030
    7        0.422638
    8        1.273441
    9        6.460823
   10        7.068075
   11       11.698610
   12       11.895725
 
 -0.3888889E+00  0.3888889E+00  0.0000000E+00  0.7716049E-03
    1      -12.092988
    2      -11.975999
    3       -7.095539
    4       -7.021857
    5       -2.123648
    6       -2.100457
    7       -0.147974
    8        0.800291
    9        7.127704
   10        7.749562
   11       11.433494
   12       11.603200
 
  0.4444444E+00  0.4444444E+00  0.0000000E+00  0.7716049E-03
    1      -10.125800
    2      -10.073185
    3       -9.071454
    4       -9.031807
    5       -3.315354
    6       -3.280556
    7        1.651021
    8        2.065337
    9        5.454626
   10        5.824180
   11       12.507137
   12       12.754068
 
  0.5000000E+00  0.4444444E+00  0.0000000E+00  0.1543210E-02
    1      -10.549830
    2      -10.462460
    3       -8.932191
    4       -8.859043
    5       -2.635736
    6       -2.608865
    7        1.284139
    8        1.815542
    9        5.595684
   10        6.092991
   11       11.623556
   12       11.837483
 
 -0.4444444E+00  0.4444444E+00  0.0000000E+00  0.7716049E-03
    1      -11.089208
    2      -10.985679
    3       -8.416330
    4       -8.335932
    5       -2.337911
    6       -2.314205
    7        0.835347
    8        1.548629
    9        5.943731
   10        6.536303
   11       11.328142
   12       11.529860
 
  0.5000000E+00  0.5000000E+00  0.0000000E+00  0.3858025E-03
    1      -10.314364
    2      -10.260590
    3       -9.255230
    4       -9.213620
    5       -2.410182
    6       -2.386494
    7        1.383681
    8        1.801567
    9        5.490897
   10        5.960489
   11       11.289420
   12       11.497068
 