32   
4    

1    
  0.0033107472635549  -0.0000012881476616   0.0094360452996761
  -0.2133218400    0.0078213500   -0.1346096400
   0.0282042300    0.0069294500   -0.0059303600
  -0.0068416600   -0.0133274300   -0.0058667600
  -0.0069331100    0.0272778500   -0.0060912100
  -0.0147188800    0.0064580500    0.0014064300
  -0.0147049700    0.0064598800    0.0014181800
  -0.0147120900    0.0064577400    0.0014178600
  -0.0147100900    0.0064639300    0.0014183500
   0.0128583300   -0.0085146900   -0.0014410000
   0.0127513000   -0.0085855500   -0.0014754400
   0.0128654400   -0.0084572000   -0.0014569000
   0.0127326200   -0.0085264300   -0.0010461300
   0.0121871100   -0.0056733200   -0.0014997500
   0.0122781800   -0.0057373800   -0.0014665700
   0.0122860600   -0.0057889200   -0.0014834900
   0.0121564900   -0.0057353500   -0.0010105200
   0.0074607300   -0.0065121000    0.0121508000
   0.0335614200   -0.0072242900    0.0478365200
   0.0775124900    0.0187601800    0.0482308300
   0.0775351100   -0.0319352100    0.0473944300
   0.0141110200   -0.0061906300   -0.0001330500
   0.0141099200   -0.0061910300   -0.0001257000
   0.0141113600   -0.0061922600   -0.0001268600
   0.0141100000   -0.0061936600   -0.0001227700
  -0.0125328900    0.0082431700    0.0004416800
  -0.0122633500    0.0083146900    0.0004526200
  -0.0124600500    0.0080541800    0.0004513500
  -0.0123411700    0.0082028000   -0.0000165900
  -0.0112137000    0.0052364800    0.0004466500
  -0.0114233700    0.0053119200    0.0004246600
  -0.0113855600    0.0054566800    0.0004298400
  -0.0112690800    0.0053370900   -0.0000174400

1    
 -0.0033107472635549   0.0000012881476616  -0.0094360452996761
   0.1901575800    0.0074287500    0.1345633400
  -0.0513002600    0.0065243800    0.0059171400
  -0.0161874700    0.0268120300    0.0059792700
  -0.0162808100   -0.0137641300    0.0059513900
  -0.0093521900    0.0070708800   -0.0012406400
  -0.0093648600    0.0070700400   -0.0012541600
  -0.0093586200    0.0070716900   -0.0012540700
  -0.0093601400    0.0070653700   -0.0012541000
   0.0126692100   -0.0090501200    0.0014408000
   0.0127641000   -0.0089795000    0.0014744400
   0.0126562100   -0.0090993000    0.0014556500
   0.0127879900   -0.0090393700    0.0009844500
   0.0117359400   -0.0052694900    0.0013513300
   0.0116351700   -0.0052035700    0.0013145300
   0.0116281100   -0.0051446200    0.0013340000
   0.0117549800   -0.0051952300    0.0009186700
   0.0144306100   -0.0062868400   -0.0122328800
  -0.0117069000   -0.0068118000   -0.0479191300
  -0.0558488600   -0.0317447300   -0.0475135600
  -0.0554554000    0.0189291100   -0.0482732000
   0.0086152700   -0.0065897200    0.0002509000
   0.0086157500   -0.0065892900    0.0002430500
   0.0086147100   -0.0065882000    0.0002417100
   0.0086157400   -0.0065874600    0.0002422400
  -0.0122678800    0.0086839400   -0.0003981600
  -0.0124832100    0.0086134800   -0.0004089900
  -0.0123133100    0.0088294900   -0.0004050700
  -0.0124328700    0.0087096500    0.0000497200
  -0.0108732000    0.0048972400   -0.0005281400
  -0.0106155600    0.0048211800   -0.0004933100
  -0.0106784800    0.0046318900   -0.0004943500
  -0.0108013600    0.0047842900   -0.0000428800

17   
  0.0033107472635549  -0.0000012881476616   0.0094360452996761
  -0.0144815600    0.0076367800    0.0116612600
   0.0116998900    0.0081677300    0.0473525300
   0.0558198300    0.0330758400    0.0469374600
   0.0554248600   -0.0175618100    0.0477072800
  -0.0160059300    0.0077087100   -0.0005996500
  -0.0160040500    0.0077019700   -0.0005931300
  -0.0159996200    0.0076936100   -0.0005934600
  -0.0160111900    0.0076945800   -0.0005878000
   0.0104797100   -0.0070554000    0.0009580600
   0.0105437600   -0.0069985500    0.0010335400
   0.0104647200   -0.0070598800    0.0009925700
   0.0105667000   -0.0070371600    0.0005322700
   0.0100873900   -0.0049689000    0.0008750400
   0.0100366500   -0.0048720400    0.0007852800
   0.0099806100   -0.0048996800    0.0008238500
   0.0101176400   -0.0049170200    0.0003735700
  -0.1912497700   -0.0081013600   -0.1355197900
   0.0499899200   -0.0071978300   -0.0075485700
   0.0152544600   -0.0272749400   -0.0076058400
   0.0153520800    0.0128779800   -0.0075910100
   0.0153730000   -0.0073667100    0.0001732300
   0.0153698600   -0.0073595800    0.0000977700
   0.0153637100   -0.0073523000    0.0000963500
   0.0153766700   -0.0073534800    0.0000973500
  -0.0102071100    0.0067433600    0.0001045400
  -0.0099273600    0.0067587500    0.0001791700
  -0.0100789600    0.0065153300    0.0001272400
  -0.0100468300    0.0066665300   -0.0000227500
  -0.0091765400    0.0044413500    0.0000463100
  -0.0094606800    0.0044583400   -0.0000772600
  -0.0093311200    0.0046955200   -0.0000308500
  -0.0093207300    0.0045402700   -0.0001845600

17   
 -0.0033107472635549   0.0000012881476616  -0.0094360452996761
  -0.0060397500    0.0066387100   -0.0115023100
  -0.0321940200    0.0073375900   -0.0471805300
  -0.0761234600   -0.0186183300   -0.0475737500
  -0.0761372700    0.0320455300   -0.0467478500
  -0.0169187200    0.0062759500    0.0008859400
  -0.0169196300    0.0062767700    0.0008780000
  -0.0169196500    0.0062745800    0.0008751000
  -0.0169190000    0.0062746400    0.0008793700
   0.0141831600   -0.0090459300   -0.0010816100
   0.0141270300   -0.0090980200   -0.0011490600
   0.0141986000   -0.0090414500   -0.0011099200
   0.0140992500   -0.0090629400   -0.0006596500
   0.0130448700   -0.0064359600   -0.0012116100
   0.0131023500   -0.0065420800   -0.0011271100
   0.0131630500   -0.0065129600   -0.0011656400
   0.0130248300   -0.0064935600   -0.0007043900
   0.2103808300   -0.0069685300    0.1353886200
  -0.0308890100   -0.0060905400    0.0074932300
   0.0037439300    0.0139270000    0.0074292900
   0.0038372400   -0.0262070000    0.0076654300
   0.0163999400   -0.0060539900   -0.0001160900
   0.0164007600   -0.0060539500   -0.0000410600
   0.0164010300   -0.0060529100   -0.0000408800
   0.0164002300   -0.0060525300   -0.0000412900
  -0.0135167900    0.0086554600    0.0000132200
  -0.0137946800    0.0086424800   -0.0000583100
  -0.0136457000    0.0088883200   -0.0000139400
  -0.0136777800    0.0087352000    0.0001357800
  -0.0123526200    0.0061847200   -0.0001425300
  -0.0120678700    0.0061585100   -0.0000114700
  -0.0121896200    0.0059311800   -0.0000619400
  -0.0122015100    0.0060840300    0.0000969400
