       N       E                     dE             d eps       ncg     rms          rms(c)
DAV:   1     0.584156229680E+02    0.58416E+02   -0.89657E+03 10928   0.137E+03
DAV:   2    -0.347384674799E+02   -0.93154E+02   -0.85576E+02 15344   0.243E+02
DAV:   3    -0.392063312528E+02   -0.44679E+01   -0.44251E+01 13832   0.539E+01
DAV:   4    -0.392689146629E+02   -0.62583E-01   -0.62443E-01 13584   0.725E+00
DAV:   5    -0.392703257513E+02   -0.14111E-02   -0.14106E-02 13664   0.105E+00    0.781E+00
DAV:   6    -0.374400278870E+02    0.18303E+01   -0.18086E+00 12688   0.937E+00    0.410E+00
DAV:   7    -0.368521108704E+02    0.58792E+00   -0.19120E+00 13052   0.972E+00    0.692E-01
DAV:   8    -0.368616817525E+02   -0.95709E-02   -0.53641E-02 12524   0.160E+00    0.911E-02
DAV:   9    -0.368619008588E+02   -0.21911E-03   -0.13544E-03 13852   0.306E-01    0.402E-02
DAV:  10    -0.368620736243E+02   -0.17277E-03   -0.20091E-04 13304   0.123E-01    0.602E-03
DAV:  11    -0.368620756599E+02   -0.20356E-05   -0.38971E-06 13912   0.167E-02    0.189E-03
DAV:  12    -0.368620760675E+02   -0.40764E-06   -0.63076E-07  9556   0.687E-03
   1 F= -.37453385E+02 E0= -.37453385E+02  d E =-.374534E+02
