# Thermal properties / unit cell (natom)

unit:
  temperature:   K
  free_energy:   kJ/mol
  entropy:       J/K/mol
  heat_capacity: J/K/mol

natom:     4
num_modes: 3888
num_integrated_modes: 3870

zero_point_energy:      65.8057994
high_T_entropy:        229.4116952

thermal_properties:
- temperature:         0.0000000
  free_energy:        65.8057994
  entropy:             0.0000000
  heat_capacity:       0.0000000
  energy:             65.8057994

- temperature:        10.0000000
  free_energy:        65.8057861
  entropy:             0.0063935
  heat_capacity:       0.0200638
  energy:             65.8058501

- temperature:        20.0000000
  free_energy:        65.8055880
  entropy:             0.0362828
  heat_capacity:       0.0782328
  energy:             65.8063137

- temperature:        30.0000000
  free_energy:        65.8049878
  entropy:             0.0887198
  heat_capacity:       0.2067561
  energy:             65.8076494

- temperature:        40.0000000
  free_energy:        65.8036846
  entropy:             0.1795928
  heat_capacity:       0.4592989
  energy:             65.8108684

- temperature:        50.0000000
  free_energy:        65.8012267
  entropy:             0.3210242
  heat_capacity:       0.8443496
  energy:             65.8172779

- temperature:        60.0000000
  free_energy:        65.7970771
  entropy:             0.5184816
  heat_capacity:       1.3588223
  energy:             65.8281860

- temperature:        70.0000000
  free_energy:        65.7906611
  entropy:             0.7746880
  heat_capacity:       2.0038111
  energy:             65.8448893

- temperature:        80.0000000
  free_energy:        65.7813812
  entropy:             1.0915410
  heat_capacity:       2.7813125
  energy:             65.8687044

- temperature:        90.0000000
  free_energy:        65.7686238
  entropy:             1.4703128
  heat_capacity:       3.6895713
  energy:             65.9009520

- temperature:       100.0000000
  free_energy:        65.7517670
  entropy:             1.9114288
  heat_capacity:       4.7218900
  energy:             65.9429099

- temperature:       110.0000000
  free_energy:        65.7301891
  entropy:             2.4143495
  heat_capacity:       5.8674547
  energy:             65.9957676

- temperature:       120.0000000
  free_energy:        65.7032788
  entropy:             2.9776044
  heat_capacity:       7.1126790
  energy:             66.0605913

- temperature:       130.0000000
  free_energy:        65.6704434
  entropy:             3.5989213
  heat_capacity:       8.4425069
  energy:             66.1383032

- temperature:       140.0000000
  free_energy:        65.6311165
  entropy:             4.2753973
  heat_capacity:       9.8415383
  energy:             66.2296721

- temperature:       150.0000000
  free_energy:        65.5847628
  entropy:             5.0036819
  heat_capacity:      11.2949377
  energy:             66.3353150

- temperature:       160.0000000
  free_energy:        65.5308822
  entropy:             5.7801520
  heat_capacity:      12.7890981
  energy:             66.4557065

- temperature:       170.0000000
  free_energy:        65.4690116
  entropy:             6.6010659
  heat_capacity:      14.3120503
  energy:             66.5911928

- temperature:       180.0000000
  free_energy:        65.3987252
  entropy:             7.4626904
  heat_capacity:      15.8536415
  energy:             66.7420094

- temperature:       190.0000000
  free_energy:        65.3196342
  entropy:             8.3613977
  heat_capacity:      17.4055269
  energy:             66.9082997

- temperature:       200.0000000
  free_energy:        65.2313852
  entropy:             9.2937336
  heat_capacity:      18.9610290
  energy:             67.0901319

- temperature:       210.0000000
  free_energy:        65.1336582
  entropy:            10.2564599
  heat_capacity:      20.5149213
  energy:             67.2875148

- temperature:       220.0000000
  free_energy:        65.0261647
  entropy:            11.2465760
  heat_capacity:      22.0631774
  energy:             67.5004114

- temperature:       230.0000000
  free_energy:        64.9086446
  entropy:            12.2613245
  heat_capacity:      23.6027232
  energy:             67.7287492

- temperature:       240.0000000
  free_energy:        64.7808645
  entropy:            13.2981852
  heat_capacity:      25.1312092
  energy:             67.9724290

- temperature:       250.0000000
  free_energy:        64.6426149
  entropy:            14.3548623
  heat_capacity:      26.6468171
  energy:             68.2313305

- temperature:       260.0000000
  free_energy:        64.4937082
  entropy:            15.4292667
  heat_capacity:      28.1481039
  energy:             68.5053175

- temperature:       270.0000000
  free_energy:        64.3339768
  entropy:            16.5194963
  heat_capacity:      29.6338815
  energy:             68.7942408

- temperature:       280.0000000
  free_energy:        64.1632713
  entropy:            17.6238169
  heat_capacity:      31.1031291
  energy:             69.0979400

- temperature:       290.0000000
  free_energy:        63.9814588
  entropy:            18.7406429
  heat_capacity:      32.5549332
  energy:             69.4162453

- temperature:       300.0000000
  free_energy:        63.7884216
  entropy:            19.8685204
  heat_capacity:      33.9884486
  energy:             69.7489777

- temperature:       310.0000000
  free_energy:        63.5840560
  entropy:            21.0061115
  heat_capacity:      35.4028765
  energy:             70.0959506

- temperature:       320.0000000
  free_energy:        63.3682712
  entropy:            22.1521811
  heat_capacity:      36.7974535
  energy:             70.4569691

- temperature:       330.0000000
  free_energy:        63.1409880
  entropy:            23.3055851
  heat_capacity:      38.1714500
  energy:             70.8318311

- temperature:       340.0000000
  free_energy:        62.9021386
  entropy:            24.4652607
  heat_capacity:      39.5241722
  energy:             71.2203272

- temperature:       350.0000000
  free_energy:        62.6516652
  entropy:            25.6302178
  heat_capacity:      40.8549676
  energy:             71.6222414

- temperature:       360.0000000
  free_energy:        62.3895197
  entropy:            26.7995326
  heat_capacity:      42.1632318
  energy:             72.0373514

- temperature:       370.0000000
  free_energy:        62.1156629
  entropy:            27.9723412
  heat_capacity:      43.4484147
  energy:             72.4654291

- temperature:       380.0000000
  free_energy:        61.8300639
  entropy:            29.1478348
  heat_capacity:      44.7100263
  energy:             72.9062411

- temperature:       390.0000000
  free_energy:        61.5326998
  entropy:            30.3252561
  heat_capacity:      45.9476410
  energy:             73.3595496

- temperature:       400.0000000
  free_energy:        61.2235547
  entropy:            31.5038951
  heat_capacity:      47.1609012
  energy:             73.8251128

- temperature:       410.0000000
  free_energy:        60.9026200
  entropy:            32.6830866
  heat_capacity:      48.3495186
  energy:             74.3026855

- temperature:       420.0000000
  free_energy:        60.5698932
  entropy:            33.8622072
  heat_capacity:      49.5132750
  energy:             74.7920203

- temperature:       430.0000000
  free_energy:        60.2253781
  entropy:            35.0406734
  heat_capacity:      50.6520213
  energy:             75.2928676

- temperature:       440.0000000
  free_energy:        59.8690838
  entropy:            36.2179392
  heat_capacity:      51.7656755
  energy:             75.8049770

- temperature:       450.0000000
  free_energy:        59.5010250
  entropy:            37.3934944
  heat_capacity:      52.8542207
  energy:             76.3280974

- temperature:       460.0000000
  free_energy:        59.1212212
  entropy:            38.5668624
  heat_capacity:      53.9177010
  energy:             76.8619779

- temperature:       470.0000000
  free_energy:        58.7296965
  entropy:            39.7375994
  heat_capacity:      54.9562182
  energy:             77.4063682

- temperature:       480.0000000
  free_energy:        58.3264793
  entropy:            40.9052921
  heat_capacity:      55.9699275
  energy:             77.9610196

- temperature:       490.0000000
  free_energy:        57.9116021
  entropy:            42.0695565
  heat_capacity:      56.9590328
  energy:             78.5256848

- temperature:       500.0000000
  free_energy:        57.4851008
  entropy:            43.2300364
  heat_capacity:      57.9237828
  energy:             79.1001190

- temperature:       510.0000000
  free_energy:        57.0470151
  entropy:            44.3864022
  heat_capacity:      58.8644659
  energy:             79.6840802

- temperature:       520.0000000
  free_energy:        56.5973875
  entropy:            45.5383494
  heat_capacity:      59.7814063
  energy:             80.2773292

- temperature:       530.0000000
  free_energy:        56.1362638
  entropy:            46.6855974
  heat_capacity:      60.6749593
  energy:             80.8796304

- temperature:       540.0000000
  free_energy:        55.6636921
  entropy:            47.8278882
  heat_capacity:      61.5455074
  energy:             81.4907517

- temperature:       550.0000000
  free_energy:        55.1797233
  entropy:            48.9649852
  heat_capacity:      62.3934565
  energy:             82.1104652

- temperature:       560.0000000
  free_energy:        54.6844104
  entropy:            50.0966723
  heat_capacity:      63.2192320
  energy:             82.7385469

- temperature:       570.0000000
  free_energy:        54.1778086
  entropy:            51.2227523
  heat_capacity:      64.0232757
  energy:             83.3747774

- temperature:       580.0000000
  free_energy:        53.6599747
  entropy:            52.3430463
  heat_capacity:      64.8060423
  energy:             84.0189415

- temperature:       590.0000000
  free_energy:        53.1309675
  entropy:            53.4573922
  heat_capacity:      65.5679966
  energy:             84.6708289

- temperature:       600.0000000
  free_energy:        52.5908471
  entropy:            54.5656442
  heat_capacity:      66.3096112
  energy:             85.3302336

- temperature:       610.0000000
  free_energy:        52.0396753
  entropy:            55.6676714
  heat_capacity:      67.0313636
  energy:             85.9969549

- temperature:       620.0000000
  free_energy:        51.4775149
  entropy:            56.7633572
  heat_capacity:      67.7337345
  energy:             86.6707963

- temperature:       630.0000000
  free_energy:        50.9044297
  entropy:            57.8525982
  heat_capacity:      68.4172055
  energy:             87.3515666

- temperature:       640.0000000
  free_energy:        50.3204847
  entropy:            58.9353037
  heat_capacity:      69.0822575
  energy:             88.0390790

- temperature:       650.0000000
  free_energy:        49.7257456
  entropy:            60.0113943
  heat_capacity:      69.7293694
  energy:             88.7331519

- temperature:       660.0000000
  free_energy:        49.1202791
  entropy:            61.0808017
  heat_capacity:      70.3590162
  energy:             89.4336082

- temperature:       670.0000000
  free_energy:        48.5041521
  entropy:            62.1434679
  heat_capacity:      70.9716685
  energy:             90.1402756

- temperature:       680.0000000
  free_energy:        47.8774323
  entropy:            63.1993443
  heat_capacity:      71.5677911
  energy:             90.8529865

- temperature:       690.0000000
  free_energy:        47.2401880
  entropy:            64.2483911
  heat_capacity:      72.1478421
  energy:             91.5715778

- temperature:       700.0000000
  free_energy:        46.5924874
  entropy:            65.2905769
  heat_capacity:      72.7122722
  energy:             92.2958912

- temperature:       710.0000000
  free_energy:        45.9343994
  entropy:            66.3258779
  heat_capacity:      73.2615243
  energy:             93.0257727

- temperature:       720.0000000
  free_energy:        45.2659928
  entropy:            67.3542774
  heat_capacity:      73.7960327
  energy:             93.7610726

- temperature:       730.0000000
  free_energy:        44.5873369
  entropy:            68.3757654
  heat_capacity:      74.3162228
  energy:             94.5016456

- temperature:       740.0000000
  free_energy:        43.8985006
  entropy:            69.3903380
  heat_capacity:      74.8225108
  energy:             95.2473507

- temperature:       750.0000000
  free_energy:        43.1995532
  entropy:            70.3979969
  heat_capacity:      75.3153032
  energy:             95.9980508

- temperature:       760.0000000
  free_energy:        42.4905637
  entropy:            71.3987493
  heat_capacity:      75.7949970
  energy:             96.7536131

- temperature:       770.0000000
  free_energy:        41.7716012
  entropy:            72.3926068
  heat_capacity:      76.2619792
  energy:             97.5139084

- temperature:       780.0000000
  free_energy:        41.0427345
  entropy:            73.3795860
  heat_capacity:      76.7166270
  energy:             98.2788116

- temperature:       790.0000000
  free_energy:        40.3040323
  entropy:            74.3597073
  heat_capacity:      77.1593076
  energy:             99.0482011

- temperature:       800.0000000
  free_energy:        39.5555631
  entropy:            75.3329949
  heat_capacity:      77.5903783
  energy:             99.8219590

- temperature:       810.0000000
  free_energy:        38.7973951
  entropy:            76.2994766
  heat_capacity:      78.0101865
  energy:            100.5999711

- temperature:       820.0000000
  free_energy:        38.0295962
  entropy:            77.2591832
  heat_capacity:      78.4190698
  energy:            101.3821263

- temperature:       830.0000000
  free_energy:        37.2522339
  entropy:            78.2121485
  heat_capacity:      78.8173560
  energy:            102.1683172

- temperature:       840.0000000
  free_energy:        36.4653755
  entropy:            79.1584091
  heat_capacity:      79.2053634
  energy:            102.9584392

- temperature:       850.0000000
  free_energy:        35.6690879
  entropy:            80.0980039
  heat_capacity:      79.5834010
  energy:            103.7523912

- temperature:       860.0000000
  free_energy:        34.8634375
  entropy:            81.0309738
  heat_capacity:      79.9517682
  energy:            104.5500750

- temperature:       870.0000000
  free_energy:        34.0484904
  entropy:            81.9573620
  heat_capacity:      80.3107557
  energy:            105.3513953

- temperature:       880.0000000
  free_energy:        33.2243121
  entropy:            82.8772133
  heat_capacity:      80.6606451
  energy:            106.1562598

- temperature:       890.0000000
  free_energy:        32.3909678
  entropy:            83.7905742
  heat_capacity:      81.0017091
  energy:            106.9645788

- temperature:       900.0000000
  free_energy:        31.5485221
  entropy:            84.6974926
  heat_capacity:      81.3342123
  energy:            107.7762654

- temperature:       910.0000000
  free_energy:        30.6970392
  entropy:            85.5980177
  heat_capacity:      81.6584107
  energy:            108.5912354

- temperature:       920.0000000
  free_energy:        29.8365829
  entropy:            86.4921999
  heat_capacity:      81.9745524
  energy:            109.4094068

- temperature:       930.0000000
  free_energy:        28.9672162
  entropy:            87.3800905
  heat_capacity:      82.2828774
  energy:            110.2307003

- temperature:       940.0000000
  free_energy:        28.0890019
  entropy:            88.2617417
  heat_capacity:      82.5836183
  energy:            111.0550391

- temperature:       950.0000000
  free_energy:        27.2020020
  entropy:            89.1372065
  heat_capacity:      82.8770001
  energy:            111.8823482

- temperature:       960.0000000
  free_energy:        26.3062782
  entropy:            90.0065386
  heat_capacity:      83.1632407
  energy:            112.7125552

- temperature:       970.0000000
  free_energy:        25.4018915
  entropy:            90.8697922
  heat_capacity:      83.4425507
  energy:            113.5455899

- temperature:       980.0000000
  free_energy:        24.4889024
  entropy:            91.7270219
  heat_capacity:      83.7151343
  energy:            114.3813838

- temperature:       990.0000000
  free_energy:        23.5673709
  entropy:            92.5782827
  heat_capacity:      83.9811887
  energy:            115.2198708

- temperature:      1000.0000000
  free_energy:        22.6373565
  entropy:            93.4236300
  heat_capacity:      84.2409050
  energy:            116.0609865
