   32   32    1    1
  0.9079817E+01  0.4932875E-09  0.4932875E-09  0.1379404E-08  0.5000000E-15
  1.000000000000000E-004
  CAR 
 graphite                                
    128    163     84
 
  0.0000000E+00  0.0000000E+00  0.0000000E+00  0.3086420E-02
    1      -15.167203
    2      -15.050055
    3      -15.049269
    4      -14.925413
    5       -9.858844
    6       -9.850298
    7       -9.847719
    8       -9.811729
    9       -9.811655
   10       -9.803918
   11       -9.799999
   12       -9.799959
   13       -9.798396
   14       -9.770718
   15       -9.760293
   16       -9.757245
   17       -8.791365
   18       -8.787722
   19       -8.785810
   20       -8.765952
   21       -8.761992
   22       -8.760345
   23       -8.759380
   24       -8.759345
   25       -8.756221
   26       -8.724121
   27       -8.719550
   28       -8.717426
   29       -3.950110
   30       -3.176666
   31       -3.175086
   32       -2.245075
   33       -1.963927
   34       -1.961189
   35       -1.944583
   36       -1.942224
   37       -1.940130
   38       -1.940124
   39       -1.939358
   40       -1.921426
   41       -1.921229
   42       -1.920242
   43       -1.917657
   44       -1.899106
   45        1.422150
   46        1.432162
   47        1.436576
   48        1.441825
   49        1.446805
   50        1.452722
   51        1.455741
   52        1.465865
   53        1.744966
   54        1.745561
   55        1.747302
   56        2.081648
   57        2.083397
   58        2.085520
   59        2.089588
   60        2.089750
   61        2.091059
   62        2.327652
   63        2.339953
   64        2.342607
   65        5.946768
   66        5.949165
   67        5.950471
   68        6.092459
   69        6.097915
   70        6.102415
   71        6.103449
   72        6.103673
   73        6.108277
   74        6.545537
   75        6.558405
   76        6.560796
   77        8.527284
   78       10.953276
   79       10.956687
   80       11.669562
   81       11.673856
   82       11.707134
   83       11.831095
   84       11.839192
 
  0.1111111E+00  0.0000000E+00  0.0000000E+00  0.6172840E-02
    1      -15.093606
    2      -14.976984
    3      -14.976202
    4      -14.852933
    5      -10.639324
    6      -10.557029
    7      -10.556045
    8      -10.471164
    9      -10.103029
   10      -10.094726
   11      -10.032436
   12      -10.031806
   13      -10.023276
   14      -10.022991
   15       -9.960634
   16       -9.951447
   17       -8.480573
   18       -8.474041
   19       -8.424982
   20       -8.421723
   21       -8.416745
   22       -8.416240
   23       -8.361065
   24       -8.354100
   25       -7.958960
   26       -7.894878
   27       -7.893647
   28       -7.826901
   29       -3.860866
   30       -3.089605
   31       -3.088023
   32       -2.188056
   33       -2.168930
   34       -2.164517
   35       -2.163948
   36       -2.160918
   37       -2.145615
   38       -2.144242
   39       -2.139892
   40       -2.120563
   41       -1.890623
   42       -1.871024
   43       -1.867882
   44       -1.848096
   45        1.141375
   46        1.150324
   47        1.152679
   48        1.161140
   49        1.171843
   50        1.270669
   51        1.279861
   52        1.284347
   53        1.291438
   54        1.633555
   55        1.636091
   56        1.660259
   57        1.662989
   58        2.030104
   59        2.031680
   60        2.036618
   61        2.038405
   62        2.153443
   63        2.367099
   64        2.379047
   65        6.033683
   66        6.036148
   67        6.223626
   68        6.228978
   69        6.233845
   70        6.235280
   71        6.350861
   72        6.644015
   73        6.647195
   74        6.680327
   75        6.691735
   76        7.150222
   77        8.617138
   78       11.033667
   79       11.037036
   80       11.711289
   81       11.865520
   82       11.867451
   83       12.005720
   84       12.035885
 
  0.2222222E+00  0.0000000E+00  0.0000000E+00  0.6172840E-02
    1      -14.873231
    2      -14.758112
    3      -14.757339
    4      -14.635821
    5      -11.648774
    6      -11.556532
    7      -11.555809
    8      -11.459888
    9      -10.448214
   10      -10.442480
   11      -10.367788
   12      -10.366674
   13      -10.361216
   14      -10.360921
   15      -10.283322
   16      -10.277272
   17       -7.798287
   18       -7.789033
   19       -7.737236
   20       -7.734349
   21       -7.726734
   22       -7.726097
   23       -7.670498
   24       -7.661211
   25       -6.634105
   26       -6.574486
   27       -6.573391
   28       -6.511823
   29       -3.593946
   30       -2.829250
   31       -2.827656
   32       -2.793558
   33       -2.775366
   34       -2.764475
   35       -2.763845
   36       -2.746627
   37       -2.744932
   38       -2.733985
   39       -2.715561
   40       -1.909945
   41       -1.675831
   42       -1.656587
   43       -1.653307
   44       -1.634008
   45        0.159953
   46        0.316856
   47        0.332002
   48        0.335390
   49        0.351378
   50        0.771108
   51        0.773219
   52        0.851831
   53        0.863428
   54        0.868238
   55        0.878668
   56        1.420495
   57        1.423637
   58        1.461246
   59        1.909211
   60        1.910294
   61        1.914423
   62        1.916277
   63        2.398955
   64        2.407214
   65        6.298210
   66        6.302670
   67        6.557863
   68        6.562994
   69        6.567595
   70        6.569079
   71        6.992131
   72        7.000296
   73        7.502687
   74        7.866338
   75        7.868738
   76        8.362249
   77        8.887341
   78       11.274098
   79       11.277328
   80       11.824803
   81       11.973808
   82       11.975908
   83       12.104823
   84       12.880757
 
  0.3333333E+00  0.2775558E-16  0.0000000E+00  0.6172840E-02
    1      -14.507193
    2      -14.394606
    3      -14.393847
    4      -14.275207
    5      -12.560673
    6      -12.461834
    7      -12.461148
    8      -12.357595
    9      -10.703867
   10      -10.700258
   11      -10.619812
   12      -10.618337
   13      -10.615194
   14      -10.614940
   15      -10.530918
   16      -10.527178
   17       -6.991272
   18       -6.980587
   19       -6.935287
   20       -6.932277
   21       -6.923556
   22       -6.922618
   23       -6.874566
   24       -6.864087
   25       -5.201915
   26       -5.150500
   27       -5.149217
   28       -5.096521
   29       -3.607818
   30       -3.591942
   31       -3.573108
   32       -3.572820
   33       -3.557803
   34       -3.555936
   35       -3.536995
   36       -3.520820
   37       -3.152075
   38       -2.398931
   39       -2.397336
   40       -1.495958
   41       -1.326856
   42       -1.308668
   43       -1.305176
   44       -1.286603
   45       -0.867578
   46       -0.856036
   47       -0.843195
   48       -0.839370
   49       -0.816156
   50       -0.182588
   51       -0.180767
   52        0.290153
   53        0.304048
   54        0.308552
   55        0.322019
   56        0.603430
   57        1.234705
   58        1.237377
   59        1.785429
   60        1.786232
   61        1.789056
   62        1.791200
   63        2.385268
   64        2.390364
   65        6.667853
   66        6.673294
   67        6.949181
   68        6.954137
   69        6.957389
   70        6.958940
   71        7.310343
   72        7.315167
   73        9.010875
   74        9.333322
   75        9.344232
   76        9.350045
   77        9.777795
   78       11.662423
   79       11.665306
   80       11.682596
   81       12.057515
   82       12.137486
   83       12.139870
   84       12.384606
 
  0.4444444E+00  0.0000000E+00  0.0000000E+00  0.6172840E-02
    1      -13.997308
    2      -13.888302
    3      -13.887551
    4      -13.772921
    5      -13.346689
    6      -13.242297
    7      -13.241612
    8      -13.132061
    9      -10.835546
   10      -10.833564
   11      -10.750449
   12      -10.748433
   13      -10.747388
   14      -10.746826
   15      -10.659431
   16      -10.657386
   17       -6.244087
   18       -6.236167
   19       -6.204497
   20       -6.200798
   21       -6.195904
   22       -6.194047
   23       -6.161204
   24       -6.154156
   25       -4.356627
   26       -4.347898
   27       -4.328078
   28       -4.327197
   29       -4.319479
   30       -4.317159
   31       -4.295637
   32       -4.285993
   33       -3.722540
   34       -3.680432
   35       -3.678756
   36       -3.635674
   37       -2.540486
   38       -2.251929
   39       -2.219229
   40       -2.217068
   41       -2.183428
   42       -1.804452
   43       -1.802702
   44       -1.768597
   45       -1.058353
   46       -1.056636
   47       -0.926555
   48       -0.861062
   49       -0.843695
   50       -0.839883
   51       -0.822531
   52       -0.306129
   53       -0.290254
   54       -0.286217
   55       -0.270303
   56       -0.216661
   57        1.131551
   58        1.133521
   59        1.710878
   60        1.712109
   61        1.713192
   62        1.715929
   63        2.363310
   64        2.366090
   65        6.957535
   66        6.961079
   67        7.216588
   68        7.221677
   69        7.222651
   70        7.223890
   71        7.492378
   72        7.495256
   73        9.966589
   74       10.628695
   75       10.765944
   76       10.880161
   77       10.883483
   78       11.244210
   79       12.046716
   80       12.054691
   81       12.215976
   82       12.273129
   83       12.310600
   84       12.313645
 
  0.0000000E+00  0.1111111E+00  0.0000000E+00  0.6172840E-02
    1      -15.093607
    2      -14.976987
    3      -14.976202
    4      -14.852935
    5      -10.639250
    6      -10.556863
    7      -10.556041
    8      -10.471066
    9      -10.103037
   10      -10.094996
   11      -10.032435
   12      -10.031800
   13      -10.023834
   14      -10.023037
   15       -9.960594
   16       -9.951837
   17       -8.480688
   18       -8.472858
   19       -8.425273
   20       -8.421723
   21       -8.416252
   22       -8.414132
   23       -8.361159
   24       -8.352747
   25       -7.959866
   26       -7.895530
   27       -7.894858
   28       -7.827860
   29       -3.860861
   30       -3.089598
   31       -3.088020
   32       -2.189340
   33       -2.168748
   34       -2.166929
   35       -2.163950
   36       -2.160914
   37       -2.145615
   38       -2.144080
   39       -2.141374
   40       -2.120732
   41       -1.889179
   42       -1.868514
   43       -1.867881
   44       -1.846966
   45        1.139102
   46        1.147650
   47        1.150324
   48        1.158625
   49        1.170962
   50        1.275524
   51        1.284347
   52        1.284634
   53        1.293420
   54        1.633323
   55        1.635284
   56        1.661828
   57        1.663316
   58        2.029943
   59        2.031792
   60        2.034976
   61        2.037651
   62        2.154634
   63        2.367157
   64        2.377596
   65        6.034395
   66        6.037527
   67        6.223971
   68        6.228957
   69        6.234589
   70        6.238287
   71        6.348959
   72        6.642955
   73        6.644727
   74        6.680481
   75        6.693673
   76        7.148582
   77        8.617143
   78       11.033687
   79       11.037055
   80       11.711785
   81       11.866880
   82       11.867515
   83       12.011024
   84       12.031629
 
  0.1111111E+00  0.1111111E+00  0.0000000E+00  0.6172840E-02
    1      -14.946527
    2      -14.830891
    3      -14.830116
    4      -14.708013
    5      -11.103832
    6      -11.100892
    7      -11.017649
    8      -11.013957
    9      -11.013932
   10      -11.011729
   11      -10.924220
   12      -10.921214
   13       -9.669821
   14       -9.623729
   15       -9.623013
   16       -9.583466
   17       -8.607166
   18       -8.582727
   19       -8.579025
   20       -8.543064
   21       -7.276948
   22       -7.273885
   23       -7.215755
   24       -7.212718
   25       -7.212694
   26       -7.209388
   27       -7.149033
   28       -7.145683
   29       -3.682662
   30       -2.915771
   31       -2.914185
   32       -2.850628
   33       -2.821573
   34       -2.820053
   35       -2.790415
   36       -2.044836
   37       -2.041911
   38       -2.023347
   39       -2.018980
   40       -2.018974
   41       -2.018242
   42       -1.997392
   43       -1.995045
   44       -1.993266
   45        0.612729
   46        0.621549
   47        0.624618
   48        0.634747
   49        0.740079
   50        0.742722
   51        0.955392
   52        0.964247
   53        0.968526
   54        0.974997
   55        1.300168
   56        1.303814
   57        1.303886
   58        1.305500
   59        1.910627
   60        1.913085
   61        2.012681
   62        2.347872
   63        2.350306
   64        2.589805
   65        5.924740
   66        6.019830
   67        6.024777
   68        6.385732
   69        6.845030
   70        6.847673
   71        7.184607
   72        7.186483
   73        7.186840
   74        7.190270
   75        7.676818
   76        7.679229
   77        8.797471
   78       11.195040
   79       11.198324
   80       12.083126
   81       12.087002
   82       12.236470
   83       12.240994
   84       12.244114
 
  0.2222222E+00  0.1111111E+00  0.0000000E+00  0.6172840E-02
    1      -14.653195
    2      -14.539609
    3      -14.538848
    4      -14.419049
    5      -12.067955
    6      -11.972595
    7      -11.971869
    8      -11.872509
    9      -11.444178
   10      -11.353719
   11      -11.352929
   12      -11.258457
   13       -9.717551
   14       -9.649460
   15       -9.649259
   16       -9.580812
   17       -8.134162
   18       -8.082599
   19       -8.079389
   20       -8.023290
   21       -6.492999
   22       -6.435971
   23       -6.434928
   24       -6.376431
   25       -5.894330
   26       -5.839292
   27       -5.838172
   28       -5.781930
   29       -3.757589
   30       -3.721827
   31       -3.720345
   32       -3.683678
   33       -3.328082
   34       -2.570290
   35       -2.568716
   36       -2.568379
   37       -2.540367
   38       -2.540052
   39       -2.511259
   40       -1.757958
   41       -1.736833
   42       -1.733621
   43       -1.712294
   44       -1.660520
   45       -0.340330
   46       -0.324629
   47       -0.321335
   48       -0.305901
   49       -0.291832
   50        0.350679
   51        0.352681
   52        0.407267
   53        0.414934
   54        0.424402
   55        0.429017
   56        0.439282
   57        1.015183
   58        1.016598
   59        1.094122
   60        1.698322
   61        2.153712
   62        2.550379
   63        2.552674
   64        2.886699
   65        5.909983
   66        6.027963
   67        6.032724
   68        6.337368
   69        7.424282
   70        7.754794
   71        7.756981
   72        8.174349
   73        8.209507
   74        8.556968
   75        8.558952
   76        9.004423
   77        9.158962
   78       11.515838
   79       11.518919
   80       12.166910
   81       12.349770
   82       12.375504
   83       12.377609
   84       12.692748
 
  0.3333333E+00  0.1111111E+00  0.0000000E+00  0.6172840E-02
    1      -14.215082
    2      -14.104582
    3      -14.103839
    4      -13.987503
    5      -12.917405
    6      -12.816016
    7      -12.815308
    8      -12.709074
    9      -11.652865
   10      -11.560761
   11      -11.559937
   12      -11.463670
   13       -9.860175
   14       -9.783977
   15       -9.783492
   16       -9.704895
   17       -7.367951
   18       -7.316512
   19       -7.313442
   20       -7.260299
   21       -5.695584
   22       -5.649089
   23       -5.647356
   24       -5.600109
   25       -4.695642
   26       -4.658151
   27       -4.656524
   28       -4.617333
   29       -4.446210
   30       -4.400215
   31       -4.398893
   32       -4.351877
   33       -3.266576
   34       -3.236039
   35       -3.235526
   36       -3.203616
   37       -2.801010
   38       -2.057744
   39       -2.056159
   40       -1.585154
   41       -1.558858
   42       -1.555845
   43       -1.530048
   44       -1.341866
   45       -1.322030
   46       -1.318657
   47       -1.298669
   48       -1.264505
   49       -1.168226
   50       -0.572970
   51       -0.571255
   52       -0.210014
   53       -0.195032
   54       -0.190222
   55       -0.175564
   56        0.202457
   57        0.241399
   58        0.831084
   59        0.832473
   60        1.553963
   61        2.159040
   62        2.640783
   63        2.642695
   64        3.130949
   65        5.929646
   66        6.147177
   67        6.151333
   68        6.437958
   69        7.930084
   70        8.208859
   71        8.211501
   72        8.517283
   73        9.699485
   74        9.772394
   75       10.062495
   76       10.064682
   77       10.435607
   78       11.299255
   79       11.968306
   80       11.971374
   81       12.474598
   82       12.539669
   83       12.542087
   84       12.766964
 
  0.4444444E+00  0.1111111E+00  0.0000000E+00  0.6172840E-02
    1      -13.636762
    2      -13.633858
    3      -13.531594
    4      -13.528618
    5      -13.527655
    6      -13.525983
    7      -13.417754
    8      -13.414786
    9      -11.723413
   10      -11.630824
   11      -11.629982
   12      -11.533174
   13       -9.914773
   14       -9.837052
   15       -9.836399
   16       -9.755884
   17       -6.861548
   18       -6.829268
   19       -6.826334
   20       -6.795625
   21       -5.227235
   22       -5.222213
   23       -5.202317
   24       -5.201896
   25       -5.199758
   26       -5.197515
   27       -5.176024
   28       -5.172086
   29       -3.683591
   30       -3.665675
   31       -3.663387
   32       -3.642041
   33       -2.988753
   34       -2.985660
   35       -2.952181
   36       -2.951984
   37       -2.950016
   38       -2.946099
   39       -2.914025
   40       -2.910064
   41       -2.110076
   42       -2.107694
   43       -1.388795
   44       -1.385665
   45       -1.384879
   46       -1.383267
   47       -0.818670
   48       -0.811549
   49       -0.799862
   50       -0.793445
   51       -0.791621
   52       -0.791238
   53       -0.775849
   54       -0.772038
   55       -0.528889
   56       -0.526223
   57        0.131392
   58        0.767420
   59        0.768814
   60        1.502701
   61        2.150173
   62        2.663949
   63        2.665491
   64        3.218839
   65        5.953229
   66        6.215285
   67        6.218582
   68        6.494140
   69        8.145860
   70        8.385363
   71        8.388531
   72        8.627859
   73       10.416287
   74       10.417868
   75       11.356900
   76       11.360288
   77       11.546240
   78       11.550046
   79       11.551196
   80       11.555925
   81       11.861007
   82       11.864010
   83       12.529770
   84       12.533315
 
 -0.4444444E+00  0.1111111E+00  0.0000000E+00  0.6172840E-02
    1      -14.215862
    2      -14.105357
    3      -14.104591
    4      -13.988270
    5      -12.916200
    6      -12.814795
    7      -12.814121
    8      -12.707933
    9      -11.654648
   10      -11.562496
   11      -11.561652
   12      -11.465467
   13       -9.857478
   14       -9.781264
   15       -9.780545
   16       -9.701926
   17       -7.359581
   18       -7.307388
   19       -7.305982
   20       -7.252122
   21       -5.706934
   22       -5.660902
   23       -5.657745
   24       -5.610952
   25       -4.707800
   26       -4.669776
   27       -4.669664
   28       -4.630065
   29       -4.448430
   30       -4.402596
   31       -4.400930
   32       -4.354076
   33       -3.252187
   34       -3.222227
   35       -3.220020
   36       -3.188713
   37       -2.801754
   38       -2.058450
   39       -2.056902
   40       -1.585035
   41       -1.558238
   42       -1.556593
   43       -1.530512
   44       -1.339846
   45       -1.320120
   46       -1.316379
   47       -1.296553
   48       -1.263444
   49       -1.168925
   50       -0.571964
   51       -0.570175
   52       -0.209635
   53       -0.194696
   54       -0.191213
   55       -0.176154
   56        0.201043
   57        0.242340
   58        0.829399
   59        0.830838
   60        1.551901
   61        2.159969
   62        2.643494
   63        2.644882
   64        3.136324
   65        5.931222
   66        6.150931
   67        6.153406
   68        6.439809
   69        7.924620
   70        8.203718
   71        8.207328
   72        8.514635
   73        9.698473
   74        9.772646
   75       10.061971
   76       10.064379
   77       10.434675
   78       11.300748
   79       11.967785
   80       11.970824
   81       12.471267
   82       12.536441
   83       12.539558
   84       12.762559
 
 -0.3333333E+00  0.1111111E+00  0.0000000E+00  0.6172840E-02
    1      -14.653738
    2      -14.540157
    3      -14.539381
    4      -14.419601
    5      -12.066397
    6      -11.971217
    7      -11.970537
    8      -11.871085
    9      -11.447769
   10      -11.357346
   11      -11.356525
   12      -11.262092
   13       -9.711671
   14       -9.643430
   15       -9.642690
   16       -9.574010
   17       -8.127308
   18       -8.074271
   19       -8.073404
   20       -8.015903
   21       -6.504570
   22       -6.448259
   23       -6.445592
   24       -6.387805
   25       -5.896638
   26       -5.841719
   27       -5.840463
   28       -5.784229
   29       -3.773412
   30       -3.737271
   31       -3.736726
   32       -3.699685
   33       -3.328623
   34       -2.570726
   35       -2.569144
   36       -2.550339
   37       -2.522801
   38       -2.520925
   39       -2.492760
   40       -1.756258
   41       -1.735220
   42       -1.731783
   43       -1.710559
   44       -1.661031
   45       -0.344088
   46       -0.327545
   47       -0.326741
   48       -0.310685
   49       -0.291271
   50        0.351762
   51        0.353845
   52        0.406215
   53        0.419075
   54        0.429319
   55        0.431710
   56        0.442635
   57        1.011886
   58        1.013432
   59        1.095072
   60        1.694136
   61        2.154673
   62        2.555391
   63        2.556857
   64        2.897313
   65        5.910053
   66        6.034293
   67        6.036247
   68        6.343447
   69        7.417120
   70        7.746414
   71        7.750325
   72        8.168232
   73        8.209198
   74        8.556044
   75        8.558308
   76        9.003228
   77        9.158217
   78       11.515212
   79       11.518285
   80       12.165676
   81       12.349137
   82       12.372996
   83       12.375480
   84       12.691492
 
 -0.2222222E+00  0.1111111E+00  0.0000000E+00  0.6172840E-02
    1      -14.946858
    2      -14.831229
    3      -14.830444
    4      -14.708348
    5      -11.107734
    6      -11.100709
    7      -11.020176
    8      -11.019425
    9      -11.013121
   10      -11.012340
   11      -10.928457
   12      -10.921201
   13       -9.660097
   14       -9.613149
   15       -9.612420
   16       -9.571837
   17       -8.604024
   18       -8.577594
   19       -8.576887
   20       -8.538846
   21       -7.285724
   22       -7.277057
   23       -7.224180
   24       -7.221680
   25       -7.214881
   26       -7.213751
   27       -7.157766
   28       -7.149174
   29       -3.682990
   30       -2.916089
   31       -2.914514
   32       -2.868372
   33       -2.839056
   34       -2.838345
   35       -2.808344
   36       -2.042820
   37       -2.023005
   38       -2.021003
   39       -2.017788
   40       -2.000512
   41       -1.998735
   42       -1.995796
   43       -1.993593
   44       -1.975949
   45        0.600891
   46        0.610249
   47        0.611599
   48        0.620650
   49        0.737968
   50        0.742227
   51        0.970671
   52        0.977986
   53        0.978369
   54        0.986338
   55        1.298079
   56        1.299831
   57        1.302857
   58        1.305306
   59        1.905886
   60        1.912117
   61        2.013406
   62        2.354310
   63        2.355890
   64        2.603625
   65        5.923294
   66        6.027632
   67        6.029400
   68        6.395844
   69        6.839149
   70        6.846843
   71        7.175656
   72        7.179815
   73        7.185581
   74        7.188426
   75        7.668659
   76        7.677514
   77        8.797010
   78       11.194610
   79       11.197891
   80       12.082864
   81       12.118787
   82       12.239931
   83       12.255237
   84       12.275011
 
 -0.1111111E+00  0.1111111E+00  0.0000000E+00  0.6172840E-02
    1      -15.093716
    2      -14.977098
    3      -14.976309
    4      -14.853043
    5      -10.646634
    6      -10.564289
    7      -10.563693
    8      -10.478712
    9      -10.094608
   10      -10.092484
   11      -10.024923
   12      -10.021654
   13      -10.021622
   14      -10.020463
   15       -9.951608
   16       -9.949280
   17       -8.475983
   18       -8.474175
   19       -8.419238
   20       -8.417866
   21       -8.417843
   22       -8.415519
   23       -8.356181
   24       -8.354277
   25       -7.967529
   26       -7.904113
   27       -7.901565
   28       -7.835555
   29       -3.860971
   30       -3.089704
   31       -3.088130
   32       -2.189687
   33       -2.187051
   34       -2.167760
   35       -2.163555
   36       -2.163548
   37       -2.163161
   38       -2.161012
   39       -2.141516
   40       -2.139408
   41       -1.869549
   42       -1.849286
   43       -1.847530
   44       -1.826996
   45        1.122413
   46        1.133073
   47        1.138198
   48        1.146030
   49        1.166266
   50        1.288652
   51        1.296504
   52        1.299746
   53        1.309967
   54        1.635109
   55        1.637128
   56        1.655747
   57        1.657820
   58        2.033416
   59        2.037850
   60        2.038001
   61        2.038778
   62        2.145664
   63        2.377097
   64        2.379663
   65        6.034986
   66        6.037872
   67        6.232532
   68        6.234052
   69        6.234274
   70        6.238702
   71        6.344912
   72        6.633439
   73        6.637909
   74        6.690657
   75        6.693122
   76        7.138706
   77        8.616987
   78       11.033534
   79       11.036901
   80       11.746368
   81       11.901506
   82       11.902164
   83       12.007626
   84       12.017209
 
  0.0000000E+00  0.2222222E+00  0.0000000E+00  0.6172840E-02
    1      -14.873238
    2      -14.758124
    3      -14.757340
    4      -14.635827
    5      -11.648810
    6      -11.556599
    7      -11.555811
    8      -11.459921
    9      -10.448370
   10      -10.442436
   11      -10.368240
   12      -10.366676
   13      -10.361053
   14      -10.360769
   15      -10.283406
   16      -10.277227
   17       -7.798448
   18       -7.787993
   19       -7.737614
   20       -7.734349
   21       -7.726111
   22       -7.724279
   23       -7.670550
   24       -7.659970
   25       -6.634949
   26       -6.575172
   27       -6.574468
   28       -6.512743
   29       -3.593927
   30       -2.829219
   31       -2.827643
   32       -2.794834
   33       -2.775415
   34       -2.766796
   35       -2.763847
   36       -2.746627
   37       -2.745111
   38       -2.735151
   39       -2.715709
   40       -1.909917
   41       -1.674314
   42       -1.653991
   43       -1.653306
   44       -1.632851
   45        0.160389
   46        0.315203
   47        0.331085
   48        0.332003
   49        0.348217
   50        0.771972
   51        0.773453
   52        0.855539
   53        0.867675
   54        0.868239
   55        0.880324
   56        1.420046
   57        1.423129
   58        1.461973
   59        1.908614
   60        1.910006
   61        1.913888
   62        1.915458
   63        2.398853
   64        2.405973
   65        6.298450
   66        6.304479
   67        6.558318
   68        6.562979
   69        6.568484
   70        6.571836
   71        6.992392
   72        7.002138
   73        7.501214
   74        7.865359
   75        7.867124
   76        8.361006
   77        8.887354
   78       11.274170
   79       11.277396
   80       11.825381
   81       11.974922
   82       11.975943
   83       12.105382
   84       12.865035
 
  0.1111111E+00  0.2222222E+00  0.0000000E+00  0.6172840E-02
    1      -14.653200
    2      -14.539617
    3      -14.538849
    4      -14.419053
    5      -12.068007
    6      -11.972695
    7      -11.971872
    8      -11.872560
    9      -11.444141
   10      -11.353651
   11      -11.352928
   12      -11.258424
   13       -9.717542
   14       -9.649454
   15       -9.649250
   16       -9.580805
   17       -8.134105
   18       -8.082484
   19       -8.079389
   20       -8.023230
   21       -6.492049
   22       -6.434941
   23       -6.433982
   24       -6.375405
   25       -5.895259
   26       -5.840137
   27       -5.839278
   28       -5.782953
   29       -3.757661
   30       -3.721827
   31       -3.720503
   32       -3.683766
   33       -3.328067
   34       -2.570494
   35       -2.569709
   36       -2.568565
   37       -2.542990
   38       -2.540058
   39       -2.512495
   40       -1.756403
   41       -1.734090
   42       -1.733619
   43       -1.711045
   44       -1.660497
   45       -0.341026
   46       -0.324630
   47       -0.323298
   48       -0.307348
   49       -0.291800