       N       E                     dE             d eps       ncg     rms          rms(c)
DAV:   1     0.604715823324E+03    0.60472E+03   -0.71436E+04 27384   0.159E+03
DAV:   2    -0.261694943960E+03   -0.86641E+03   -0.83499E+03 34092   0.312E+02
DAV:   3    -0.312945587555E+03   -0.51251E+02   -0.50767E+02 33240   0.765E+01
DAV:   4    -0.313934265092E+03   -0.98868E+00   -0.98685E+00 35064   0.115E+01
DAV:   5    -0.313963104967E+03   -0.28840E-01   -0.28828E-01 35352   0.182E+00    0.221E+01
DAV:   6    -0.299394309096E+03    0.14569E+02   -0.15000E+01 31296   0.107E+01    0.116E+01
DAV:   7    -0.294745647373E+03    0.46487E+01   -0.15920E+01 30876   0.110E+01    0.195E+00
DAV:   8    -0.294814866565E+03   -0.69219E-01   -0.42651E-01 30780   0.189E+00    0.349E-01
DAV:   9    -0.294815514692E+03   -0.64813E-03   -0.27367E-02 32436   0.541E-01    0.191E-01
DAV:  10    -0.294815582050E+03   -0.67358E-04   -0.79162E-03 33912   0.236E-01    0.115E-01
DAV:  11    -0.294816749854E+03   -0.11678E-02   -0.90283E-03 35364   0.234E-01    0.113E-01
DAV:  12    -0.294816591790E+03    0.15806E-03   -0.13902E-03 30996   0.123E-01    0.768E-02
DAV:  13    -0.294816878637E+03   -0.28685E-03   -0.57878E-03 45996   0.164E-01    0.976E-02
DAV:  14    -0.294816754981E+03    0.12366E-03   -0.27280E-03 31500   0.126E-01    0.265E-02
DAV:  15    -0.294816755410E+03   -0.42827E-06   -0.16883E-04 31236   0.396E-02    0.985E-03
DAV:  16    -0.294816755373E+03    0.36784E-07   -0.16439E-05 32712   0.110E-02    0.503E-03
DAV:  17    -0.294816755691E+03   -0.31782E-06   -0.82479E-06 22248   0.666E-03
   1 F= -.29965690E+03 E0= -.29965690E+03  d E =0.000000E+00
