Automatically generated mesh
     194
Reciprocal lattice
    0.00000000000000    0.00000000000000    0.00000000000000             1
    0.08333333333333    0.00000000000000    0.00000000000000             4
    0.16666666666667    0.00000000000000    0.00000000000000             4
    0.25000000000000    0.00000000000000   -0.00000000000000             8
    0.33333333333333    0.00000000000000    0.00000000000000             4
    0.41666666666667    0.00000000000000   -0.00000000000000             4
    0.50000000000000    0.00000000000000   -0.00000000000000             4
    0.08333333333333    0.08333333333333    0.00000000000000             2
    0.16666666666667    0.08333333333333    0.00000000000000             4
    0.25000000000000    0.08333333333333   -0.00000000000000            12
    0.33333333333333    0.08333333333333    0.00000000000000             8
    0.41666666666667    0.08333333333333   -0.00000000000000             4
    0.50000000000000    0.08333333333333   -0.00000000000000            12
   -0.41666666666667    0.08333333333333    0.00000000000000             8
   -0.33333333333333    0.08333333333333   -0.00000000000000             4
   -0.25000000000000    0.08333333333333   -0.00000000000000            12
   -0.16666666666667    0.08333333333333   -0.00000000000000             8
   -0.08333333333333    0.08333333333333   -0.00000000000000             2
    0.16666666666667    0.16666666666667    0.00000000000000             2
    0.25000000000000    0.16666666666667    0.00000000000000            12
    0.33333333333333    0.16666666666667    0.00000000000000             4
    0.41666666666667    0.16666666666667   -0.00000000000000             8
    0.50000000000000    0.16666666666667   -0.00000000000000            12
   -0.41666666666667    0.16666666666667    0.00000000000000             4
   -0.33333333333333    0.16666666666667   -0.00000000000000             8
   -0.25000000000000    0.16666666666667    0.00000000000000            12
   -0.16666666666667    0.16666666666667   -0.00000000000000             2
    0.25000000000000    0.25000000000000   -0.00000000000000             6
    0.33333333333333    0.25000000000000    0.00000000000000            12
    0.41666666666667    0.25000000000000   -0.00000000000000            12
    0.50000000000000    0.25000000000000    0.00000000000000            24
   -0.41666666666667    0.25000000000000    0.00000000000000            12
   -0.33333333333333    0.25000000000000   -0.00000000000000            12
   -0.25000000000000    0.25000000000000    0.00000000000000            12
    0.33333333333333    0.33333333333333    0.00000000000000             2
    0.41666666666667    0.33333333333333    0.00000000000000             4
    0.50000000000000    0.33333333333333    0.00000000000000            12
   -0.41666666666667    0.33333333333333    0.00000000000000             8
   -0.33333333333333    0.33333333333333    0.00000000000000             2
    0.41666666666667    0.41666666666667   -0.00000000000000             2
    0.50000000000000    0.41666666666667    0.00000000000000            12
   -0.41666666666667    0.41666666666667    0.00000000000000             2
    0.50000000000000    0.50000000000000   -0.00000000000000             3
    0.00000000000000    0.00000000000000    0.12500000000000             2
    0.08333333333333    0.00000000000000    0.12500000000000             4
    0.16666666666667    0.00000000000000    0.12500000000000             4
    0.25000000000000    0.00000000000000    0.12500000000000             6
    0.33333333333333    0.00000000000000    0.12500000000000             4
    0.41666666666667    0.00000000000000    0.12500000000000             4
    0.50000000000000    0.00000000000000    0.12500000000000             6
   -0.41666666666667   -0.00000000000000    0.12500000000000             4
   -0.33333333333333   -0.00000000000000    0.12500000000000             4
   -0.25000000000000   -0.00000000000000    0.12500000000000             6
   -0.16666666666667   -0.00000000000000    0.12500000000000             4
   -0.08333333333333   -0.00000000000000    0.12500000000000             4
    0.08333333333333    0.08333333333333    0.12500000000000             2
    0.16666666666667    0.08333333333333    0.12500000000000             4
    0.25000000000000    0.08333333333333    0.12500000000000             8
    0.33333333333333    0.08333333333333    0.12500000000000             4
    0.41666666666667    0.08333333333333    0.12500000000000             4
    0.50000000000000    0.08333333333333    0.12500000000000             8
   -0.41666666666667    0.08333333333333    0.12500000000000             4
   -0.33333333333333    0.08333333333333    0.12500000000000             4
   -0.25000000000000    0.08333333333333    0.12500000000000             8
   -0.16666666666667    0.08333333333333    0.12500000000000             4
   -0.08333333333333    0.08333333333333    0.12500000000000             4
    0.16666666666667    0.16666666666667    0.12500000000000             2
    0.33333333333333    0.16666666666667    0.12500000000000             4
    0.41666666666667    0.16666666666667    0.12500000000000             4
    0.50000000000000    0.16666666666667    0.12500000000000             8
   -0.41666666666667    0.16666666666667    0.12500000000000             4
   -0.33333333333333    0.16666666666667    0.12500000000000             4
   -0.25000000000000    0.16666666666667    0.12500000000000             8
   -0.16666666666667    0.16666666666667    0.12500000000000             4
   -0.08333333333333    0.16666666666667    0.12500000000000             4
    0.33333333333333    0.25000000000000    0.12500000000000             8
    0.41666666666667    0.25000000000000    0.12500000000000             8
    0.50000000000000    0.25000000000000    0.12500000000000            12
   -0.41666666666667    0.25000000000000    0.12500000000000             8
    0.33333333333333    0.33333333333333    0.12500000000000             2
    0.41666666666667    0.33333333333333    0.12500000000000             4
    0.50000000000000    0.33333333333333    0.12500000000000             8
   -0.41666666666667    0.33333333333333    0.12500000000000             4
   -0.33333333333333    0.33333333333333    0.12500000000000             4
   -0.25000000000000    0.33333333333333    0.12500000000000             8
   -0.16666666666667    0.33333333333333    0.12500000000000             4
   -0.08333333333333    0.33333333333333    0.12500000000000             4
    0.41666666666667    0.41666666666667    0.12500000000000             2
    0.50000000000000    0.41666666666667    0.12500000000000             8
   -0.41666666666667    0.41666666666667    0.12500000000000             4
   -0.33333333333333    0.41666666666667    0.12500000000000             4
   -0.25000000000000    0.41666666666667    0.12500000000000             8
   -0.16666666666667    0.41666666666667    0.12500000000000             4
   -0.08333333333333    0.41666666666667    0.12500000000000             4
    0.50000000000000    0.50000000000000    0.12500000000000             6
   -0.41666666666667    0.50000000000000    0.12500000000000             8
   -0.33333333333333    0.50000000000000    0.12500000000000             8
   -0.25000000000000    0.50000000000000    0.12500000000000            12
   -0.16666666666667    0.50000000000000    0.12500000000000             8
   -0.08333333333333    0.50000000000000    0.12500000000000             8
   -0.41666666666667   -0.41666666666667    0.12500000000000             2
   -0.33333333333333   -0.41666666666667    0.12500000000000             4
   -0.25000000000000   -0.41666666666667    0.12500000000000             8
   -0.16666666666667   -0.41666666666667    0.12500000000000             4
   -0.08333333333333   -0.41666666666667    0.12500000000000             4
   -0.33333333333333   -0.33333333333333    0.12500000000000             2
   -0.25000000000000   -0.33333333333333    0.12500000000000             8
   -0.16666666666667   -0.33333333333333    0.12500000000000             4
   -0.08333333333333   -0.33333333333333    0.12500000000000             4
   -0.25000000000000   -0.25000000000000    0.12500000000000             6
   -0.16666666666667   -0.25000000000000    0.12500000000000             8
   -0.08333333333333   -0.25000000000000    0.12500000000000             8
   -0.16666666666667   -0.16666666666667    0.12500000000000             2
   -0.08333333333333   -0.16666666666667    0.12500000000000             4
   -0.08333333333333   -0.08333333333333    0.12500000000000             2
    0.16666666666667    0.08333333333333    0.25000000000000             4
    0.33333333333333    0.08333333333333    0.25000000000000             8
    0.41666666666667    0.08333333333333    0.25000000000000             8
    0.50000000000000    0.08333333333333    0.25000000000000            24
   -0.41666666666667    0.08333333333333    0.25000000000000            16
   -0.33333333333333    0.08333333333333    0.25000000000000             8
   -0.25000000000000    0.08333333333333    0.25000000000000            24
   -0.16666666666667    0.08333333333333    0.25000000000000             8
   -0.08333333333333    0.08333333333333    0.25000000000000             8
    0.41666666666667    0.33333333333333    0.25000000000000             8
   -0.41666666666667    0.33333333333333    0.25000000000000             8
   -0.33333333333333    0.33333333333333    0.25000000000000             8
   -0.25000000000000    0.33333333333333    0.25000000000000            24
   -0.16666666666667    0.33333333333333    0.25000000000000            16
   -0.08333333333333    0.33333333333333    0.25000000000000             4
   -0.41666666666667    0.41666666666667    0.25000000000000             8
   -0.33333333333333    0.41666666666667    0.25000000000000             8
   -0.25000000000000    0.41666666666667    0.25000000000000            24
   -0.16666666666667    0.41666666666667    0.25000000000000             4
   -0.25000000000000    0.50000000000000    0.25000000000000             6
   -0.33333333333333   -0.41666666666667    0.25000000000000             4
    0.00000000000000    0.00000000000000    0.37500000000000             2
    0.08333333333333    0.00000000000000    0.37500000000000             4
    0.16666666666667    0.00000000000000    0.37500000000000             4
    0.33333333333333    0.00000000000000    0.37500000000000             4
    0.41666666666667    0.00000000000000    0.37500000000000             4
   -0.41666666666667   -0.00000000000000    0.37500000000000             4
   -0.33333333333333   -0.00000000000000    0.37500000000000             4
   -0.25000000000000   -0.00000000000000    0.37500000000000             6
   -0.16666666666667   -0.00000000000000    0.37500000000000             4
   -0.08333333333333   -0.00000000000000    0.37500000000000             4
    0.08333333333333    0.08333333333333    0.37500000000000             2
    0.16666666666667    0.08333333333333    0.37500000000000             4
    0.33333333333333    0.08333333333333    0.37500000000000             4
    0.41666666666667    0.08333333333333    0.37500000000000             4
   -0.41666666666667    0.08333333333333    0.37500000000000             4
   -0.33333333333333    0.08333333333333    0.37500000000000             4
   -0.25000000000000    0.08333333333333    0.37500000000000             8
   -0.16666666666667    0.08333333333333    0.37500000000000             4
   -0.08333333333333    0.08333333333333    0.37500000000000             4
    0.16666666666667    0.16666666666667    0.37500000000000             2
    0.33333333333333    0.16666666666667    0.37500000000000             4
    0.41666666666667    0.16666666666667    0.37500000000000             4
   -0.41666666666667    0.16666666666667    0.37500000000000             4
   -0.33333333333333    0.16666666666667    0.37500000000000             4
   -0.25000000000000    0.16666666666667    0.37500000000000             8
   -0.16666666666667    0.16666666666667    0.37500000000000             4
   -0.08333333333333    0.16666666666667    0.37500000000000             4
    0.33333333333333    0.33333333333333    0.37500000000000             2
    0.41666666666667    0.33333333333333    0.37500000000000             4
   -0.41666666666667    0.33333333333333    0.37500000000000             4
   -0.33333333333333    0.33333333333333    0.37500000000000             4
   -0.25000000000000    0.33333333333333    0.37500000000000             8
   -0.16666666666667    0.33333333333333    0.37500000000000             4
   -0.08333333333333    0.33333333333333    0.37500000000000             4
    0.41666666666667    0.41666666666667    0.37500000000000             2
   -0.41666666666667    0.41666666666667    0.37500000000000             4
   -0.33333333333333    0.41666666666667    0.37500000000000             4
   -0.16666666666667    0.41666666666667    0.37500000000000             4
   -0.08333333333333    0.41666666666667    0.37500000000000             4
   -0.41666666666667   -0.41666666666667    0.37500000000000             2
   -0.33333333333333   -0.41666666666667    0.37500000000000             4
   -0.16666666666667   -0.41666666666667    0.37500000000000             4
   -0.08333333333333   -0.41666666666667    0.37500000000000             4
   -0.33333333333333   -0.33333333333333    0.37500000000000             2
   -0.16666666666667   -0.33333333333333    0.37500000000000             4
   -0.08333333333333   -0.33333333333333    0.37500000000000             4
   -0.16666666666667   -0.25000000000000    0.37500000000000             8
   -0.16666666666667   -0.16666666666667    0.37500000000000             2
   -0.08333333333333   -0.16666666666667    0.37500000000000             4
   -0.08333333333333   -0.08333333333333    0.37500000000000             2
    0.16666666666667    0.08333333333333    0.50000000000000             8
    0.41666666666667    0.08333333333333    0.50000000000000             4
   -0.41666666666667    0.08333333333333    0.50000000000000             4
   -0.33333333333333    0.08333333333333    0.50000000000000             8
   -0.08333333333333    0.08333333333333    0.50000000000000             4
    0.33333333333333    0.16666666666667    0.50000000000000             4
   -0.33333333333333    0.16666666666667    0.50000000000000             4
   -0.16666666666667    0.16666666666667    0.50000000000000             4
Tetrahedra
      1704    0.00014467592593
         4         1         2         8        56
         4         1         2        45        56
         4         1        44        45        56
         4         2         8         9        57
         4         2         3         9        57
         4         2         3        46        57
         4         2         8        56        57
         4         2        45        56        57
         4         2        45        46        57
         4         3         9        10        58
         4         3         4        10        58
         4         3         4        47        58
         4         3         9        57        58
         4         3        46        57        58
         4         3        46        47        58
         4         4        10        11        59
         4         4         5        11        59
         4         4         5        48        59
         4         4        10        58        59
         4         4        47        58        59
         4         4        47        48        59
         4         5        11        12        60
         4         5         6        12        60
         4         5         6        49        60
         4         5        11        59        60
         4         5        48        59        60
         4         5        48        49        60
         4         6        12        13        61
         4         6         7        13        61
         4         6         7        50        61
         4         6        12        60        61
         4         6        49        60        61
         4         6        49        50        61
         4         7        13        14        62
         4         6         7        14        62
         4         6         7        51        62
         4         7        13        61        62
         4         7        50        61        62
         4         7        50        51        62
         4         6        14        15        63
         4         5         6        15        63
         4         5         6        52        63
         4         6        14        62        63
         4         6        51        62        63
         4         6        51        52        63
         4         5        15        16        64
         4         4         5        16        64
         4         4         5        53        64
         4         5        15        63        64
         4         5        52        63        64
         4         5        52        53        64
         4         4        16        17        65
         4         3         4        17        65
         4         3         4        54        65
         4         4        16        64        65
         4         4        53        64        65
         4         4        53        54        65
         4         3        17        18        66
         4         2         3        18        66
         4         2         3        55        66
         4         3        17        65        66
         4         3        54        65        66
         4         3        54        55        66
         4         2         2        18        45
         4         1         2         2        45
         4         1         2        44        45
         4         2        18        45        66
         4         2        45        55        66
         4         2        44        45        55
         4         8         9        19        67
         4         8         9        57        67
         4         8        56        57        67
         4         9        19        20        58
         4         9        10        20        58
         4         9        10        58        58
         4         9        19        58        67
         4         9        57        58        67
         4         9        57        58        58
         4        10        20        21        68
         4        10        11        21        68
         4        10        11        59        68
         4        10        20        58        68
         4        10        58        58        68
         4        10        58        59        68
         4        11        21        22        69
         4        11        12        22        69
         4        11        12        60        69
         4        11        21        68        69
         4        11        59        68        69
         4        11        59        60        69
         4        12        22        23        70
         4        12        13        23        70
         4        12        13        61        70
         4        12        22        69        70
         4        12        60        69        70
         4        12        60        61        70
         4        13        23        24        71
         4        13        14        24        71
         4        13        14        62        71
         4        13        23        70        71
         4        13        61        70        71
         4        13        61        62        71
         4        14        24        25        72
         4        14        15        25        72
         4        14        15        63        72
         4        14        24        71        72
         4        14        62        71        72
         4        14        62        63        72
         4        15        25        26        73
         4        15        16        26        73
         4        15        16        64        73
         4        15        25        72        73
         4        15        63        72        73
         4        15        63        64        73
         4        16        26        27        74
         4        16        17        27        74
         4        16        17        65        74
         4        16        26        73        74
         4        16        64        73        74
         4        16        64        65        74
         4        17        17        27        75
         4        17        17        18        75
         4        17        18        66        75
         4        17        27        74        75
         4        17        65        74        75
         4        17        65        66        75
         4         3        17        18        46
         4         2         3        18        46
         4         2        18        45        46
         4        17        18        46        75
         4        18        46        66        75
         4        18        45        46        66
         4        19        20        28        47
         4        19        20        47        58
         4        19        47        58        67
         4        20        28        29        76
         4        20        21        29        76
         4        20        21        68        76
         4        20        28        47        76
         4        20        47        58        76
         4        20        58        68        76
         4        21        29        30        77
         4        21        22        30        77
         4        21        22        69        77
         4        21        29        76        77
         4        21        68        76        77
         4        21        68        69        77
         4        22        30        31        78
         4        22        23        31        78
         4        22        23        70        78
         4        22        30        77        78
         4        22        69        77        78
         4        22        69        70        78
         4        23        31        32        79
         4        23        24        32        79
         4        23        24        71        79
         4        23        31        78        79
         4        23        70        78        79
         4        23        70        71        79
         4        24        32        33        79
         4        24        25        33        79
         4        24        25        72        79
         4        24        32        79        79
         4        24        71        79        79
         4        24        71        72        79
         4        25        33        34        78
         4        25        26        34        78
         4        25        26        73        78
         4        25        33        78        79
         4        25        72        78        79
         4        25        72        73        78
         4        26        26        34        77
         4        26        26        27        77
         4        26        27        74        77
         4        26        34        77        78
         4        26        73        77        78
         4        26        73        74        77
         4        16        26        27        76
         4        16        17        27        76
         4        17        27        75        76
         4        26        27        76        77
         4        27        74        76        77
         4        27        74        75        76
         4         4        16        17        47
         4         3         4        17        47
         4         3        17        46        47
         4        16        17        47        76
         4        17        47        75        76
         4        17        46        47        75
         4        28        29        35        80
         4        28        29        76        80
         4        28        47        76        80
         4        29        35        36        81
         4        29        30        36        81
         4        29        30        77        81
         4        29        35        80        81
         4        29        76        80        81
         4        29        76        77        81
         4        30        36        37        82
         4        30        31        37        82
         4        30        31        78        82
         4        30        36        81        82
         4        30        77        81        82
         4        30        77        78        82
         4        31        37        38        83
         4        31        32        38        83
         4        31        32        79        83
         4        31        37        82        83
         4        31        78        82        83
         4        31        78        79        83
         4        32        38        39        84
         4        32        33        39        84
         4        32        33        79        84
         4        32        38        83        84
         4        32        79        83        84
         4        32        79        79        84
         4        33        33        39        85
         4        33        33        34        85
         4        33        34        78        85
         4        33        39        84        85
         4        33        79        84        85
         4        33        78        79        85
         4        25        33        34        86
         4        25        26        34        86
         4        26        34        77        86
         4        33        34        85        86
         4        34        78        85        86
         4        34        77        78        86
         4        15        25        26        87
         4        15        16        26        87
         4        16        26        76        87
         4        25        26        86        87
         4        26        77        86        87
         4        26        76        77        87
         4         5        15        16        48
         4         4         5        16        48
         4         4        16        47        48
         4        15        16        48        87
         4        16        48        76        87
         4        16        47        48        76
         4        35        36        40        88
         4        35        36        81        88
         4        35        80        81        88
         4        36        40        41        89
         4        36        37        41        89
         4        36        37        82        89
         4        36        40        88        89
         4        36        81        88        89
         4        36        81        82        89
         4        37        41        42        90
         4        37        38        42        90
         4        37        38        83        90
         4        37        41        89        90
         4        37        82        89        90
         4        37        82        83        90
         4        38        38        42        91
         4        38        38        39        91
         4        38        39        84        91
         4        38        42        90        91
         4        38        83        90        91
         4        38        83        84        91
         4        32        38        39        92
         4        32        33        39        92
         4        33        39        85        92
         4        38        39        91        92
         4        39        84        91        92
         4        39        84        85        92
         4        24        32        33        93
         4        24        25        33        93
         4        25        33        86        93
         4        32        33        92        93
         4        33        85        92        93
         4        33        85        86        93
         4        14        24        25        94
         4        14        15        25        94
         4        15        25        87        94
         4        24        25        93        94
         4        25        86        93        94
         4        25        86        87        94
         4         6        14        15        49
         4         5         6        15        49
         4         5        15        48        49
         4        14        15        49        94
         4        15        49        87        94
         4        15        48        49        87
         4        40        41        43        95
         4        40        41        89        95
         4        40        88        89        95
         8        41        41        43        96
         4        41        41        42        96
         4        41        42        90        96
         8        41        43        95        96
         4        41        89        95        96
         4        41        89        90        96
         4        37        41        42        97
         4        37        38        42        97
         4        38        42        91        97
         4        41        42        96        97
         4        42        90        96        97
         4        42        90        91        97
         4        31        37        38        98