       N       E                     dE             d eps       ncg     rms          rms(c)
DAV:   1     0.373212425690E+03    0.37321E+03   -0.38347E+04  3312   0.155E+03
DAV:   2    -0.330745176772E+02   -0.40629E+03   -0.39056E+03  4166   0.311E+02
DAV:   3    -0.590216179170E+02   -0.25947E+02   -0.25282E+02  3942   0.733E+01
DAV:   4    -0.598345322114E+02   -0.81291E+00   -0.81029E+00  4320   0.127E+01
DAV:   5    -0.598504633026E+02   -0.15931E-01   -0.15996E-01  4048   0.191E+00    0.171E+01
DAV:   6    -0.466183942954E+02    0.13232E+02   -0.27990E+01  3720   0.225E+01    0.697E+00
DAV:   7    -0.458856935909E+02    0.73270E+00   -0.10987E+01  3952   0.136E+01    0.559E+00
