 vasp.5.3.5 31Mar14 (build Nov 02 2014 15:17:37) complex                        
  
 executed on        ion-Intel-MKL date 2017.05.07  23:38:50
 running on   16 total cores
 distrk:  each k-point on   16 cores,    1 groups
 distr:  one band on NCORES_PER_BAND=   8 cores,    2 groups


--------------------------------------------------------------------------------------------------------


 INCAR:
 POTCAR:   PAW_PBE C 08Apr2002                    
 POTCAR:   PAW_PBE H 15Jun2001                    
 POTCAR:   PAW_PBE C 08Apr2002                    
   VRHFIN =C: s2p2                                                              
   LEXCH  = PE                                                                  
   EATOM  =   147.1560 eV,   10.8157 Ry                                         
                                                                                
   TITEL  = PAW_PBE C 08Apr2002                                                 
   LULTRA =        F    use ultrasoft PP ?                                      
   IUNSCR =        0    unscreen: 0-lin 1-nonlin 2-no                           
   RPACOR =     .000    partial core radius                                     
   POMASS =   12.011; ZVAL   =    4.000    mass and valenz                      
   RCORE  =    1.500    outmost cutoff radius                                   
   RWIGS  =    1.630; RWIGS  =     .863    wigner-seitz radius (au A)           
   ENMAX  =  400.000; ENMIN  =  300.000 eV                                      
   ICORE  =        2    local potential                                         
   LCOR   =        T    correct aug charges                                     
   LPAW   =        T    paw PP                                                  
   EAUG   =  644.873                                                            
   DEXC   =     .000                                                            
   RMAX   =    2.266    core radius for proj-oper                               
   RAUG   =    1.300    factor for augmentation sphere                          
   RDEP   =    1.501    radius for radial grids                                 
   RDEPT  =    1.300    core radius for aug-charge                              
   QCUT   =   -5.516; QGAM   =   11.032    optimization parameters              
                                                                                
   Description                                                                  
     l     E      TYP  RCUT    TYP  RCUT                                        
     0   .000     23  1.200                                                     
     0   .000     23  1.200                                                     
     1   .000     23  1.500                                                     
     1  2.500     23  1.500                                                     
     2   .000      7  1.500                                                     
  local pseudopotential read in
  atomic valenz-charges read in
  non local Contribution for L=           0  read in
    real space projection operators read in
  non local Contribution for L=           0  read in
    real space projection operators read in
  non local Contribution for L=           1  read in
    real space projection operators read in
  non local Contribution for L=           1  read in
    real space projection operators read in
    PAW grid and wavefunctions read in
 
   number of l-projection  operators is LMAX  =           4
   number of lm-projection operators is LMMAX =           8
 
 POTCAR:   PAW_PBE H 15Jun2001                    
   VRHFIN =H: ultrasoft test                                                    
   LEXCH  = PE                                                                  
   EATOM  =    12.4884 eV,     .9179 Ry                                         
                                                                                
   TITEL  = PAW_PBE H 15Jun2001                                                 
   LULTRA =        F    use ultrasoft PP ?                                      
   IUNSCR =        0    unscreen: 0-lin 1-nonlin 2-no                           
   RPACOR =     .000    partial core radius                                     
   POMASS =    1.000; ZVAL   =    1.000    mass and valenz                      
   RCORE  =    1.100    outmost cutoff radius                                   
   RWIGS  =     .700; RWIGS  =     .370    wigner-seitz radius (au A)           
   ENMAX  =  250.000; ENMIN  =  200.000 eV                                      
   RCLOC  =     .701    cutoff for local pot                                    
   LCOR   =        T    correct aug charges                                     
   LPAW   =        T    paw PP                                                  
   EAUG   =  400.000                                                            
   RMAX   =    2.174    core radius for proj-oper                               
   RAUG   =    1.200    factor for augmentation sphere                          
   RDEP   =    1.112    radius for radial grids                                 
   QCUT   =   -5.749; QGAM   =   11.498    optimization parameters              
                                                                                
   Description                                                                  
     l     E      TYP  RCUT    TYP  RCUT                                        
     0   .000     23  1.100                                                     
     0   .500     23  1.100                                                     
     1  -.300     23  1.100                                                     
  local pseudopotential read in
  atomic valenz-charges read in
  non local Contribution for L=           0  read in
    real space projection operators read in
  non local Contribution for L=           0  read in
    real space projection operators read in
  non local Contribution for L=           1  read in
    real space projection operators read in
    PAW grid and wavefunctions read in
 
   number of l-projection  operators is LMAX  =           3
   number of lm-projection operators is LMMAX =           5
 

 ----------------------------------------------------------------------------- 
|                                                                             |
|  ADVICE TO THIS USER RUNNING 'VASP/VAMP'   (HEAR YOUR MASTER'S VOICE ...):  |
|                                                                             |
|      You have a (more or less) 'large supercell' and for larger cells       |
|      it might be more efficient to use real space projection operators      |
|      So try LREAL= Auto  in the INCAR   file.                               |
|      Mind: If you want to do a very accurate calculations keep the          |
|      reciprocal projection scheme          (i.e. LREAL=.FALSE.)             |
|                                                                             |
 ----------------------------------------------------------------------------- 

 PAW_PBE C 08Apr2002                    :
 energy of atom  1       EATOM= -147.1560
 kinetic energy error for atom=    0.0057 (will be added to EATOM!!)
 PAW_PBE H 15Jun2001                    :
 energy of atom  2       EATOM=  -12.4884
 kinetic energy error for atom=    0.0004 (will be added to EATOM!!)
 
 
 POSCAR: methane                                 
  positions in direct lattice
  No initial velocities read in
 exchange correlation table for  LEXCH =        8
   RHO(1)=    0.500       N(1)  =     2000
   RHO(2)=  100.500       N(2)  =     4000
 


--------------------------------------------------------------------------------------------------------


 ion  position               nearest neighbor table
   1  0.456  0.835  0.539-  17 0.93   3 1.53   4 1.53   2 1.53
   2  0.456  0.042  0.332-  17 0.93   4 1.53   1 1.53   3 1.53
   3  0.456  0.118  0.615-  17 0.93   1 1.53   4 1.53   2 1.53
   4  0.695  0.998  0.496-  17 0.93   2 1.53   1 1.53   3 1.53
   5  0.600  0.530  0.150-  18 0.89   8 1.45   7 1.45   6 1.45
   6  0.549  0.634  0.896-  18 0.89   8 1.45   7 1.45   5 1.45
   7  0.570  0.358  0.932-  18 0.89   8 1.45   6 1.45   5 1.45
   8  0.349  0.496  0.033-  18 0.89   6 1.45   7 1.45   5 1.45
   9  0.082  0.016  0.153-  19 0.89  12 1.45  11 1.45  10 1.45
  10  0.031  0.120  0.899-  19 0.89  12 1.45  11 1.45   9 1.45
  11  0.052  0.844  0.935-  19 0.89  12 1.45  10 1.45   9 1.45
  12  0.831  0.982  0.036-  19 0.89  10 1.45  11 1.45   9 1.45
  13  0.076  0.532  0.660-  20 0.89  15 1.45  16 1.45  14 1.45
  14  0.025  0.637  0.406-  20 0.89  16 1.45  15 1.45  13 1.45
  15  0.045  0.360  0.442-  20 0.89  16 1.45  14 1.45  13 1.45
  16  0.824  0.498  0.543-  20 0.89  15 1.45  14 1.45  13 1.45
  17  0.516  0.998  0.496-   2 0.93   1 0.93   3 0.93   4 0.93
  18  0.517  0.504  0.003-   6 0.89   5 0.89   7 0.89   8 0.89
  19  0.999  0.990  0.006-  12 0.89  10 0.89   9 0.89  11 0.89
  20  0.992  0.507  0.513-  16 0.89  13 0.89  14 0.89  15 0.89
 
  LATTYP: Found a simple cubic cell.
 ALAT       =     5.2026899927
  
  Lattice vectors:
  
 A1 = (   5.2026899927,   0.0000000000,   0.0000000000)
 A2 = (   0.0000000000,   5.2026899927,   0.0000000000)
 A3 = (   0.0000000000,   0.0000000000,   5.2026899927)


Analysis of symmetry for initial positions (statically):
=====================================================================
 Subroutine PRICEL returns:
 Original cell was already a primitive cell.
 

 Routine SETGRP: Setting up the symmetry group for a 
 simple cubic supercell.


 Subroutine GETGRP returns: Found  1 space group operations
 (whereof  1 operations were pure point group operations)
 out of a pool of 48 trial point group operations.


The static configuration has the point symmetry C_1 .


Analysis of symmetry for dynamics (positions and initial velocities):
=====================================================================
 Subroutine PRICEL returns:
 Original cell was already a primitive cell.
 

 Routine SETGRP: Setting up the symmetry group for a 
 simple cubic supercell.


 Subroutine GETGRP returns: Found  1 space group operations
 (whereof  1 operations were pure point group operations)
 out of a pool of 48 trial point group operations.


The dynamic configuration has the point symmetry C_1 .
 
 
 KPOINTS: B4C B11C-CBC                            

Automatic generation of k-mesh.
Space group operators:
 irot       det(A)        alpha          n_x          n_y          n_z        tau_x        tau_y        tau_z
    1     1.000000     0.000000     1.000000     0.000000     0.000000     0.000000     0.000000     0.000000
 
 Subroutine IBZKPT returns following result:
 ===========================================
 
 Found     36 irreducible k-points:
 
 Following reciprocal coordinates:
            Coordinates               Weight
  0.000000  0.000000  0.000000      1.000000
  0.250000  0.000000  0.000000      2.000000
  0.500000  0.000000  0.000000      1.000000
  0.000000  0.250000  0.000000      2.000000
  0.250000  0.250000  0.000000      2.000000
  0.500000  0.250000  0.000000      2.000000
 -0.250000  0.250000  0.000000      2.000000
  0.000000  0.500000  0.000000      1.000000
  0.250000  0.500000  0.000000      2.000000
  0.500000  0.500000  0.000000      1.000000
  0.000000  0.000000  0.250000      2.000000
  0.250000  0.000000  0.250000      2.000000
  0.500000  0.000000  0.250000      2.000000
 -0.250000  0.000000  0.250000      2.000000
  0.000000  0.250000  0.250000      2.000000
  0.250000  0.250000  0.250000      2.000000
  0.500000  0.250000  0.250000      2.000000
 -0.250000  0.250000  0.250000      2.000000
  0.000000  0.500000  0.250000      2.000000
  0.250000  0.500000  0.250000      2.000000
  0.500000  0.500000  0.250000      2.000000
 -0.250000  0.500000  0.250000      2.000000
  0.000000 -0.250000  0.250000      2.000000
  0.250000 -0.250000  0.250000      2.000000
  0.500000 -0.250000  0.250000      2.000000
 -0.250000 -0.250000  0.250000      2.000000
  0.000000  0.000000  0.500000      1.000000
  0.250000  0.000000  0.500000      2.000000
  0.500000  0.000000  0.500000      1.000000
  0.000000  0.250000  0.500000      2.000000
  0.250000  0.250000  0.500000      2.000000
  0.500000  0.250000  0.500000      2.000000
 -0.250000  0.250000  0.500000      2.000000
  0.000000  0.500000  0.500000      1.000000
  0.250000  0.500000  0.500000      2.000000
  0.500000  0.500000  0.500000      1.000000
 
 Following cartesian coordinates:
            Coordinates               Weight
  0.000000  0.000000  0.000000      1.000000
  0.039370  0.000000  0.000000      2.000000
  0.078740  0.000000  0.000000      1.000000
  0.000000  0.039370  0.000000      2.000000
  0.039370  0.039370  0.000000      2.000000
  0.078740  0.039370  0.000000      2.000000
 -0.039370  0.039370  0.000000      2.000000
  0.000000  0.078740  0.000000      1.000000
  0.039370  0.078740  0.000000      2.000000
  0.078740  0.078740  0.000000      1.000000
  0.000000  0.000000  0.039370      2.000000
  0.039370  0.000000  0.039370      2.000000
  0.078740  0.000000  0.039370      2.000000
 -0.039370  0.000000  0.039370      2.000000
  0.000000  0.039370  0.039370      2.000000
  0.039370  0.039370  0.039370      2.000000
  0.078740  0.039370  0.039370      2.000000
 -0.039370  0.039370  0.039370      2.000000
  0.000000  0.078740  0.039370      2.000000
  0.039370  0.078740  0.039370      2.000000
  0.078740  0.078740  0.039370      2.000000
 -0.039370  0.078740  0.039370      2.000000
  0.000000 -0.039370  0.039370      2.000000
  0.039370 -0.039370  0.039370      2.000000
  0.078740 -0.039370  0.039370      2.000000
 -0.039370 -0.039370  0.039370      2.000000
  0.000000  0.000000  0.078740      1.000000
  0.039370  0.000000  0.078740      2.000000
  0.078740  0.000000  0.078740      1.000000
  0.000000  0.039370  0.078740      2.000000
  0.039370  0.039370  0.078740      2.000000
  0.078740  0.039370  0.078740      2.000000
 -0.039370  0.039370  0.078740      2.000000
  0.000000  0.078740  0.078740      1.000000
  0.039370  0.078740  0.078740      2.000000
  0.078740  0.078740  0.078740      1.000000
 
 TETIRR: Found    192 inequivalent tetrahedra from      384


--------------------------------------------------------------------------------------------------------




 Dimension of arrays:
   k-points           NKPTS =     36   k-points in BZ     NKDIM =     36   number of bands    NBANDS=     46
   number of dos      NEDOS =    301   number of ions     NIONS =     20
   non local maximal  LDIM  =      4   non local SUM 2l+1 LMDIM =      8
   total plane-waves  NPLWV =  74088
   max r-space proj   IRMAX =      1   max aug-charges    IRDMAX=   6407
   dimension x,y,z NGX =    42 NGY =   42 NGZ =   42
   dimension x,y,z NGXF=    84 NGYF=   84 NGZF=   84
   support grid    NGXF=    84 NGYF=   84 NGZF=   84
   ions per type =              16   4
 NGX,Y,Z   is equivalent  to a cutoff of  13.42, 13.42, 13.42 a.u.
 NGXF,Y,Z  is equivalent  to a cutoff of  26.84, 26.84, 26.84 a.u.


 I would recommend the setting:
   dimension x,y,z NGX =    42 NGY =   42 NGZ =   42
 SYSTEM =  diamond                                 
 POSCAR =  methane                                 

 Startparameter for this run:
   NWRITE =      2    write-flag & timer
   PREC   = accura    normal or accurate (medium, high low for compatibility)
   ISTART =      0    job   : 0-new  1-cont  2-samecut
   ICHARG =      2    charge: 1-file 2-atom 10-const
   ISPIN  =      1    spin polarized calculation?
   LNONCOLLINEAR =      F non collinear calculations
   LSORBIT =      F    spin-orbit coupling
   INIWAV =      1    electr: 0-lowe 1-rand  2-diag
   LASPH  =      F    aspherical Exc in radial PAW
   METAGGA=      F    non-selfconsistent MetaGGA calc.

 Electronic Relaxation 1
   ENCUT  =  600.0 eV  44.10 Ry    6.64 a.u.  10.39 10.39 10.39*2*pi/ulx,y,z
   ENINI  =  600.0     initial cutoff
   ENAUG  =  644.9 eV  augmentation charge cutoff
   NELM   =    200;   NELMIN=  2; NELMDL=  0     # of ELM steps 
   EDIFF  = 0.1E-05   stopping-criterion for ELM
   LREAL  =      F    real-space projection
   NLSPLINE    = F    spline interpolate recip. space projectors
   LCOMPAT=      F    compatible to vasp.4.4
   GGA_COMPAT  = T    GGA compatible to vasp.4.4-vasp.4.6
   LMAXPAW     = -100 max onsite density
   LMAXMIX     =    2 max onsite mixed and CHGCAR
   VOSKOWN=      0    Vosko Wilk Nusair interpolation
   ROPT   =    0.00000   0.00000
 Ionic relaxation
   EDIFFG = 0.1E-02   stopping-criterion for IOM
   NSW    =    200    number of steps for IOM
   NBLOCK =      1;   KBLOCK =    200    inner block; outer block 
   IBRION =      2    ionic relax: 0-MD 1-quasi-New 2-CG
   NFREE  =      1    steps in history (QN), initial steepest desc. (CG)
   ISIF   =      2    stress and relaxation
   IWAVPR =     11    prediction:  0-non 1-charg 2-wave 3-comb
   ISYM   =      2    0-nonsym 1-usesym 2-fastsym
   LCORR  =      T    Harris-Foulkes like correction to forces

   POTIM  = 0.5000    time-step for ionic-motion
   TEIN   =    0.0    initial temperature
   TEBEG  =    0.0;   TEEND  =   0.0 temperature during run
   SMASS  =  -3.00    Nose mass-parameter (am)
   estimated Nose-frequenzy (Omega)   =  0.10E-29 period in steps =****** mass=  -0.619E-27a.u.
   SCALEE = 1.0000    scale energy and forces
   NPACO  =    256;   APACO  = 16.0  distance and # of slots for P.C.
   PSTRESS=    0.0 pullay stress

  Mass of Ions in am
   POMASS =  12.01  1.00
  Ionic Valenz
   ZVAL   =   4.00  1.00
  Atomic Wigner-Seitz radii
   RWIGS  =  -1.00 -1.00
  virtual crystal weights 
   VCA    =   1.00  1.00
   NELECT =      68.0000    total number of electrons
   NUPDOWN=      -1.0000    fix difference up-down

 DOS related values:
   EMIN   =  10.00;   EMAX   =-10.00  energy-range for DOS
   EFERMI =   0.00
   ISMEAR =    -5;   SIGMA  =   0.20  broadening in eV -4-tet -1-fermi 0-gaus

 Electronic relaxation 2 (details)
   IALGO  =     38    algorithm
   LDIAG  =      T    sub-space diagonalisation (order eigenvalues)
   LSUBROT=      F    optimize rotation matrix (better conditioning)
   TURBO    =      0    0=normal 1=particle mesh
   IRESTART =      0    0=no restart 2=restart with 2 vectors
   NREBOOT  =      0    no. of reboots
   NMIN     =      0    reboot dimension
   EREF     =   0.00    reference energy to select bands
   IMIX   =      4    mixing-type and parameters
     AMIX     =   0.40;   BMIX     =  1.00
     AMIX_MAG =   1.60;   BMIX_MAG =  1.00
     AMIN     =   0.10
     WC   =   100.;   INIMIX=   1;  MIXPRE=   1;  MAXMIX= -45

 Intra band minimization:
   WEIMIN = 0.0010     energy-eigenvalue tresh-hold
   EBREAK =  0.54E-08  absolut break condition
   DEPER  =   0.30     relativ break condition  

   TIME   =   0.40     timestep for ELM

  volume/ion in A,a.u.               =       7.04        47.52
  Fermi-wavevector in a.u.,A,eV,Ry     =   1.284349  2.427068 22.443536  1.649553
  Thomas-Fermi vector in A             =   2.416548
 
 Write flags
   LWAVE  =      F    write WAVECAR
   LCHARG =      F    write CHGCAR
   LVTOT  =      F    write LOCPOT, total local potential
   LVHAR  =      F    write LOCPOT, Hartree potential only
   LELF   =      F    write electronic localiz. function (ELF)
   LORBIT =      0    0 simple, 1 ext, 2 COOP (PROOUT)


 Dipole corrections
   LMONO  =      F    monopole corrections only (constant potential shift)
   LDIPOL =      F    correct potential (dipole corrections)
   IDIPOL =      0    1-x, 2-y, 3-z, 4-all directions 
   EPSILON=  1.0000000 bulk dielectric constant

 Exchange correlation treatment:
   GGA     =    PE    GGA type
   LEXCH   =     8    internal setting for exchange type
   VOSKOWN=      0    Vosko Wilk Nusair interpolation
   LHFCALC =     F    Hartree Fock is set to
   LHFONE  =     F    Hartree Fock one center treatment
   AEXX    =    0.0000 exact exchange contribution

 Linear response parameters
   LEPSILON=     F    determine dielectric tensor
   LRPA    =     F    only Hartree local field effects (RPA)
   LNABLA  =     F    use nabla operator in PAW spheres
   LVEL    =     F    velocity operator in full k-point grid
   LINTERFAST=   F  fast interpolation
   KINTER  =     0    interpolate to denser k-point grid
   CSHIFT  =0.1000    complex shift for real part using Kramers Kronig
   OMEGAMAX=  -1.0    maximum frequency
   DEG_THRESHOLD= 0.2000000E-02 threshold for treating states as degnerate
   RTIME   =    0.100 relaxation time in fs

 Orbital magnetization related:
   ORBITALMAG=     F  switch on orbital magnetization
   LCHIMAG   =     F  perturbation theory with respect to B field
   DQ        =  0.001000  dq finite difference perturbation B field



--------------------------------------------------------------------------------------------------------


 conjugate gradient relaxation of ions
 charge density and potential will be updated during run
 non-spin polarized calculation
 Variant of blocked Davidson
 Davidson routine will perform the subspace rotation
 perform sub-space diagonalisation
    after iterative eigenvector-optimisation
 modified Broyden-mixing scheme, WC =      100.0
 initial mixing is a Kerker type mixing with AMIX =  0.4000 and BMIX =      1.0000
 Hartree-type preconditioning will be used
 using additional bands           12
 reciprocal scheme for non local part
 calculate Harris-corrections to forces 
   (improved forces if not selfconsistent)
 use gradient corrections 
 use of overlap-Matrix (Vanderbilt PP)
 Fermi weights with tetrahedron method with Bloechl corrections


--------------------------------------------------------------------------------------------------------


  energy-cutoff  :      600.00
  volume of cell :      140.83
      direct lattice vectors                 reciprocal lattice vectors
     5.202689993  0.000000000  0.000000000     0.192208262  0.000000000  0.000000000
     0.000000000  5.202689993  0.000000000     0.000000000  0.192208262  0.000000000
     0.000000000  0.000000000  5.202689993     0.000000000  0.000000000  0.192208262

  length of vectors
     5.202689993  5.202689993  5.202689993     0.192208262  0.192208262  0.192208262


 
 k-points in units of 2pi/SCALE and weight: B4C B11C-CBC                            
   0.00000000  0.00000000  0.00000000       0.016
   0.03937008  0.00000000  0.00000000       0.031
   0.07874016  0.00000000  0.00000000       0.016
   0.00000000  0.03937008  0.00000000       0.031
   0.03937008  0.03937008  0.00000000       0.031
   0.07874016  0.03937008  0.00000000       0.031
  -0.03937008  0.03937008  0.00000000       0.031
   0.00000000  0.07874016  0.00000000       0.016
   0.03937008  0.07874016  0.00000000       0.031
   0.07874016  0.07874016  0.00000000       0.016
   0.00000000  0.00000000  0.03937008       0.031
   0.03937008  0.00000000  0.03937008       0.031
   0.07874016  0.00000000  0.03937008       0.031
  -0.03937008  0.00000000  0.03937008       0.031
   0.00000000  0.03937008  0.03937008       0.031
   0.03937008  0.03937008  0.03937008       0.031
   0.07874016  0.03937008  0.03937008       0.031
  -0.03937008  0.03937008  0.03937008       0.031
   0.00000000  0.07874016  0.03937008       0.031
   0.03937008  0.07874016  0.03937008       0.031
   0.07874016  0.07874016  0.03937008       0.031
  -0.03937008  0.07874016  0.03937008       0.031
   0.00000000 -0.03937008  0.03937008       0.031
   0.03937008 -0.03937008  0.03937008       0.031
   0.07874016 -0.03937008  0.03937008       0.031
  -0.03937008 -0.03937008  0.03937008       0.031
   0.00000000  0.00000000  0.07874016       0.016
   0.03937008  0.00000000  0.07874016       0.031
   0.07874016  0.00000000  0.07874016       0.016
   0.00000000  0.03937008  0.07874016       0.031
   0.03937008  0.03937008  0.07874016       0.031
   0.07874016  0.03937008  0.07874016       0.031
  -0.03937008  0.03937008  0.07874016       0.031
   0.00000000  0.07874016  0.07874016       0.016
   0.03937008  0.07874016  0.07874016       0.031
   0.07874016  0.07874016  0.07874016       0.016
 
 k-points in reciprocal lattice and weights: B4C B11C-CBC                            
   0.00000000  0.00000000  0.00000000       0.016
   0.25000000  0.00000000  0.00000000       0.031
   0.50000000  0.00000000  0.00000000       0.016
   0.00000000  0.25000000  0.00000000       0.031
   0.25000000  0.25000000  0.00000000       0.031
   0.50000000  0.25000000  0.00000000       0.031
  -0.25000000  0.25000000  0.00000000       0.031
   0.00000000  0.50000000  0.00000000       0.016
   0.25000000  0.50000000  0.00000000       0.031
   0.50000000  0.50000000  0.00000000       0.016
   0.00000000  0.00000000  0.25000000       0.031
   0.25000000  0.00000000  0.25000000       0.031
   0.50000000  0.00000000  0.25000000       0.031
  -0.25000000  0.00000000  0.25000000       0.031
   0.00000000  0.25000000  0.25000000       0.031
   0.25000000  0.25000000  0.25000000       0.031
   0.50000000  0.25000000  0.25000000       0.031
  -0.25000000  0.25000000  0.25000000       0.031
   0.00000000  0.50000000  0.25000000       0.031
   0.25000000  0.50000000  0.25000000       0.031
   0.50000000  0.50000000  0.25000000       0.031
  -0.25000000  0.50000000  0.25000000       0.031
   0.00000000 -0.25000000  0.25000000       0.031
   0.25000000 -0.25000000  0.25000000       0.031
   0.50000000 -0.25000000  0.25000000       0.031
  -0.25000000 -0.25000000  0.25000000       0.031
   0.00000000  0.00000000  0.50000000       0.016
   0.25000000  0.00000000  0.50000000       0.031
   0.50000000  0.00000000  0.50000000       0.016
   0.00000000  0.25000000  0.50000000       0.031
   0.25000000  0.25000000  0.50000000       0.031
   0.50000000  0.25000000  0.50000000       0.031
  -0.25000000  0.25000000  0.50000000       0.031
   0.00000000  0.50000000  0.50000000       0.016
   0.25000000  0.50000000  0.50000000       0.031
   0.50000000  0.50000000  0.50000000       0.016
 
 position of ions in fractional coordinates (direct lattice) 
   0.45587999  0.83459997  0.53931999
   0.45587999  0.04190000  0.33202001
   0.45587999  0.11777000  0.61519998
   0.69524998  0.99809003  0.49551001
   0.60030001  0.52968001  0.15026000
   0.54931998  0.63409001  0.89600998
   0.56970000  0.35765001  0.93207002
   0.34876001  0.49586999  0.03313000
   0.08223999  0.01558006  0.15304001
   0.03126001  0.11998999  0.89879000
   0.05164003  0.84355003  0.93484998
   0.83069998  0.98176998  0.03591000
   0.07562006  0.53223002  0.66030997
   0.02463996  0.63664001  0.40605000
   0.04501998  0.36019999  0.44211999
   0.82406998  0.49842000  0.54316997
   0.51572001  0.99809003  0.49551001
   0.51703000  0.50432998  0.00287000
   0.99896002  0.99023002  0.00565000
   0.99234003  0.50687998  0.51292002
 
 position of ions in cartesian coordinates  (Angst):
   2.37180224  4.34216492  2.80591473
   2.37180224  0.21799272  1.72739721
   2.37180224  0.61272081  3.20069480
   3.61717009  5.19275301  2.57798498
   3.12317488  2.75576091  0.78175620
   2.85794158  3.29897373  4.66166217
   2.96397250  1.86074214  4.84927135
   1.81449021  2.57985786  0.17236512
   0.42786915  0.08105821  0.79621971
   0.16263616  0.62427073  4.67612575
   0.26866709  4.38872928  4.86373462
   4.32187447  5.10784484  0.18682859
   0.39342770  2.76902780  3.43538807
   0.12819409  3.31224062  2.11255226
   0.23422502  1.87400887  2.30021323
   4.28738062  2.59312475  2.82594499
   2.68313134  5.19275301  2.57798498
   2.68994681  2.62387253  0.01493172
   5.19727929  5.15185984  0.02939520
   5.16283753  2.63713943  2.66856387
 


--------------------------------------------------------------------------------------------------------


 k-point  1 :   0.0000 0.0000 0.0000  plane waves:    4697
 k-point  2 :   0.2500 0.0000 0.0000  plane waves:    4713
 k-point  3 :   0.5000 0.0000 0.0000  plane waves:    4700
 k-point  4 :   0.0000 0.2500 0.0000  plane waves:    4713
 k-point  5 :   0.2500 0.2500 0.0000  plane waves:    4689
 k-point  6 :   0.5000 0.2500 0.0000  plane waves:    4710
 k-point  7 :  -0.2500 0.2500 0.0000  plane waves:    4689
 k-point  8 :   0.0000 0.5000 0.0000  plane waves:    4700
 k-point  9 :   0.2500 0.5000 0.0000  plane waves:    4710
 k-point 10 :   0.5000 0.5000 0.0000  plane waves:    4684
 k-point 11 :   0.0000 0.0000 0.2500  plane waves:    4713
 k-point 12 :   0.2500 0.0000 0.2500  plane waves:    4689
 k-point 13 :   0.5000 0.0000 0.2500  plane waves:    4710
 k-point 14 :  -0.2500 0.0000 0.2500  plane waves:    4689
 k-point 15 :   0.0000 0.2500 0.2500  plane waves:    4689
 k-point 16 :   0.2500 0.2500 0.2500  plane waves:    4695
 k-point 17 :   0.5000 0.2500 0.2500  plane waves:    4700
 k-point 18 :  -0.2500 0.2500 0.2500  plane waves:    4695
 k-point 19 :   0.0000 0.5000 0.2500  plane waves:    4710
 k-point 20 :   0.2500 0.5000 0.2500  plane waves:    4700
 k-point 21 :   0.5000 0.5000 0.2500  plane waves:    4692
 k-point 22 :  -0.2500 0.5000 0.2500  plane waves:    4700
 k-point 23 :   0.0000-0.2500 0.2500  plane waves:    4689
 k-point 24 :   0.2500-0.2500 0.2500  plane waves:    4695
 k-point 25 :   0.5000-0.2500 0.2500  plane waves:    4700
 k-point 26 :  -0.2500-0.2500 0.2500  plane waves:    4695
 k-point 27 :   0.0000 0.0000 0.5000  plane waves:    4700
 k-point 28 :   0.2500 0.0000 0.5000  plane waves:    4710
 k-point 29 :   0.5000 0.0000 0.5000  plane waves:    4684
 k-point 30 :   0.0000 0.2500 0.5000  plane waves:    4710
 k-point 31 :   0.2500 0.2500 0.5000  plane waves:    4700
 k-point 32 :   0.5000 0.2500 0.5000  plane waves:    4692
 k-point 33 :  -0.2500 0.2500 0.5000  plane waves:    4700
 k-point 34 :   0.0000 0.5000 0.5000  plane waves:    4684
 k-point 35 :   0.2500 0.5000 0.5000  plane waves:    4692
 k-point 36 :   0.5000 0.5000 0.5000  plane waves:    4680

 maximum and minimum number of plane-waves per node :       614      564

 maximum number of plane-waves:      4713
 maximum index in each direction: 
   IXMAX=   10   IYMAX=   10   IZMAX=   10
   IXMIN=  -10   IYMIN=  -10   IZMIN=  -10

 NGX is ok and might be reduce to  42
 NGY is ok and might be reduce to  42
 NGZ is ok and might be reduce to  42

 parallel 3D FFT for wavefunctions:
    minimum data exchange during FFTs selected (reduces bandwidth)
 parallel 3D FFT for charge:
    minimum data exchange during FFTs selected (reduces bandwidth)


 total amount of memory used by VASP on root node    45469. kBytes
========================================================================

   base      :      30000. kBytes
   nonl-proj :       2877. kBytes
   fftplans  :       1717. kBytes
   grid      :       2838. kBytes
   one-center:          9. kBytes
   wavefun   :       8028. kBytes
 
     INWAV:  cpu time    0.00: real time    0.02
 Broyden mixing: mesh for mixing (old mesh)
   NGX = 21   NGY = 21   NGZ = 21
  (NGX  = 84   NGY  = 84   NGZ  = 84)
  gives a total of   9261 points

 initial charge density was supplied:
 charge density of overlapping atoms calculated
 number of electron      68.0000000 magnetization 
 keeping initial charge density in first step


--------------------------------------------------------------------------------------------------------


 Maximum index for augmentation-charges          668 (set IRDMAX)


--------------------------------------------------------------------------------------------------------


 First call to EWALD:  gamma=   0.341
 Maximum number of real-space cells 3x 3x 3
 Maximum number of reciprocal cells 3x 3x 3

 FEWALD executed in parallel
    FEWALD:  cpu time    0.07: real time    0.26


----------------------------------------- Iteration    1(   1)  ---------------------------------------


    POTLOK:  cpu time    0.53: real time    2.07
    SETDIJ:  cpu time    0.10: real time    0.41
     EDDAV:  cpu time  292.12: real time 1158.94
 BZINTS: Fermi energy: 15.178327; 68.000000 electrons
         Band energy: -35.655483;  BLOECHL correction: -0.086238
       DOS:  cpu time    0.05: real time    0.21
    --------------------------------------------
      LOOP:  cpu time  292.80: real time 1161.67

 eigenvalue-minimisations  :  3312
 total energy-change (2. order) : 0.3732124E+03  (-0.3834708E+04)
 number of electron      68.0000000 magnetization 
 augmentation part       68.0000000 magnetization 

 Free energy of the ion-electron system (eV)
  ---------------------------------------------------
  alpha Z        PSCENC =       162.08085648
  Ewald energy   TEWEN  =     -1801.35122518
  -Hartree energ DENC   =      -575.33642850
  -exchange      EXHF   =         0.00000000
  -V(xc)+E(xc)   XCENC  =       237.56185389
  PAW double counting   =       608.42839238     -626.87209802
  entropy T*S    EENTRO =         0.00000000
  eigenvalues    EBANDS =       -35.65548322
  atomic energy  EATOM  =      2404.35655786
  ---------------------------------------------------
  free energy    TOTEN  =       373.21242569 eV

  energy without entropy =      373.21242569  energy(sigma->0) =      373.21242569


--------------------------------------------------------------------------------------------------------




----------------------------------------- Iteration    1(   2)  ---------------------------------------


     EDDAV:  cpu time  352.87: real time 1410.24
 BZINTS: Fermi energy:  3.505070; 68.000000 electrons
         Band energy:-441.942427;  BLOECHL correction: -0.062074
       DOS:  cpu time    0.04: real time    0.17
    --------------------------------------------
      LOOP:  cpu time  353.04: real time 1410.91

 eigenvalue-minimisations  :  4166
 total energy-change (2. order) :-0.4062869E+03  (-0.3905626E+03)
 number of electron      68.0000000 magnetization 
 augmentation part       68.0000000 magnetization 

 Free energy of the ion-electron system (eV)
  ---------------------------------------------------
  alpha Z        PSCENC =       162.08085648
  Ewald energy   TEWEN  =     -1801.35122518
  -Hartree energ DENC   =      -575.33642850
  -exchange      EXHF   =         0.00000000
  -V(xc)+E(xc)   XCENC  =       237.56185389
  PAW double counting   =       608.42839238     -626.87209802
  entropy T*S    EENTRO =         0.00000000
  eigenvalues    EBANDS =      -441.94242659
  atomic energy  EATOM  =      2404.35655786
  ---------------------------------------------------
  free energy    TOTEN  =       -33.07451768 eV

  energy without entropy =      -33.07451768  energy(sigma->0) =      -33.07451768


--------------------------------------------------------------------------------------------------------




----------------------------------------- Iteration    1(   3)  ---------------------------------------


     EDDAV:  cpu time  339.04: real time 1356.37
 BZINTS: Fermi energy:  2.758505; 68.000000 electrons
         Band energy:-467.889527;  BLOECHL correction: -0.007492
       DOS:  cpu time    0.04: real time    0.19
    --------------------------------------------
      LOOP:  cpu time  339.16: real time 1356.93

 eigenvalue-minimisations  :  3942
 total energy-change (2. order) :-0.2594710E+02  (-0.2528185E+02)
 number of electron      68.0000000 magnetization 
 augmentation part       68.0000000 magnetization 

 Free energy of the ion-electron system (eV)
  ---------------------------------------------------
  alpha Z        PSCENC =       162.08085648
  Ewald energy   TEWEN  =     -1801.35122518
  -Hartree energ DENC   =      -575.33642850
  -exchange      EXHF   =         0.00000000
  -V(xc)+E(xc)   XCENC  =       237.56185389
  PAW double counting   =       608.42839238     -626.87209802
  entropy T*S    EENTRO =         0.00000000
  eigenvalues    EBANDS =      -467.88952683
  atomic energy  EATOM  =      2404.35655786
  ---------------------------------------------------
  free energy    TOTEN  =       -59.02161792 eV

  energy without entropy =      -59.02161792  energy(sigma->0) =      -59.02161792


--------------------------------------------------------------------------------------------------------




----------------------------------------- Iteration    1(   4)  ---------------------------------------


     EDDAV:  cpu time  360.20: real time 1441.06
 BZINTS: Fermi energy:  2.737359; 68.000000 electrons
         Band energy:-468.702441;  BLOECHL correction: -0.007203
       DOS:  cpu time    0.04: real time    0.17
    --------------------------------------------
      LOOP:  cpu time  360.39: real time 1441.82

 eigenvalue-minimisations  :  4320
 total energy-change (2. order) :-0.8129143E+00  (-0.8102852E+00)
 number of electron      68.0000000 magnetization 
 augmentation part       68.0000000 magnetization 

 Free energy of the ion-electron system (eV)
  ---------------------------------------------------
  alpha Z        PSCENC =       162.08085648
  Ewald energy   TEWEN  =     -1801.35122518
  -Hartree energ DENC   =      -575.33642850
  -exchange      EXHF   =         0.00000000
  -V(xc)+E(xc)   XCENC  =       237.56185389
  PAW double counting   =       608.42839238     -626.87209802
  entropy T*S    EENTRO =         0.00000000
  eigenvalues    EBANDS =      -468.70244112
  atomic energy  EATOM  =      2404.35655786
  ---------------------------------------------------
  free energy    TOTEN  =       -59.83453221 eV

  energy without entropy =      -59.83453221  energy(sigma->0) =      -59.83453221


--------------------------------------------------------------------------------------------------------




----------------------------------------- Iteration    1(   5)  ---------------------------------------


     EDDAV:  cpu time  343.75: real time 1375.25
 BZINTS: Fermi energy:  2.736200; 68.000000 electrons
         Band energy:-468.718372;  BLOECHL correction: -0.007119
       DOS:  cpu time    0.04: real time    0.17
    CHARGE:  cpu time   10.91: real time   43.64
    MIXING:  cpu time    0.13: real time    0.53
    --------------------------------------------
      LOOP:  cpu time  354.98: real time 1420.18

 eigenvalue-minimisations  :  4048
 total energy-change (2. order) :-0.1593109E-01  (-0.1599638E-01)
 number of electron      67.9999998 magnetization 
 augmentation part        1.6179534 magnetization 

 Broyden mixing:
  rms(total) = 0.17105E+01    rms(broyden)= 0.17103E+01
  rms(prec ) = 0.37435E+01
  weight for this iteration     100.00

 Free energy of the ion-electron system (eV)
  ---------------------------------------------------
  alpha Z        PSCENC =       162.08085648
  Ewald energy   TEWEN  =     -1801.35122518
  -Hartree energ DENC   =      -575.33642850
  -exchange      EXHF   =         0.00000000
  -V(xc)+E(xc)   XCENC  =       237.56185389
  PAW double counting   =       608.42839238     -626.87209802
  entropy T*S    EENTRO =         0.00000000
  eigenvalues    EBANDS =      -468.71837221
  atomic energy  EATOM  =      2404.35655786
  ---------------------------------------------------
  free energy    TOTEN  =       -59.85046330 eV

  energy without entropy =      -59.85046330  energy(sigma->0) =      -59.85046330


--------------------------------------------------------------------------------------------------------




----------------------------------------- Iteration    1(   6)  ---------------------------------------


    POTLOK:  cpu time    0.60: real time    2.40
    SETDIJ:  cpu time    0.10: real time    0.41
     EDDAV:  cpu time  327.07: real time 1308.55
 BZINTS: Fermi energy:  3.559393; 68.000000 electrons
         Band energy:-370.151891;  BLOECHL correction: -0.027040
       DOS:  cpu time    0.04: real time    0.19
    CHARGE:  cpu time   10.97: real time   43.89
    MIXING:  cpu time    0.14: real time    0.55
    --------------------------------------------
      LOOP:  cpu time  338.95: real time 1356.08

 eigenvalue-minimisations  :  3720
 total energy-change (2. order) : 0.1323207E+02  (-0.2798986E+01)
 number of electron      67.9999998 magnetization 
 augmentation part        1.5125281 magnetization 

 Broyden mixing:
  rms(total) = 0.69653E+00    rms(broyden)= 0.69652E+00
  rms(prec ) = 0.14618E+01
  weight for this iteration     100.00

 eigenvalues of (default mixing * dielectric matrix)
  average eigenvalue GAMMA=   1.3650
  1.3650

 Free energy of the ion-electron system (eV)
  ---------------------------------------------------
  alpha Z        PSCENC =       162.08085648
  Ewald energy   TEWEN  =     -1801.35122518
  -Hartree energ DENC   =      -663.55628154
  -exchange      EXHF   =         0.00000000
  -V(xc)+E(xc)   XCENC  =       242.07944332
  PAW double counting   =       872.40972211     -892.48557608
  entropy T*S    EENTRO =         0.00000000
  eigenvalues    EBANDS =      -370.15189126
  atomic energy  EATOM  =      2404.35655786
  ---------------------------------------------------
  free energy    TOTEN  =       -46.61839430 eV

  energy without entropy =      -46.61839430  energy(sigma->0) =      -46.61839430


--------------------------------------------------------------------------------------------------------




----------------------------------------- Iteration    1(   7)  ---------------------------------------


    POTLOK:  cpu time    0.58: real time    2.32
    SETDIJ:  cpu time    0.11: real time    0.45
     EDDAV:  cpu time  341.10: real time 1364.67
 BZINTS: Fermi energy:  3.902631; 68.000000 electrons
         Band energy:-333.306036;  BLOECHL correction: -0.030102
       DOS:  cpu time    0.04: real time    0.16
    CHARGE:  cpu time   10.77: real time   43.10
    MIXING:  cpu time    0.20: real time    0.79
    --------------------------------------------
      LOOP:  cpu time  352.83: real time 1411.60

 eigenvalue-minimisations  :  3952
 total energy-change (2. order) : 0.7327007E+00  (-0.1098743E+01)
 number of electron      67.9999998 magnetization 
 augmentation part        1.4305990 magnetization 

 Broyden mixing:
  rms(total) = 0.55852E+00    rms(broyden)= 0.55850E+00
  rms(prec ) = 0.16600E+01
  weight for this iteration     100.00

 eigenvalues of (default mixing * dielectric matrix)
  average eigenvalue GAMMA=   0.9653
  1.4740  0.4565

 Free energy of the ion-electron system (eV)
  ---------------------------------------------------
  alpha Z        PSCENC =       162.08085648
  Ewald energy   TEWEN  =     -1801.35122518
  -Hartree energ DENC   =      -700.90050156
  -exchange      EXHF   =         0.00000000
  -V(xc)+E(xc)   XCENC  =       244.17339727
  PAW double counting   =      1088.93724916    -1109.87599191
  entropy T*S    EENTRO =         0.00000000
  eigenvalues    EBANDS =      -333.30603571
  atomic energy  EATOM  =      2404.35655786
  ---------------------------------------------------
  free energy    TOTEN  =       -45.88569359 eV

  energy without entropy =      -45.88569359  energy(sigma->0) =      -45.88569359


--------------------------------------------------------------------------------------------------------




----------------------------------------- Iteration    1(   8)  ---------------------------------------


    POTLOK:  cpu time    0.60: real time    2.38
    SETDIJ:  cpu time    0.13: real time    0.50
