<?xml version="1.0" encoding="ISO-8859-1"?>
<modeling>
 <generator>
  <i name="program" type="string">vasp </i>
  <i name="version" type="string">5.3.5  </i>
  <i name="subversion" type="string">31Mar14 (build Nov 02 2014 15:17:37) complex                          parallel </i>
  <i name="platform" type="string">ion-Intel-MKL </i>
  <i name="date" type="string">2017 02 18 </i>
  <i name="time" type="string">12:35:19 </i>
 </generator>
 <incar>
  <i type="string" name="SYSTEM">diamond</i>
  <i type="string" name="PREC">accurate</i>
  <i type="int" name="NELM">   200</i>
  <i type="int" name="IBRION">     2</i>
  <i name="EDIFF">      0.00000001</i>
  <i name="EDIFFG">      0.00100000</i>
  <i type="int" name="NSW">   200</i>
  <i type="int" name="ISIF">     2</i>
  <i name="ENCUT">    800.00000000</i>
  <i type="int" name="ISMEAR">    -5</i>
  <i type="logical" name="LWAVE"> F  </i>
  <i type="logical" name="LCHARG"> F  </i>
  <i type="int" name="NELM">   200</i>
  <i type="string" name="GGA">PE</i>
 </incar>
 <kpoints>
  <generation param="Gamma">
   <v type="int" name="divisions">      12       12        8 </v>
   <v name="usershift">      0.00000000       0.00000000       0.00000000 </v>
   <v name="genvec1">      0.08333333       0.00000000       0.00000000 </v>
   <v name="genvec2">      0.00000000       0.08333333       0.00000000 </v>
   <v name="genvec3">      0.00000000       0.00000000       0.12500000 </v>
   <v name="shift">      0.00000000       0.00000000       0.00000000 </v>
  </generation>
  <varray name="kpointlist" >
   <v>       0.00000000       0.00000000       0.00000000 </v>
   <v>       0.08333333       0.00000000       0.00000000 </v>
   <v>       0.16666667       0.00000000       0.00000000 </v>
   <v>       0.25000000       0.00000000      -0.00000000 </v>
   <v>       0.33333333       0.00000000       0.00000000 </v>
   <v>       0.41666667       0.00000000      -0.00000000 </v>
   <v>       0.50000000       0.00000000      -0.00000000 </v>
   <v>       0.08333333       0.08333333       0.00000000 </v>
   <v>       0.16666667       0.08333333       0.00000000 </v>
   <v>       0.25000000       0.08333333      -0.00000000 </v>
   <v>       0.33333333       0.08333333       0.00000000 </v>
   <v>       0.41666667       0.08333333      -0.00000000 </v>
   <v>       0.50000000       0.08333333      -0.00000000 </v>
   <v>      -0.41666667       0.08333333       0.00000000 </v>
   <v>      -0.33333333       0.08333333      -0.00000000 </v>
   <v>      -0.25000000       0.08333333      -0.00000000 </v>
   <v>      -0.16666667       0.08333333      -0.00000000 </v>
   <v>      -0.08333333       0.08333333      -0.00000000 </v>
   <v>       0.16666667       0.16666667       0.00000000 </v>
   <v>       0.25000000       0.16666667       0.00000000 </v>
   <v>       0.33333333       0.16666667       0.00000000 </v>
   <v>       0.41666667       0.16666667      -0.00000000 </v>
   <v>       0.50000000       0.16666667      -0.00000000 </v>
   <v>      -0.41666667       0.16666667       0.00000000 </v>
   <v>      -0.33333333       0.16666667      -0.00000000 </v>
   <v>      -0.25000000       0.16666667       0.00000000 </v>
   <v>      -0.16666667       0.16666667      -0.00000000 </v>
   <v>       0.25000000       0.25000000      -0.00000000 </v>
   <v>       0.33333333       0.25000000       0.00000000 </v>
   <v>       0.41666667       0.25000000      -0.00000000 </v>
   <v>       0.50000000       0.25000000       0.00000000 </v>
   <v>      -0.41666667       0.25000000       0.00000000 </v>
   <v>      -0.33333333       0.25000000      -0.00000000 </v>
   <v>      -0.25000000       0.25000000       0.00000000 </v>
   <v>       0.33333333       0.33333333       0.00000000 </v>
   <v>       0.41666667       0.33333333       0.00000000 </v>
   <v>       0.50000000       0.33333333       0.00000000 </v>
   <v>      -0.41666667       0.33333333       0.00000000 </v>
   <v>      -0.33333333       0.33333333       0.00000000 </v>
   <v>       0.41666667       0.41666667      -0.00000000 </v>
   <v>       0.50000000       0.41666667       0.00000000 </v>
   <v>      -0.41666667       0.41666667       0.00000000 </v>
   <v>       0.50000000       0.50000000      -0.00000000 </v>
   <v>       0.00000000       0.00000000       0.12500000 </v>
   <v>       0.08333333       0.00000000       0.12500000 </v>
   <v>       0.16666667       0.00000000       0.12500000 </v>
   <v>       0.25000000       0.00000000       0.12500000 </v>
   <v>       0.33333333       0.00000000       0.12500000 </v>
   <v>       0.41666667       0.00000000       0.12500000 </v>
   <v>       0.50000000       0.00000000       0.12500000 </v>
   <v>      -0.41666667      -0.00000000       0.12500000 </v>
   <v>      -0.33333333      -0.00000000       0.12500000 </v>
   <v>      -0.25000000      -0.00000000       0.12500000 </v>
   <v>      -0.16666667      -0.00000000       0.12500000 </v>
   <v>      -0.08333333      -0.00000000       0.12500000 </v>
   <v>       0.08333333       0.08333333       0.12500000 </v>
   <v>       0.16666667       0.08333333       0.12500000 </v>
   <v>       0.25000000       0.08333333       0.12500000 </v>
   <v>       0.33333333       0.08333333       0.12500000 </v>
   <v>       0.41666667       0.08333333       0.12500000 </v>
   <v>       0.50000000       0.08333333       0.12500000 </v>
   <v>      -0.41666667       0.08333333       0.12500000 </v>
   <v>      -0.33333333       0.08333333       0.12500000 </v>
   <v>      -0.25000000       0.08333333       0.12500000 </v>
   <v>      -0.16666667       0.08333333       0.12500000 </v>
   <v>      -0.08333333       0.08333333       0.12500000 </v>
   <v>       0.16666667       0.16666667       0.12500000 </v>
   <v>       0.33333333       0.16666667       0.12500000 </v>
   <v>       0.41666667       0.16666667       0.12500000 </v>
   <v>       0.50000000       0.16666667       0.12500000 </v>
   <v>      -0.41666667       0.16666667       0.12500000 </v>
   <v>      -0.33333333       0.16666667       0.12500000 </v>
   <v>      -0.25000000       0.16666667       0.12500000 </v>
   <v>      -0.16666667       0.16666667       0.12500000 </v>
   <v>      -0.08333333       0.16666667       0.12500000 </v>
   <v>       0.33333333       0.25000000       0.12500000 </v>
   <v>       0.41666667       0.25000000       0.12500000 </v>
   <v>       0.50000000       0.25000000       0.12500000 </v>
   <v>      -0.41666667       0.25000000       0.12500000 </v>
   <v>       0.33333333       0.33333333       0.12500000 </v>
   <v>       0.41666667       0.33333333       0.12500000 </v>
   <v>       0.50000000       0.33333333       0.12500000 </v>
   <v>      -0.41666667       0.33333333       0.12500000 </v>
   <v>      -0.33333333       0.33333333       0.12500000 </v>
   <v>      -0.25000000       0.33333333       0.12500000 </v>
   <v>      -0.16666667       0.33333333       0.12500000 </v>
   <v>      -0.08333333       0.33333333       0.12500000 </v>
   <v>       0.41666667       0.41666667       0.12500000 </v>
   <v>       0.50000000       0.41666667       0.12500000 </v>
   <v>      -0.41666667       0.41666667       0.12500000 </v>
   <v>      -0.33333333       0.41666667       0.12500000 </v>
   <v>      -0.25000000       0.41666667       0.12500000 </v>
   <v>      -0.16666667       0.41666667       0.12500000 </v>
   <v>      -0.08333333       0.41666667       0.12500000 </v>
   <v>       0.50000000       0.50000000       0.12500000 </v>
   <v>      -0.41666667       0.50000000       0.12500000 </v>
   <v>      -0.33333333       0.50000000       0.12500000 </v>
   <v>      -0.25000000       0.50000000       0.12500000 </v>
   <v>      -0.16666667       0.50000000       0.12500000 </v>
   <v>      -0.08333333       0.50000000       0.12500000 </v>
   <v>      -0.41666667      -0.41666667       0.12500000 </v>
   <v>      -0.33333333      -0.41666667       0.12500000 </v>
   <v>      -0.25000000      -0.41666667       0.12500000 </v>
   <v>      -0.16666667      -0.41666667       0.12500000 </v>
   <v>      -0.08333333      -0.41666667       0.12500000 </v>
   <v>      -0.33333333      -0.33333333       0.12500000 </v>
   <v>      -0.25000000      -0.33333333       0.12500000 </v>
   <v>      -0.16666667      -0.33333333       0.12500000 </v>
   <v>      -0.08333333      -0.33333333       0.12500000 </v>
   <v>      -0.25000000      -0.25000000       0.12500000 </v>
   <v>      -0.16666667      -0.25000000       0.12500000 </v>
   <v>      -0.08333333      -0.25000000       0.12500000 </v>
   <v>      -0.16666667      -0.16666667       0.12500000 </v>
   <v>      -0.08333333      -0.16666667       0.12500000 </v>
   <v>      -0.08333333      -0.08333333       0.12500000 </v>
   <v>       0.16666667       0.08333333       0.25000000 </v>
   <v>       0.33333333       0.08333333       0.25000000 </v>
   <v>       0.41666667       0.08333333       0.25000000 </v>
   <v>       0.50000000       0.08333333       0.25000000 </v>
   <v>      -0.41666667       0.08333333       0.25000000 </v>
   <v>      -0.33333333       0.08333333       0.25000000 </v>
   <v>      -0.25000000       0.08333333       0.25000000 </v>
   <v>      -0.16666667       0.08333333       0.25000000 </v>
   <v>      -0.08333333       0.08333333       0.25000000 </v>
   <v>       0.41666667       0.33333333       0.25000000 </v>
   <v>      -0.41666667       0.33333333       0.25000000 </v>
   <v>      -0.33333333       0.33333333       0.25000000 </v>
   <v>      -0.25000000       0.33333333       0.25000000 </v>
   <v>      -0.16666667       0.33333333       0.25000000 </v>
   <v>      -0.08333333       0.33333333       0.25000000 </v>
   <v>      -0.41666667       0.41666667       0.25000000 </v>
   <v>      -0.33333333       0.41666667       0.25000000 </v>
   <v>      -0.25000000       0.41666667       0.25000000 </v>
   <v>      -0.16666667       0.41666667       0.25000000 </v>
   <v>      -0.25000000       0.50000000       0.25000000 </v>
   <v>      -0.33333333      -0.41666667       0.25000000 </v>
   <v>       0.00000000       0.00000000       0.37500000 </v>
   <v>       0.08333333       0.00000000       0.37500000 </v>
   <v>       0.16666667       0.00000000       0.37500000 </v>
   <v>       0.33333333       0.00000000       0.37500000 </v>
   <v>       0.41666667       0.00000000       0.37500000 </v>
   <v>      -0.41666667      -0.00000000       0.37500000 </v>
   <v>      -0.33333333      -0.00000000       0.37500000 </v>
   <v>      -0.25000000      -0.00000000       0.37500000 </v>
   <v>      -0.16666667      -0.00000000       0.37500000 </v>
   <v>      -0.08333333      -0.00000000       0.37500000 </v>
   <v>       0.08333333       0.08333333       0.37500000 </v>
   <v>       0.16666667       0.08333333       0.37500000 </v>
   <v>       0.33333333       0.08333333       0.37500000 </v>
   <v>       0.41666667       0.08333333       0.37500000 </v>
   <v>      -0.41666667       0.08333333       0.37500000 </v>
   <v>      -0.33333333       0.08333333       0.37500000 </v>
   <v>      -0.25000000       0.08333333       0.37500000 </v>
   <v>      -0.16666667       0.08333333       0.37500000 </v>
   <v>      -0.08333333       0.08333333       0.37500000 </v>
   <v>       0.16666667       0.16666667       0.37500000 </v>
   <v>       0.33333333       0.16666667       0.37500000 </v>
   <v>       0.41666667       0.16666667       0.37500000 </v>
   <v>      -0.41666667       0.16666667       0.37500000 </v>
   <v>      -0.33333333       0.16666667       0.37500000 </v>
   <v>      -0.25000000       0.16666667       0.37500000 </v>
   <v>      -0.16666667       0.16666667       0.37500000 </v>
   <v>      -0.08333333       0.16666667       0.37500000 </v>
   <v>       0.33333333       0.33333333       0.37500000 </v>
   <v>       0.41666667       0.33333333       0.37500000 </v>
   <v>      -0.41666667       0.33333333       0.37500000 </v>
   <v>      -0.33333333       0.33333333       0.37500000 </v>
   <v>      -0.25000000       0.33333333       0.37500000 </v>
   <v>      -0.16666667       0.33333333       0.37500000 </v>
   <v>      -0.08333333       0.33333333       0.37500000 </v>
   <v>       0.41666667       0.41666667       0.37500000 </v>
   <v>      -0.41666667       0.41666667       0.37500000 </v>
   <v>      -0.33333333       0.41666667       0.37500000 </v>
   <v>      -0.16666667       0.41666667       0.37500000 </v>
   <v>      -0.08333333       0.41666667       0.37500000 </v>
   <v>      -0.41666667      -0.41666667       0.37500000 </v>
   <v>      -0.33333333      -0.41666667       0.37500000 </v>
   <v>      -0.16666667      -0.41666667       0.37500000 </v>
   <v>      -0.08333333      -0.41666667       0.37500000 </v>
   <v>      -0.33333333      -0.33333333       0.37500000 </v>
   <v>      -0.16666667      -0.33333333       0.37500000 </v>
   <v>      -0.08333333      -0.33333333       0.37500000 </v>
   <v>      -0.16666667      -0.25000000       0.37500000 </v>
   <v>      -0.16666667      -0.16666667       0.37500000 </v>
   <v>      -0.08333333      -0.16666667       0.37500000 </v>
   <v>      -0.08333333      -0.08333333       0.37500000 </v>
   <v>       0.16666667       0.08333333       0.50000000 </v>
   <v>       0.41666667       0.08333333       0.50000000 </v>
   <v>      -0.41666667       0.08333333       0.50000000 </v>
   <v>      -0.33333333       0.08333333       0.50000000 </v>
   <v>      -0.08333333       0.08333333       0.50000000 </v>
   <v>       0.33333333       0.16666667       0.50000000 </v>
   <v>      -0.33333333       0.16666667       0.50000000 </v>
   <v>      -0.16666667       0.16666667       0.50000000 </v>
  </varray>
  <varray name="weights" >
   <v>       0.00086806 </v>
   <v>       0.00347222 </v>
   <v>       0.00347222 </v>
   <v>       0.00694444 </v>
   <v>       0.00347222 </v>
   <v>       0.00347222 </v>
   <v>       0.00347222 </v>
   <v>       0.00173611 </v>
   <v>       0.00347222 </v>
   <v>       0.01041667 </v>
   <v>       0.00694444 </v>
   <v>       0.00347222 </v>
   <v>       0.01041667 </v>
   <v>       0.00694444 </v>
   <v>       0.00347222 </v>
   <v>       0.01041667 </v>
   <v>       0.00694444 </v>
   <v>       0.00173611 </v>
   <v>       0.00173611 </v>
   <v>       0.01041667 </v>
   <v>       0.00347222 </v>
   <v>       0.00694444 </v>
   <v>       0.01041667 </v>
   <v>       0.00347222 </v>
   <v>       0.00694444 </v>
   <v>       0.01041667 </v>
   <v>       0.00173611 </v>
   <v>       0.00520833 </v>
   <v>       0.01041667 </v>
   <v>       0.01041667 </v>
   <v>       0.02083333 </v>
   <v>       0.01041667 </v>
   <v>       0.01041667 </v>
   <v>       0.01041667 </v>
   <v>       0.00173611 </v>
   <v>       0.00347222 </v>
   <v>       0.01041667 </v>
   <v>       0.00694444 </v>
   <v>       0.00173611 </v>
   <v>       0.00173611 </v>
   <v>       0.01041667 </v>
   <v>       0.00173611 </v>
   <v>       0.00260417 </v>
   <v>       0.00173611 </v>
   <v>       0.00347222 </v>
   <v>       0.00347222 </v>
   <v>       0.00520833 </v>
   <v>       0.00347222 </v>
   <v>       0.00347222 </v>
   <v>       0.00520833 </v>
   <v>       0.00347222 </v>
   <v>       0.00347222 </v>
   <v>       0.00520833 </v>
   <v>       0.00347222 </v>
   <v>       0.00347222 </v>
   <v>       0.00173611 </v>
   <v>       0.00347222 </v>
   <v>       0.00694444 </v>
   <v>       0.00347222 </v>
   <v>       0.00347222 </v>
   <v>       0.00694444 </v>
   <v>       0.00347222 </v>
   <v>       0.00347222 </v>
   <v>       0.00694444 </v>
   <v>       0.00347222 </v>
   <v>       0.00347222 </v>
   <v>       0.00173611 </v>
   <v>       0.00347222 </v>
   <v>       0.00347222 </v>
   <v>       0.00694444 </v>
   <v>       0.00347222 </v>
   <v>       0.00347222 </v>
   <v>       0.00694444 </v>
   <v>       0.00347222 </v>
   <v>       0.00347222 </v>
   <v>       0.00694444 </v>
   <v>       0.00694444 </v>
   <v>       0.01041667 </v>
   <v>       0.00694444 </v>
   <v>       0.00173611 </v>
   <v>       0.00347222 </v>
   <v>       0.00694444 </v>
   <v>       0.00347222 </v>
   <v>       0.00347222 </v>
   <v>       0.00694444 </v>
   <v>       0.00347222 </v>
   <v>       0.00347222 </v>
   <v>       0.00173611 </v>
   <v>       0.00694444 </v>
   <v>       0.00347222 </v>
   <v>       0.00347222 </v>
   <v>       0.00694444 </v>
   <v>       0.00347222 </v>
   <v>       0.00347222 </v>
   <v>       0.00520833 </v>
   <v>       0.00694444 </v>
   <v>       0.00694444 </v>
   <v>       0.01041667 </v>
   <v>       0.00694444 </v>
   <v>       0.00694444 </v>
   <v>       0.00173611 </v>
   <v>       0.00347222 </v>
   <v>       0.00694444 </v>
   <v>       0.00347222 </v>
   <v>       0.00347222 </v>
   <v>       0.00173611 </v>
   <v>       0.00694444 </v>
   <v>       0.00347222 </v>
   <v>       0.00347222 </v>
   <v>       0.00520833 </v>
   <v>       0.00694444 </v>
   <v>       0.00694444 </v>
   <v>       0.00173611 </v>
   <v>       0.00347222 </v>
   <v>       0.00173611 </v>
   <v>       0.00347222 </v>
   <v>       0.00694444 </v>
   <v>       0.00694444 </v>
   <v>       0.02083333 </v>
   <v>       0.01388889 </v>
   <v>       0.00694444 </v>
   <v>       0.02083333 </v>
   <v>       0.00694444 </v>
   <v>       0.00694444 </v>
   <v>       0.00694444 </v>
   <v>       0.00694444 </v>
   <v>       0.00694444 </v>
   <v>       0.02083333 </v>
   <v>       0.01388889 </v>
   <v>       0.00347222 </v>
   <v>       0.00694444 </v>
   <v>       0.00694444 </v>
   <v>       0.02083333 </v>
   <v>       0.00347222 </v>
   <v>       0.00520833 </v>
   <v>       0.00347222 </v>
   <v>       0.00173611 </v>
   <v>       0.00347222 </v>
   <v>       0.00347222 </v>
   <v>       0.00347222 </v>
   <v>       0.00347222 </v>
   <v>       0.00347222 </v>
   <v>       0.00347222 </v>
   <v>       0.00520833 </v>
   <v>       0.00347222 </v>
   <v>       0.00347222 </v>
   <v>       0.00173611 </v>
   <v>       0.00347222 </v>
   <v>       0.00347222 </v>
   <v>       0.00347222 </v>
   <v>       0.00347222 </v>
   <v>       0.00347222 </v>
   <v>       0.00694444 </v>
   <v>       0.00347222 </v>
   <v>       0.00347222 </v>
   <v>       0.00173611 </v>
   <v>       0.00347222 </v>
   <v>       0.00347222 </v>
   <v>       0.00347222 </v>
   <v>       0.00347222 </v>
   <v>       0.00694444 </v>
   <v>       0.00347222 </v>
   <v>       0.00347222 </v>
   <v>       0.00173611 </v>
   <v>       0.00347222 </v>
   <v>       0.00347222 </v>
   <v>       0.00347222 </v>
   <v>       0.00694444 </v>
   <v>       0.00347222 </v>
   <v>       0.00347222 </v>
   <v>       0.00173611 </v>
   <v>       0.00347222 </v>
   <v>       0.00347222 </v>
   <v>       0.00347222 </v>
   <v>       0.00347222 </v>
   <v>       0.00173611 </v>
   <v>       0.00347222 </v>
   <v>       0.00347222 </v>
   <v>       0.00347222 </v>
   <v>       0.00173611 </v>
   <v>       0.00347222 </v>
   <v>       0.00347222 </v>
   <v>       0.00694444 </v>
   <v>       0.00173611 </v>
   <v>       0.00347222 </v>
   <v>       0.00173611 </v>
   <v>       0.00694444 </v>
   <v>       0.00347222 </v>
   <v>       0.00347222 </v>
   <v>       0.00694444 </v>
   <v>       0.00347222 </v>
   <v>       0.00347222 </v>
   <v>       0.00347222 </v>
   <v>       0.00347222 </v>
  </varray>
  <varray name="tetrahedronlist"  type="int" >
   <v type="int" >        4        1        2        8       56 </v>
   <v type="int" >        4        1        2       45       56 </v>
   <v type="int" >        4        1       44       45       56 </v>
   <v type="int" >        4        2        8        9       57 </v>
   <v type="int" >        4        2        3        9       57 </v>
   <v type="int" >        4        2        3       46       57 </v>
   <v type="int" >        4        2        8       56       57 </v>
   <v type="int" >        4        2       45       56       57 </v>
   <v type="int" >        4        2       45       46       57 </v>
   <v type="int" >        4        3        9       10       58 </v>
   <v type="int" >        4        3        4       10       58 </v>
   <v type="int" >        4        3        4       47       58 </v>
   <v type="int" >        4        3        9       57       58 </v>
   <v type="int" >        4        3       46       57       58 </v>
   <v type="int" >        4        3       46       47       58 </v>
   <v type="int" >        4        4       10       11       59 </v>
   <v type="int" >        4        4        5       11       59 </v>
   <v type="int" >        4        4        5       48       59 </v>
   <v type="int" >        4        4       10       58       59 </v>
   <v type="int" >        4        4       47       58       59 </v>
   <v type="int" >        4        4       47       48       59 </v>
   <v type="int" >        4        5       11       12       60 </v>
   <v type="int" >        4        5        6       12       60 </v>
   <v type="int" >        4        5        6       49       60 </v>
   <v type="int" >        4        5       11       59       60 </v>
   <v type="int" >        4        5       48       59       60 </v>
   <v type="int" >        4        5       48       49       60 </v>
   <v type="int" >        4        6       12       13       61 </v>
   <v type="int" >        4        6        7       13       61 </v>
   <v type="int" >        4        6        7       50       61 </v>
   <v type="int" >        4        6       12       60       61 </v>
   <v type="int" >        4        6       49       60       61 </v>
   <v type="int" >        4        6       49       50       61 </v>
   <v type="int" >        4        7       13       14       62 </v>
   <v type="int" >        4        6        7       14       62 </v>
   <v type="int" >        4        6        7       51       62 </v>
   <v type="int" >        4        7       13       61       62 </v>
   <v type="int" >        4        7       50       61       62 </v>
   <v type="int" >        4        7       50       51       62 </v>
   <v type="int" >        4        6       14       15       63 </v>
   <v type="int" >        4        5        6       15       63 </v>
   <v type="int" >        4        5        6       52       63 </v>
   <v type="int" >        4        6       14       62       63 </v>
   <v type="int" >        4        6       51       62       63 </v>
   <v type="int" >        4        6       51       52       63 </v>
   <v type="int" >        4        5       15       16       64 </v>
   <v type="int" >        4        4        5       16       64 </v>
   <v type="int" >        4        4        5       53       64 </v>
   <v type="int" >        4        5       15       63       64 </v>
   <v type="int" >        4        5       52       63       64 </v>
   <v type="int" >        4        5       52       53       64 </v>
   <v type="int" >        4        4       16       17       65 </v>
   <v type="int" >        4        3        4       17       65 </v>
   <v type="int" >        4        3        4       54       65 </v>
   <v type="int" >        4        4       16       64       65 </v>
   <v type="int" >        4        4       53       64       65 </v>
   <v type="int" >        4        4       53       54       65 </v>
   <v type="int" >        4        3       17       18       66 </v>
   <v type="int" >        4        2        3       18       66 </v>
   <v type="int" >        4        2        3       55       66 </v>
   <v type="int" >        4        3       17       65       66 </v>
   <v type="int" >        4        3       54       65       66 </v>
   <v type="int" >        4        3       54       55       66 </v>
   <v type="int" >        4        2        2       18       45 </v>
   <v type="int" >        4        1        2        2       45 </v>
   <v type="int" >        4        1        2       44       45 </v>
   <v type="int" >        4        2       18       45       66 </v>
   <v type="int" >        4        2       45       55       66 </v>
   <v type="int" >        4        2       44       45       55 </v>
   <v type="int" >        4        8        9       19       67 </v>
   <v type="int" >        4        8        9       57       67 </v>
   <v type="int" >        4        8       56       57       67 </v>
   <v type="int" >        4        9       19       20       58 </v>
   <v type="int" >        4        9       10       20       58 </v>
   <v type="int" >        4        9       10       58       58 </v>
   <v type="int" >        4        9       19       58       67 </v>
   <v type="int" >        4        9       57       58       67 </v>
   <v type="int" >        4        9       57       58       58 </v>
   <v type="int" >        4       10       20       21       68 </v>
   <v type="int" >        4       10       11       21       68 </v>
   <v type="int" >        4       10       11       59       68 </v>
   <v type="int" >        4       10       20       58       68 </v>
   <v type="int" >        4       10       58       58       68 </v>
   <v type="int" >        4       10       58       59       68 </v>
   <v type="int" >        4       11       21       22       69 </v>
   <v type="int" >        4       11       12       22       69 </v>
   <v type="int" >        4       11       12       60       69 </v>
   <v type="int" >        4       11       21       68       69 </v>
   <v type="int" >        4       11       59       68       69 </v>
   <v type="int" >        4       11       59       60       69 </v>
   <v type="int" >        4       12       22       23       70 </v>
   <v type="int" >        4       12       13       23       70 </v>
   <v type="int" >        4       12       13       61       70 </v>
   <v type="int" >        4       12       22       69       70 </v>
   <v type="int" >        4       12       60       69       70 </v>
   <v type="int" >        4       12       60       61       70 </v>
   <v type="int" >        4       13       23       24       71 </v>
   <v type="int" >        4       13       14       24       71 </v>
   <v type="int" >        4       13       14       62       71 </v>
   <v type="int" >        4       13       23       70       71 </v>
   <v type="int" >        4       13       61       70       71 </v>
   <v type="int" >        4       13       61       62       71 </v>
   <v type="int" >        4       14       24       25       72 </v>
   <v type="int" >        4       14       15       25       72 </v>
   <v type="int" >        4       14       15       63       72 </v>
   <v type="int" >        4       14       24       71       72 </v>
   <v type="int" >        4       14       62       71       72 </v>
   <v type="int" >        4       14       62       63       72 </v>
   <v type="int" >        4       15       25       26       73 </v>
   <v type="int" >        4       15       16       26       73 </v>
   <v type="int" >        4       15       16       64       73 </v>
   <v type="int" >        4       15       25       72       73 </v>
   <v type="int" >        4       15       63       72       73 </v>
   <v type="int" >        4       15       63       64       73 </v>
   <v type="int" >        4       16       26       27       74 </v>
   <v type="int" >        4       16       17       27       74 </v>
   <v type="int" >        4       16       17       65       74 </v>
   <v type="int" >        4       16       26       73       74 </v>
   <v type="int" >        4       16       64       73       74 </v>
   <v type="int" >        4       16       64       65       74 </v>
   <v type="int" >        4       17       17       27       75 </v>
   <v type="int" >        4       17       17       18       75 </v>
   <v type="int" >        4       17       18       66       75 </v>
   <v type="int" >        4       17       27       74       75 </v>
   <v type="int" >        4       17       65       74       75 </v>
   <v type="int" >        4       17       65       66       75 </v>
   <v type="int" >        4        3       17       18       46 </v>
   <v type="int" >        4        2        3       18       46 </v>
   <v type="int" >        4        2       18       45       46 </v>
   <v type="int" >        4       17       18       46       75 </v>
   <v type="int" >        4       18       46       66       75 </v>
   <v type="int" >        4       18       45       46       66 </v>
   <v type="int" >        4       19       20       28       47 </v>
   <v type="int" >        4       19       20       47       58 </v>
   <v type="int" >        4       19       47       58       67 </v>
   <v type="int" >        4       20       28       29       76 </v>
   <v type="int" >        4       20       21       29       76 </v>
   <v type="int" >        4       20       21       68       76 </v>
   <v type="int" >        4       20       28       47       76 </v>
   <v type="int" >        4       20       47       58       76 </v>
   <v type="int" >        4       20       58       68       76 </v>
   <v type="int" >        4       21       29       30       77 </v>
   <v type="int" >        4       21       22       30       77 </v>
   <v type="int" >        4       21       22       69       77 </v>
   <v type="int" >        4       21       29       76       77 </v>
   <v type="int" >        4       21       68       76       77 </v>
   <v type="int" >        4       21       68       69       77 </v>
   <v type="int" >        4       22       30       31       78 </v>
   <v type="int" >        4       22       23       31       78 </v>
   <v type="int" >        4       22       23       70       78 </v>
   <v type="int" >        4       22       30       77       78 </v>
   <v type="int" >        4       22       69       77       78 </v>
   <v type="int" >        4       22       69       70       78 </v>
   <v type="int" >        4       23       31       32       79 </v>
   <v type="int" >        4       23       24       32       79 </v>
   <v type="int" >        4       23       24       71       79 </v>
   <v type="int" >        4       23       31       78       79 </v>
   <v type="int" >        4       23       70       78       79 </v>
   <v type="int" >        4       23       70       71       79 </v>
   <v type="int" >        4       24       32       33       79 </v>
   <v type="int" >        4       24       25       33       79 </v>
   <v type="int" >        4       24       25       72       79 </v>
   <v type="int" >        4       24       32       79       79 </v>
   <v type="int" >        4       24       71       79       79 </v>
   <v type="int" >        4       24       71       72       79 </v>
   <v type="int" >        4       25       33       34       78 </v>
   <v type="int" >        4       25       26       34       78 </v>
   <v type="int" >        4       25       26       73       78 </v>
   <v type="int" >        4       25       33       78       79 </v>
   <v type="int" >        4       25       72       78       79 </v>
   <v type="int" >        4       25       72       73       78 </v>
   <v type="int" >        4       26       26       34       77 </v>
   <v type="int" >        4       26       26       27       77 </v>
   <v type="int" >        4       26       27       74       77 </v>
   <v type="int" >        4       26       34       77       78 </v>
   <v type="int" >        4       26       73       77       78 </v>
   <v type="int" >        4       26       73       74       77 </v>
   <v type="int" >        4       16       26       27       76 </v>
   <v type="int" >        4       16       17       27       76 </v>
   <v type="int" >        4       17       27       75       76 </v>
   <v type="int" >        4       26       27       76       77 </v>
   <v type="int" >        4       27       74       76       77 </v>
   <v type="int" >        4       27       74       75       76 </v>
   <v type="int" >        4        4       16       17       47 </v>
   <v type="int" >        4        3        4       17       47 </v>
   <v type="int" >        4        3       17       46       47 </v>
   <v type="int" >        4       16       17       47       76 </v>
   <v type="int" >        4       17       47       75       76 </v>
   <v type="int" >        4       17       46       47       75 </v>
   <v type="int" >        4       28       29       35       80 </v>
   <v type="int" >        4       28       29       76       80 </v>
   <v type="int" >        4       28       47       76       80 </v>
   <v type="int" >        4       29       35       36       81 </v>
   <v type="int" >        4       29       30       36       81 </v>
   <v type="int" >        4       29       30       77       81 </v>
   <v type="int" >        4       29       35       80       81 </v>
   <v type="int" >        4       29       76       80       81 </v>
   <v type="int" >        4       29       76       77       81 </v>
   <v type="int" >        4       30       36       37       82 </v>
   <v type="int" >        4       30       31       37       82 </v>
   <v type="int" >        4       30       31       78       82 </v>
   <v type="int" >        4       30       36       81       82 </v>
   <v type="int" >        4       30       77       81       82 </v>
   <v type="int" >        4       30       77       78       82 </v>
   <v type="int" >        4       31       37       38       83 </v>
   <v type="int" >        4       31       32       38       83 </v>
   <v type="int" >        4       31       32       79       83 </v>
   <v type="int" >        4       31       37       82       83 </v>
   <v type="int" >        4       31       78       82       83 </v>
   <v type="int" >        4       31       78       79       83 </v>
   <v type="int" >        4       32       38       39       84 </v>
   <v type="int" >        4       32       33       39       84 </v>
   <v type="int" >        4       32       33       79       84 </v>
   <v type="int" >        4       32       38       83       84 </v>
   <v type="int" >        4       32       79       83       84 </v>
   <v type="int" >        4       32       79       79       84 </v>
   <v type="int" >        4       33       33       39       85 </v>
   <v type="int" >        4       33       33       34       85 </v>
   <v type="int" >        4       33       34       78       85 </v>
   <v type="int" >        4       33       39       84       85 </v>
   <v type="int" >        4       33       79       84       85 </v>
   <v type="int" >        4       33       78       79       85 </v>
   <v type="int" >        4       25       33       34       86 </v>
   <v type="int" >        4       25       26       34       86 </v>
   <v type="int" >        4       26       34       77       86 </v>
   <v type="int" >        4       33       34       85       86 </v>
   <v type="int" >        4       34       78       85       86 </v>
   <v type="int" >        4       34       77       78       86 </v>
   <v type="int" >        4       15       25       26       87 </v>
   <v type="int" >        4       15       16       26       87 </v>
   <v type="int" >        4       16       26       76       87 </v>
   <v type="int" >        4       25       26       86       87 </v>
   <v type="int" >        4       26       77       86       87 </v>
   <v type="int" >        4       26       76       77       87 </v>
   <v type="int" >        4        5       15       16       48 </v>
   <v type="int" >        4        4        5       16       48 </v>
   <v type="int" >        4        4       16       47       48 </v>
   <v type="int" >        4       15       16       48       87 </v>
   <v type="int" >        4       16       48       76       87 </v>
   <v type="int" >        4       16       47       48       76 </v>
   <v type="int" >        4       35       36       40       88 </v>
   <v type="int" >        4       35       36       81       88 </v>
   <v type="int" >        4       35       80       81       88 </v>
   <v type="int" >        4       36       40       41       89 </v>
   <v type="int" >        4       36       37       41       89 </v>
   <v type="int" >        4       36       37       82       89 </v>
   <v type="int" >        4       36       40       88       89 </v>
   <v type="int" >        4       36       81       88       89 </v>
   <v type="int" >        4       36       81       82       89 </v>
   <v type="int" >        4       37       41       42       90 </v>
   <v type="int" >        4       37       38       42       90 </v>
   <v type="int" >        4       37       38       83       90 </v>
   <v type="int" >        4       37       41       89       90 </v>
   <v type="int" >        4       37       82       89       90 </v>
   <v type="int" >        4       37       82       83       90 </v>
   <v type="int" >        4       38       38       42       91 </v>
   <v type="int" >        4       38       38       39       91 </v>
   <v type="int" >        4       38       39       84       91 </v>
   <v type="int" >        4       38       42       90       91 </v>
   <v type="int" >        4       38       83       90       91 </v>
   <v type="int" >        4       38       83       84       91 </v>
   <v type="int" >        4       32       38       39       92 </v>
   <v type="int" >        4       32       33       39       92 </v>
   <v type="int" >        4       33       39       85       92 </v>
   <v type="int" >        4       38       39       91       92 </v>
   <v type="int" >        4       39       84       91       92 </v>
   <v type="int" >        4       39       84       85       92 </v>
   <v type="int" >        4       24       32       33       93 </v>
   <v type="int" >        4       24       25       33       93 </v>
   <v type="int" >        4       25       33       86       93 </v>
   <v type="int" >        4       32       33       92       93 </v>
   <v type="int" >        4       33       85       92       93 </v>
   <v type="int" >        4       33       85       86       93 </v>
   <v type="int" >        4       14       24       25       94 </v>
   <v type="int" >        4       14       15       25       94 </v>
   <v type="int" >        4       15       25       87       94 </v>
   <v type="int" >        4       24       25       93       94 </v>
   <v type="int" >        4       25       86       93       94 </v>
   <v type="int" >        4       25       86       87       94 </v>
   <v type="int" >        4        6       14       15       49 </v>
   <v type="int" >        4        5        6       15       49 </v>
   <v type="int" >        4        5       15       48       49 </v>
   <v type="int" >        4       14       15       49       94 </v>
   <v type="int" >        4       15       49       87       94 </v>
   <v type="int" >        4       15       48       49       87 </v>
   <v type="int" >        4       40       41       43       95 </v>
   <v type="int" >        4       40       41       89       95 </v>
   <v type="int" >        4       40       88       89       95 </v>
   <v type="int" >        8       41       41       43       96 </v>
   <v type="int" >        4       41       41       42       96 </v>
   <v type="int" >        4       41       42       90       96 </v>
   <v type="int" >        8       41       43       95       96 </v>
   <v type="int" >        4       41       89       95       96 </v>
   <v type="int" >        4       41       89       90       96 </v>
   <v type="int" >        4       37       41       42       97 </v>
   <v type="int" >        4       37       38       42       97 </v>
   <v type="int" >        4       38       42       91       97 </v>
   <v type="int" >        4       41       42       96       97 </v>
   <v type="int" >        4       42       90       96       97 </v>
   <v type="int" >        4       42       90       91       97 </v>
   <v type="int" >        4       31       37       38       98 </v>
   <v type="int" >        4       31       32       38       98 </v>
   <v type="int" >        4       32       38       92       98 </v>
   <v type="int" >        4       37       38       97       98 </v>
   <v type="int" >        4       38       91       97       98 </v>
   <v type="int" >        4       38       91       92       98 </v>
   <v type="int" >        4       23       31       32       99 </v>
   <v type="int" >        4       23       24       32       99 </v>
   <v type="int" >        4       24       32       93       99 </v>
   <v type="int" >        4       31       32       98       99 </v>
   <v type="int" >        4       32       92       98       99 </v>
   <v type="int" >        4       32       92       93       99 </v>
   <v type="int" >        4       13       23       24      100 </v>
   <v type="int" >        4       13       14       24      100 </v>
   <v type="int" >        4       14       24       94      100 </v>
   <v type="int" >        4       23       24       99      100 </v>
   <v type="int" >        4       24       93       99      100 </v>
   <v type="int" >        4       24       93       94      100 </v>
   <v type="int" >        8        7       13       14       50 </v>
   <v type="int" >        4        6        7       14       50 </v>
   <v type="int" >        4        6       14       49       50 </v>
   <v type="int" >        8       13       14       50      100 </v>
   <v type="int" >        4       14       50       94      100 </v>
   <v type="int" >        4       14       49       50       94 </v>
   <v type="int" >        4       40       41       43      101 </v>
   <v type="int" >        4       41       43       96      101 </v>
   <v type="int" >        4       43       95       96      101 </v>
   <v type="int" >        4       36       40       41      102 </v>
   <v type="int" >        4       36       37       41      102 </v>
   <v type="int" >        4       37       41       97      102 </v>
   <v type="int" >        4       40       41      101      102 </v>
   <v type="int" >        4       41       96      101      102 </v>
   <v type="int" >        4       41       96       97      102 </v>
   <v type="int" >        4       30       36       37      103 </v>
   <v type="int" >        4       30       31       37      103 </v>
   <v type="int" >        4       31       37       98      103 </v>
   <v type="int" >        4       36       37      102      103 </v>
   <v type="int" >        4       37       97      102      103 </v>
   <v type="int" >        4       37       97       98      103 </v>
   <v type="int" >        4       22       30       31      104 </v>
   <v type="int" >        4       22       23       31      104 </v>
   <v type="int" >        4       23       31       99      104 </v>
   <v type="int" >        4       30       31      103      104 </v>
   <v type="int" >        4       31       98      103      104 </v>
   <v type="int" >        4       31       98       99      104 </v>
   <v type="int" >        4       12       22       23      105 </v>
   <v type="int" >        4       12       13       23      105 </v>
   <v type="int" >        4       13       23      100      105 </v>
   <v type="int" >        4       22       23      104      105 </v>
   <v type="int" >        4       23       99      104      105 </v>
   <v type="int" >        4       23       99      100      105 </v>
   <v type="int" >        4        6       12       13       51 </v>
   <v type="int" >        4        6        7       13       51 </v>
   <v type="int" >        4        7       13       50       51 </v>
   <v type="int" >        4       12       13       51      105 </v>
   <v type="int" >        4       13       51      100      105 </v>
   <v type="int" >        4       13       50       51      100 </v>
   <v type="int" >        4       35       36       40      106 </v>
   <v type="int" >        4       36       40      102      106 </v>
   <v type="int" >        4       40      101      102      106 </v>
   <v type="int" >        4       29       35       36      107 </v>
   <v type="int" >        4       29       30       36      107 </v>
   <v type="int" >        4       30       36      103      107 </v>
   <v type="int" >        4       35       36      106      107 </v>
   <v type="int" >        4       36      102      106      107 </v>
   <v type="int" >        4       36      102      103      107 </v>
   <v type="int" >        4       21       29       30      108 </v>
   <v type="int" >        4       21       22       30      108 </v>
   <v type="int" >        4       22       30      104      108 </v>
   <v type="int" >        4       29       30      107      108 </v>
   <v type="int" >        4       30      103      107      108 </v>
   <v type="int" >        4       30      103      104      108 </v>
   <v type="int" >        4       11       21       22      109 </v>
   <v type="int" >        4       11       12       22      109 </v>
   <v type="int" >        4       12       22      105      109 </v>
   <v type="int" >        4       21       22      108      109 </v>
   <v type="int" >        4       22      104      108      109 </v>
   <v type="int" >        4       22      104      105      109 </v>
   <v type="int" >        4        5       11       12       52 </v>
   <v type="int" >        4        5        6       12       52 </v>
   <v type="int" >        4        6       12       51       52 </v>
   <v type="int" >        4       11       12       52      109 </v>
   <v type="int" >        4       12       52      105      109 </v>
   <v type="int" >        4       12       51       52      105 </v>
   <v type="int" >        4       28       29       35      110 </v>
   <v type="int" >        4       29       35      107      110 </v>
   <v type="int" >        4       35      106      107      110 </v>
   <v type="int" >        4       20       28       29      111 </v>
   <v type="int" >        4       20       21       29      111 </v>
   <v type="int" >        4       21       29      108      111 </v>
   <v type="int" >        4       28       29      110      111 </v>
   <v type="int" >        4       29      107      110      111 </v>
   <v type="int" >        4       29      107      108      111 </v>
   <v type="int" >        4       10       20       21      112 </v>
   <v type="int" >        4       10       11       21      112 </v>
   <v type="int" >        4       11       21      109      112 </v>
   <v type="int" >        4       20       21      111      112 </v>
   <v type="int" >        4       21      108      111      112 </v>
   <v type="int" >        4       21      108      109      112 </v>
   <v type="int" >        4        4       10       11       53 </v>
   <v type="int" >        4        4        5       11       53 </v>
   <v type="int" >        4        5       11       52       53 </v>
   <v type="int" >        4       10       11       53      112 </v>
   <v type="int" >        4       11       53      109      112 </v>
   <v type="int" >        4       11       52       53      109 </v>
   <v type="int" >        4       19       20       28      113 </v>
   <v type="int" >        4       20       28      111      113 </v>
   <v type="int" >        4       28      110      111      113 </v>
   <v type="int" >        4        9       19       20      114 </v>
   <v type="int" >        4        9       10       20      114 </v>
   <v type="int" >        4       10       20      112      114 </v>
   <v type="int" >        4       19       20      113      114 </v>
   <v type="int" >        4       20      111      113      114 </v>
   <v type="int" >        4       20      111      112      114 </v>
   <v type="int" >        4        3        9       10       54 </v>
   <v type="int" >        4        3        4       10       54 </v>
   <v type="int" >        4        4       10       53       54 </v>
   <v type="int" >        4        9       10       54      114 </v>
   <v type="int" >        4       10       54      112      114 </v>
   <v type="int" >        4       10       53       54      112 </v>
   <v type="int" >        4        8        9       19      115 </v>
   <v type="int" >        4        9       19      114      115 </v>
   <v type="int" >        4       19      113      114      115 </v>
   <v type="int" >        4        2        8        9       55 </v>
   <v type="int" >        4        2        3        9       55 </v>
   <v type="int" >        4        3        9       54       55 </v>
   <v type="int" >        4        8        9       55      115 </v>
   <v type="int" >        4        9       55      114      115 </v>
   <v type="int" >        4        9       54       55      114 </v>
   <v type="int" >        4        1        2        8       44 </v>
   <v type="int" >        4        2        8       44       55 </v>
   <v type="int" >        4        8       44       55      115 </v>
   <v type="int" >        4       17       44       45       56 </v>
   <v type="int" >        4       10       17       44       45 </v>
   <v type="int" >        4        4       10       17       44 </v>
   <v type="int" >        4       45       56       57      116 </v>
   <v type="int" >        4       45       46       57      116 </v>
   <v type="int" >        4       20       45       46      116 </v>
   <v type="int" >        4       17       45       56      116 </v>
   <v type="int" >        4       10       17       45      116 </v>
   <v type="int" >        4       10       20       45      116 </v>
   <v type="int" >        4       20       46       57       58 </v>
   <v type="int" >        4       20       46       47       58 </v>
   <v type="int" >        4       20       28       46       47 </v>
   <v type="int" >        4       20       46       57      116 </v>
   <v type="int" >        4       20       20       46      116 </v>
   <v type="int" >        4       20       20       28       46 </v>
   <v type="int" >        4       47       58       59      117 </v>
   <v type="int" >        4       47       48       59      117 </v>
   <v type="int" >        4       29       47       48      117 </v>
   <v type="int" >        4       20       47       58      117 </v>
   <v type="int" >        4       20       28       47      117 </v>
   <v type="int" >        4       28       29       47      117 </v>
   <v type="int" >        4       48       59       60      118 </v>
   <v type="int" >        4       48       49       60      118 </v>
   <v type="int" >        4       30       48       49      118 </v>
   <v type="int" >        4       48       59      117      118 </v>
   <v type="int" >        4       29       48      117      118 </v>
   <v type="int" >        4       29       30       48      118 </v>
   <v type="int" >        4       49       60       61      119 </v>
   <v type="int" >        4       49       50       61      119 </v>
   <v type="int" >        4       31       49       50      119 </v>
   <v type="int" >        4       49       60      118      119 </v>
   <v type="int" >        4       30       49      118      119 </v>
   <v type="int" >        4       30       31       49      119 </v>
   <v type="int" >        4       50       61       62      120 </v>
   <v type="int" >        4       50       51       62      120 </v>
   <v type="int" >        4       32       50       51      120 </v>
   <v type="int" >        4       50       61      119      120 </v>
   <v type="int" >        4       31       50      119      120 </v>
   <v type="int" >        4       31       32       50      120 </v>
   <v type="int" >        4       51       62       63      121 </v>
   <v type="int" >        4       51       52       63      121 </v>
   <v type="int" >        4       33       51       52      121 </v>
   <v type="int" >        4       51       62      120      121 </v>
   <v type="int" >        4       32       51      120      121 </v>
   <v type="int" >        4       32       33       51      121 </v>
   <v type="int" >        4       52       63       64      122 </v>
   <v type="int" >        4       52       53       64      122 </v>
   <v type="int" >        4       34       52       53      122 </v>
   <v type="int" >        4       52       63      121      122 </v>
   <v type="int" >        4       33       52      121      122 </v>
   <v type="int" >        4       33       34       52      122 </v>
   <v type="int" >        4       53       64       65      123 </v>
   <v type="int" >        4       53       54       65      123 </v>
   <v type="int" >        4       26       53       54      123 </v>
   <v type="int" >        4       53       64      122      123 </v>
   <v type="int" >        4       34       53      122      123 </v>
   <v type="int" >        4       26       34       53      123 </v>
   <v type="int" >        4       54       65       66      124 </v>
   <v type="int" >        4       54       55       66      124 </v>
   <v type="int" >        4       16       54       55      124 </v>
   <v type="int" >        4       54       65      123      124 </v>
   <v type="int" >        4       26       54      123      124 </v>
   <v type="int" >        4       16       26       54      124 </v>
   <v type="int" >        4       10       45       55       66 </v>
   <v type="int" >        4       10       44       45       55 </v>
   <v type="int" >        4        4       10       44       55 </v>
   <v type="int" >        4       10       55       66      124 </v>
   <v type="int" >        4       10       16       55      124 </v>
   <v type="int" >        4        4       10       16       55 </v>
   <v type="int" >        4       17       56       57       67 </v>
   <v type="int" >        4       17       56       57      116 </v>
   <v type="int" >        4       17       17       56      116 </v>
   <v type="int" >        4       10       57       58       67 </v>
   <v type="int" >        4       10       57       58       58 </v>
   <v type="int" >        4       10       20       57       58 </v>
   <v type="int" >        4       10       17       57       67 </v>
   <v type="int" >        4       10       17       57      116 </v>
   <v type="int" >        4       10       20       57      116 </v>
   <v type="int" >        4       58       58       68      124 </v>
   <v type="int" >        4       58       59       68      124 </v>
   <v type="int" >        4       58       59      117      124 </v>
   <v type="int" >        4       10       58       58      124 </v>
   <v type="int" >        4       10       20       58      124 </v>
   <v type="int" >        4       20       58      117      124 </v>
   <v type="int" >        4       59       68       69      123 </v>
   <v type="int" >        4       59       60       69      123 </v>
   <v type="int" >        4       59       60      118      123 </v>
   <v type="int" >        4       59       68      123      124 </v>
   <v type="int" >        4       59      117      123      124 </v>
   <v type="int" >        4       59      117      118      123 </v>
   <v type="int" >        4       60       69       70      122 </v>
   <v type="int" >        4       60       61       70      122 </v>
   <v type="int" >        4       60       61      119      122 </v>
   <v type="int" >        4       60       69      122      123 </v>
   <v type="int" >        4       60      118      122      123 </v>
   <v type="int" >        4       60      118      119      122 </v>
   <v type="int" >        4       61       70       71      121 </v>
   <v type="int" >        4       61       62       71      121 </v>
   <v type="int" >        4       61       62      120      121 </v>
   <v type="int" >        4       61       70      121      122 </v>
   <v type="int" >        4       61      119      121      122 </v>
   <v type="int" >        4       61      119      120      121 </v>
   <v type="int" >        4       62       71       72      120 </v>
   <v type="int" >        4       62       63       72      120 </v>
   <v type="int" >        4       62       63      120      121 </v>
   <v type="int" >        4       62       71      120      121 </v>
   <v type="int" >        8       62      120      120      121 </v>
   <v type="int" >        4       63       72       73      119 </v>
   <v type="int" >        4       63       64       73      119 </v>
   <v type="int" >        4       63       64      119      122 </v>
   <v type="int" >        4       63       72      119      120 </v>
   <v type="int" >        4       63      119      120      121 </v>
   <v type="int" >        4       63      119      121      122 </v>
   <v type="int" >        4       64       73       74      118 </v>
   <v type="int" >        4       64       65       74      118 </v>
   <v type="int" >        4       64       65      118      123 </v>
   <v type="int" >        4       64       73      118      119 </v>
   <v type="int" >        4       64      118      119      122 </v>
   <v type="int" >        4       64      118      122      123 </v>
   <v type="int" >        4       65       74       75      117 </v>
   <v type="int" >        4       65       66       75      117 </v>
   <v type="int" >        4       65       66      117      124 </v>
   <v type="int" >        4       65       74      117      118 </v>
   <v type="int" >        4       65      117      118      123 </v>
   <v type="int" >        4       65      117      123      124 </v>
   <v type="int" >        4       20       46       66       75 </v>
   <v type="int" >        4       20       45       46       66 </v>
   <v type="int" >        4       10       20       45       66 </v>
   <v type="int" >        4       20       66       75      117 </v>
   <v type="int" >        4       20       66      117      124 </v>
   <v type="int" >        4       10       20       66      124 </v>
   <v type="int" >        4        4       47       58       67 </v>
   <v type="int" >        4        4       10       58       67 </v>
   <v type="int" >        4        4       10       17       67 </v>
   <v type="int" >        4       16       47       58       76 </v>
   <v type="int" >        4       16       58       68       76 </v>
   <v type="int" >        4       16       58       68      124 </v>
   <v type="int" >        4        4       16       47       58 </v>
   <v type="int" >        4        4       10       16       58 </v>
   <v type="int" >        4       10       16       58      124 </v>
   <v type="int" >        4       26       68       76       77 </v>
   <v type="int" >        4       26       68       69       77 </v>
   <v type="int" >        4       26       68       69      123 </v>
   <v type="int" >        4       16       26       68       76 </v>
   <v type="int" >        4       16       26       68      124 </v>
   <v type="int" >        4       26       68      123      124 </v>
   <v type="int" >        4       34       69       77       78 </v>
   <v type="int" >        4       34       69       70       78 </v>
   <v type="int" >        4       34       69       70      122 </v>
   <v type="int" >        4       26       34       69       77 </v>
   <v type="int" >        4       26       34       69      123 </v>
   <v type="int" >        4       34       69      122      123 </v>
   <v type="int" >        4       33       70       78       79 </v>
   <v type="int" >        4       33       70       71       79 </v>
   <v type="int" >        4       33       70       71      121 </v>
   <v type="int" >        4       33       34       70       78 </v>
   <v type="int" >        4       33       34       70      122 </v>
   <v type="int" >        4       33       70      121      122 </v>
   <v type="int" >        4       32       71       79       79 </v>
   <v type="int" >        4       32       71       72       79 </v>
   <v type="int" >        4       32       71       72      120 </v>
   <v type="int" >        4       32       33       71       79 </v>
   <v type="int" >        4       32       33       71      121 </v>
   <v type="int" >        4       32       71      120      121 </v>
   <v type="int" >        4       31       72       78       79 </v>
   <v type="int" >        4       31       72       73       78 </v>
   <v type="int" >        4       31       72       73      119 </v>
   <v type="int" >        4       31       32       72       79 </v>
   <v type="int" >        4       31       32       72      120 </v>
   <v type="int" >        4       31       72      119      120 </v>
   <v type="int" >        4       30       73       77       78 </v>
   <v type="int" >        4       30       73       74       77 </v>
   <v type="int" >        4       30       73       74      118 </v>
   <v type="int" >        4       30       31       73       78 </v>
   <v type="int" >        4       30       31       73      119 </v>
   <v type="int" >        4       30       73      118      119 </v>
   <v type="int" >        4       29       74       76       77 </v>
   <v type="int" >        4       29       74       75       76 </v>
   <v type="int" >        4       29       74       75      117 </v>
   <v type="int" >        4       29       30       74       77 </v>
   <v type="int" >        4       29       30       74      118 </v>
   <v type="int" >        4       29       74      117      118 </v>
   <v type="int" >        4       28       47       75       76 </v>
   <v type="int" >        4       28       46       47       75 </v>
   <v type="int" >        4       20       28       46       75 </v>
   <v type="int" >        4       28       29       75       76 </v>
   <v type="int" >        4       28       29       75      117 </v>
   <v type="int" >        4       20       28       75      117 </v>
   <v type="int" >        4       11       47       76       80 </v>
   <v type="int" >        4       11       16       47       76 </v>
   <v type="int" >        4        4       11       16       47 </v>
   <v type="int" >        4       76       80       81      125 </v>
   <v type="int" >        4       76       77       81      125 </v>
   <v type="int" >        4       26       76       77      125 </v>
   <v type="int" >        4       11       76       80      125 </v>
   <v type="int" >        4       11       16       76      125 </v>
   <v type="int" >        4       16       26       76      125 </v>
   <v type="int" >        4       77       81       82      122 </v>
   <v type="int" >        4       77       78       82      122 </v>
   <v type="int" >        4       34       77       78      122 </v>
   <v type="int" >        4       77       81      122      125 </v>
   <v type="int" >        4       26       77      122      125 </v>
   <v type="int" >        4       26       34       77      122 </v>
   <v type="int" >        4       78       82       83      126 </v>
   <v type="int" >        4       78       79       83      126 </v>
   <v type="int" >        4       33       78       79      126 </v>
   <v type="int" >        4       78       82      122      126 </v>
   <v type="int" >        4       34       78      122      126 </v>
   <v type="int" >        4       33       34       78      126 </v>
   <v type="int" >        4       79       83       84      127 </v>
   <v type="int" >        4       79       79       84      127 </v>
   <v type="int" >        4       32       79       79      127 </v>
   <v type="int" >        4       79       83      126      127 </v>
   <v type="int" >        4       33       79      126      127 </v>
   <v type="int" >        4       32       33       79      127 </v>
   <v type="int" >        4       79       84       85      128 </v>
   <v type="int" >        4       78       79       85      128 </v>
   <v type="int" >        4       31       78       79      128 </v>
   <v type="int" >        4       79       84      127      128 </v>
   <v type="int" >        4       32       79      127      128 </v>
   <v type="int" >        4       31       32       79      128 </v>
   <v type="int" >        4       78       85       86      129 </v>
   <v type="int" >        4       77       78       86      129 </v>
   <v type="int" >        4       30       77       78      129 </v>
   <v type="int" >        4       78       85      128      129 </v>
   <v type="int" >        4       31       78      128      129 </v>
   <v type="int" >        4       30       31       78      129 </v>
   <v type="int" >        4       77       86       87      130 </v>
   <v type="int" >        4       76       77       87      130 </v>
   <v type="int" >        4       29       76       77      130 </v>
   <v type="int" >        4       77       86      129      130 </v>
   <v type="int" >        4       30       77      129      130 </v>
   <v type="int" >        4       29       30       77      130 </v>
   <v type="int" >        4       29       48       76       87 </v>
   <v type="int" >        4       29       47       48       76 </v>
   <v type="int" >        4       28       29       47       76 </v>
   <v type="int" >        4       29       76       87      130 </v>
   <v type="int" >        4       29       29       76      130 </v>
   <v type="int" >        4       28       29       29       76 </v>
   <v type="int" >        4       22       80       81       88 </v>
   <v type="int" >        4       22       80       81      125 </v>
   <v type="int" >        4       11       22       80      125 </v>
   <v type="int" >        4       81       88       89      119 </v>
   <v type="int" >        4       81       82       89      119 </v>
   <v type="int" >        4       81       82      119      122 </v>
   <v type="int" >        4       22       81       88      119 </v>
   <v type="int" >        4       22       81      119      125 </v>
   <v type="int" >        4       81      119      122      125 </v>
   <v type="int" >        4       82       89       90      131 </v>
   <v type="int" >        4       82       83       90      131 </v>
   <v type="int" >        4       82       83      126      131 </v>
   <v type="int" >        4       82       89      119      131 </v>
   <v type="int" >        4       82      119      122      131 </v>
   <v type="int" >        4       82      122      126      131 </v>
   <v type="int" >        4       83       90       91      132 </v>
   <v type="int" >        4       83       84       91      132 </v>
   <v type="int" >        4       83       84      127      132 </v>
   <v type="int" >        4       83       90      131      132 </v>
   <v type="int" >        4       83      126      131      132 </v>
   <v type="int" >        4       83      126      127      132 </v>
   <v type="int" >        4       84       91       92      133 </v>
   <v type="int" >        4       84       85       92      133 </v>
   <v type="int" >        4       84       85      128      133 </v>
   <v type="int" >        4       84       91      132      133 </v>
   <v type="int" >        4       84      127      132      133 </v>
   <v type="int" >        4       84      127      128      133 </v>
   <v type="int" >        4       85       92       93      134 </v>
   <v type="int" >        4       85       86       93      134 </v>
   <v type="int" >        4       85       86      129      134 </v>
   <v type="int" >        4       85       92      133      134 </v>
   <v type="int" >        4       85      128      133      134 </v>
   <v type="int" >        4       85      128      129      134 </v>
   <v type="int" >        4       86       93       94      129 </v>
   <v type="int" >        4       86       87       94      129 </v>
   <v type="int" >        4       86       87      129      130 </v>
   <v type="int" >        4       86       93      129      134 </v>
   <v type="int" >        4       86      129      129      134 </v>
   <v type="int" >        4       86      129      129      130 </v>
   <v type="int" >        4       30       49       87       94 </v>
   <v type="int" >        4       30       48       49       87 </v>
   <v type="int" >        4       29       30       48       87 </v>
   <v type="int" >        4       30       87       94      129 </v>
   <v type="int" >        4       30       87      129      130 </v>
   <v type="int" >        4       29       30       87      130 </v>
   <v type="int" >        4       31       88       89       95 </v>
   <v type="int" >        4       31       88       89      119 </v>
   <v type="int" >        4       22       31       88      119 </v>
   <v type="int" >        4       89       95       96      128 </v>
   <v type="int" >        4       89       90       96      128 </v>
   <v type="int" >        4       89       90      128      131 </v>
   <v type="int" >        4       31       89       95      128 </v>
   <v type="int" >        4       31       89      119      128 </v>
   <v type="int" >        4       89      119      128      131 </v>
   <v type="int" >        4       90       96       97      133 </v>
   <v type="int" >        4       90       91       97      133 </v>
   <v type="int" >        4       90       91      132      133 </v>
   <v type="int" >        4       90       96      128      133 </v>
   <v type="int" >        4       90      128      131      133 </v>
   <v type="int" >        4       90      131      132      133 </v>
   <v type="int" >        4       91       97       98      135 </v>
   <v type="int" >        4       91       92       98      135 </v>
   <v type="int" >        4       91       92      133      135 </v>
   <v type="int" >        4       91       97      133      135 </v>
   <v type="int" >        8       91      132      133      135 </v>
   <v type="int" >        4       92       98       99      133 </v>
   <v type="int" >        4       92       93       99      133 </v>
   <v type="int" >        4       92       93      133      134 </v>
   <v type="int" >        8       92       98      133      135 </v>
   <v type="int" >        8       92      133      133      135 </v>
   <v type="int" >        4       92      133      133      134 </v>
   <v type="int" >        4       93       99      100      128 </v>
   <v type="int" >        4       93       94      100      128 </v>
   <v type="int" >        4       93       94      128      129 </v>
   <v type="int" >        4       93       99      128      133 </v>
   <v type="int" >        4       93      128      133      134 </v>
   <v type="int" >        4       93      128      129      134 </v>
   <v type="int" >        4       31       50       94      100 </v>
   <v type="int" >        4       31       49       50       94 </v>
   <v type="int" >        4       30       31       49       94 </v>
   <v type="int" >        4       31       94      100      128 </v>
   <v type="int" >        4       31       94      128      129 </v>
   <v type="int" >        4       30       31       94      129 </v>
   <v type="int" >        4       38       95       96      101 </v>
   <v type="int" >        4       38       95       96      128 </v>
   <v type="int" >        4       31       38       95      128 </v>
   <v type="int" >        4       96      101      102      136 </v>
   <v type="int" >        4       96       97      102      136 </v>
   <v type="int" >        4       96       97      133      136 </v>
   <v type="int" >        4       38       96      101      136 </v>
   <v type="int" >        4       38       96      128      136 </v>
   <v type="int" >        4       96      128      133      136 </v>
   <v type="int" >        4       97      102      103      133 </v>
   <v type="int" >        4       97       98      103      133 </v>
   <v type="int" >        8       97       98      133      135 </v>
   <v type="int" >        4       97      102      133      136 </v>
   <v type="int" >        4       97      133      133      136 </v>
   <v type="int" >        8       97      133      133      135 </v>
   <v type="int" >        4       98      103      104      132 </v>
   <v type="int" >        4       98       99      104      132 </v>
   <v type="int" >        8       98       99      132      133 </v>
   <v type="int" >        4       98      103      132      133 </v>
   <v type="int" >       16       98      132      133      135 </v>
   <v type="int" >        4       99      104      105      127 </v>
   <v type="int" >        4       99      100      105      127 </v>
   <v type="int" >        4       99      100      127      128 </v>
   <v type="int" >        4       99      104      127      132 </v>
   <v type="int" >        4       99      127      132      133 </v>
   <v type="int" >        4       99      127      128      133 </v>
   <v type="int" >        4       32       51      100      105 </v>
   <v type="int" >        4       32       50       51      100 </v>
   <v type="int" >        4       31       32       50      100 </v>
   <v type="int" >        4       32      100      105      127 </v>
   <v type="int" >        4       32      100      127      128 </v>
   <v type="int" >        4       31       32      100      128 </v>
   <v type="int" >        4       38      101      102      106 </v>
   <v type="int" >        4       38      101      102      136 </v>
   <v type="int" >        4       38       38      101      136 </v>
   <v type="int" >        4      102      106      107      128 </v>
   <v type="int" >        4      102      103      107      128 </v>
   <v type="int" >        4      102      103      128      133 </v>
   <v type="int" >        4       38      102      106      128 </v>
   <v type="int" >        4       38      102      128      136 </v>
   <v type="int" >        4      102      128      133      136 </v>
   <v type="int" >        4      103      107      108      131 </v>
   <v type="int" >        4      103      104      108      131 </v>
   <v type="int" >        4      103      104      131      132 </v>
   <v type="int" >        4      103      107      128      131 </v>
   <v type="int" >        4      103      128      131      133 </v>
   <v type="int" >        4      103      131      132      133 </v>
   <v type="int" >        4      104      108      109      126 </v>
   <v type="int" >        4      104      105      109      126 </v>
   <v type="int" >        4      104      105      126      127 </v>
   <v type="int" >        4      104      108      126      131 </v>
   <v type="int" >        4      104      126      131      132 </v>
   <v type="int" >        4      104      126      127      132 </v>
   <v type="int" >        4       33       52      105      109 </v>
   <v type="int" >        4       33       51       52      105 </v>
   <v type="int" >        4       32       33       51      105 </v>
   <v type="int" >        4       33      105      109      126 </v>
   <v type="int" >        4       33      105      126      127 </v>
   <v type="int" >        4       32       33      105      127 </v>
   <v type="int" >        4       31      106      107      110 </v>
   <v type="int" >        4       31      106      107      128 </v>
   <v type="int" >        4       31       38      106      128 </v>
   <v type="int" >        4      107      110      111      119 </v>
   <v type="int" >        4      107      108      111      119 </v>
   <v type="int" >        4      107      108      119      131 </v>
   <v type="int" >        4       31      107      110      119 </v>
   <v type="int" >        4       31      107      119      128 </v>
   <v type="int" >        4      107      119      128      131 </v>
   <v type="int" >        4      108      111      112      122 </v>
   <v type="int" >        4      108      109      112      122 </v>
   <v type="int" >        4      108      109      122      126 </v>
   <v type="int" >        4      108      111      119      122 </v>
   <v type="int" >        4      108      119      122      131 </v>
   <v type="int" >        4      108      122      126      131 </v>
   <v type="int" >        4       34       53      109      112 </v>
   <v type="int" >        4       34       52       53      109 </v>
   <v type="int" >        4       33       34       52      109 </v>
   <v type="int" >        4       34      109      112      122 </v>
   <v type="int" >        4       34      109      122      126 </v>
   <v type="int" >        4       33       34      109      126 </v>
   <v type="int" >        4       22      110      111      113 </v>
   <v type="int" >        4       22      110      111      119 </v>
   <v type="int" >        4       22       31      110      119 </v>
   <v type="int" >        4      111      113      114      125 </v>
   <v type="int" >        4      111      112      114      125 </v>
   <v type="int" >        4      111      112      122      125 </v>
   <v type="int" >        4       22      111      113      125 </v>
   <v type="int" >        4       22      111      119      125 </v>
   <v type="int" >        4      111      119      122      125 </v>
   <v type="int" >        4       26       54      112      114 </v>
   <v type="int" >        4       26       53       54      112 </v>
   <v type="int" >        4       26       34       53      112 </v>
   <v type="int" >        4       26      112      114      125 </v>
   <v type="int" >        4       26      112      122      125 </v>
   <v type="int" >        4       26       34      112      122 </v>
   <v type="int" >        4       11      113      114      115 </v>
   <v type="int" >        4       11      113      114      125 </v>
   <v type="int" >        4       11       22      113      125 </v>
   <v type="int" >        4       16       55      114      115 </v>
   <v type="int" >        4       16       54       55      114 </v>
   <v type="int" >        4       16       26       54      114 </v>
   <v type="int" >        4       11       16      114      115 </v>
   <v type="int" >        4       11       16      114      125 </v>
   <v type="int" >        4       16       26      114      125 </v>
   <v type="int" >        4        4       44       55      115 </v>
   <v type="int" >        4        4       16       55      115 </v>
   <v type="int" >        4        4       11       16      115 </v>
   <v type="int" >        4        4       10       17      147 </v>
   <v type="int" >        4        4       10      138      147 </v>
   <v type="int" >        4        4      137      138      147 </v>
   <v type="int" >        4       10       17      116      148 </v>
   <v type="int" >        4       10       20      116      148 </v>
   <v type="int" >        4       10       20      139      148 </v>
   <v type="int" >        4       10       17      147      148 </v>
   <v type="int" >        4       10      138      147      148 </v>
   <v type="int" >        4       10      138      139      148 </v>
   <v type="int" >        4       20       20      111      116 </v>
   <v type="int" >        4       20       20       28      111 </v>
   <v type="int" >        4       20       28      110      111 </v>
   <v type="int" >        4       20      111      116      148 </v>
   <v type="int" >        4       20      111      139      148 </v>
   <v type="int" >        4       20      110      111      139 </v>
[...]
       <r>    0.2101    1.0000 </r>
       <r>    8.8783    1.0000 </r>
       <r>   11.0575    1.0000 </r>
       <r>   27.5021    0.0000 </r>
       <r>   32.4217    0.0000 </r>
       <r>   38.7953    0.0000 </r>
       <r>   40.0553    0.0000 </r>
      </set>
      <set comment="kpoint 184">
       <r>   -1.4282    1.0000 </r>
       <r>   -0.4623    1.0000 </r>
       <r>   10.6674    1.0000 </r>
       <r>   12.2268    1.0000 </r>
       <r>   27.0598    0.0000 </r>
       <r>   32.1713    0.0000 </r>
       <r>   36.5470    0.0000 </r>
       <r>   39.5582    0.0000 </r>
      </set>
      <set comment="kpoint 185">
       <r>   -2.5881    1.0000 </r>
       <r>    0.3610    1.0000 </r>
       <r>   11.4307    1.0000 </r>
       <r>   12.5689    1.0000 </r>
       <r>   27.9118    0.0000 </r>
       <r>   30.7092    0.0000 </r>
       <r>   36.3954    0.0000 </r>
       <r>   39.4508    0.0000 </r>
      </set>
      <set comment="kpoint 186">
       <r>   -3.9210    1.0000 </r>
       <r>    1.0213    1.0000 </r>
       <r>   13.2191    1.0000 </r>
       <r>   13.4432    1.0000 </r>
       <r>   27.9398    0.0000 </r>
       <r>   30.0181    0.0000 </r>
       <r>   34.8987    0.0000 </r>
       <r>   38.6611    0.0000 </r>
      </set>
      <set comment="kpoint 187">
       <r>   -3.9010    1.0000 </r>
       <r>    1.9818    1.0000 </r>
       <r>   11.3501    1.0000 </r>
       <r>   12.9471    1.0000 </r>
       <r>   27.9645    0.0000 </r>
       <r>   30.7633    0.0000 </r>
       <r>   35.9483    0.0000 </r>
       <r>   39.0130    0.0000 </r>
      </set>
      <set comment="kpoint 188">
       <r>   -2.1199    1.0000 </r>
       <r>    5.3185    1.0000 </r>
       <r>    7.8818    1.0000 </r>
       <r>    8.0406    1.0000 </r>
       <r>   25.0552    0.0000 </r>
       <r>   26.3313    0.0000 </r>
       <r>   40.9229    0.0000 </r>
       <r>   42.3596    0.0000 </r>
      </set>
      <set comment="kpoint 189">
       <r>    1.4487    1.0000 </r>
       <r>    1.4487    1.0000 </r>
       <r>    7.5494    1.0000 </r>
       <r>    7.5494    1.0000 </r>
       <r>   25.3725    0.0000 </r>
       <r>   25.3725    0.0000 </r>
       <r>   43.1018    0.0000 </r>
       <r>   43.1018    0.0000 </r>
      </set>
      <set comment="kpoint 190">
       <r>    0.0708    1.0000 </r>
       <r>    3.6924    1.0000 </r>
       <r>    5.5421    1.0000 </r>
       <r>    8.1437    1.0000 </r>
       <r>   25.7207    0.0000 </r>
       <r>   28.5628    0.0000 </r>
       <r>   40.5428    0.0000 </r>
       <r>   42.7228    0.0000 </r>
      </set>
      <set comment="kpoint 191">
       <r>   -1.1862    1.0000 </r>
       <r>   -1.1441    1.0000 </r>
       <r>   11.4852    1.0000 </r>
       <r>   12.4145    1.0000 </r>
       <r>   27.8903    0.0000 </r>
       <r>   30.6882    0.0000 </r>
       <r>   36.5558    0.0000 </r>
       <r>   39.6043    0.0000 </r>
      </set>
      <set comment="kpoint 192">
       <r>   -4.1462    1.0000 </r>
       <r>    6.6791    1.0000 </r>
       <r>    7.0980    1.0000 </r>
       <r>   10.7579    1.0000 </r>
       <r>   28.6619    0.0000 </r>
       <r>   29.7107    0.0000 </r>
       <r>   36.3482    0.0000 </r>
       <r>   39.3982    0.0000 </r>
      </set>
      <set comment="kpoint 193">
       <r>    2.2877    1.0000 </r>
       <r>    2.2877    1.0000 </r>
       <r>    5.8859    1.0000 </r>
       <r>    5.8859    1.0000 </r>
       <r>   28.6146    0.0000 </r>
       <r>   28.6146    0.0000 </r>
       <r>   40.3645    0.0000 </r>
       <r>   40.3645    0.0000 </r>
      </set>
      <set comment="kpoint 194">
       <r>    0.5072    1.0000 </r>
       <r>    0.9903    1.0000 </r>
       <r>    7.2320    1.0000 </r>
       <r>    8.6679    1.0000 </r>
       <r>   28.5487    0.0000 </r>
       <r>   32.3626    0.0000 </r>
       <r>   39.3061    0.0000 </r>
       <r>   39.6207    0.0000 </r>
      </set>
     </set>
    </set>
   </array>
  </eigenvalues>
  <separator name="orbital magnetization" >
   <v name="MAGDIPOLOUT">      0.00000000      0.00000000      0.00000000</v>
  </separator>
  <dos>
   <i name="efermi">     18.36995722 </i>
   <total>
    <array>
     <dimension dim="1">gridpoints</dimension>
     <dimension dim="2">spin</dimension>
     <field>energy</field>
     <field>total</field>
     <field>integrated</field>
     <set>
      <set comment="spin 1">
       <r>   -13.7475     0.0000     0.0000 </r>
       <r>   -13.5455     0.0000     0.0000 </r>
       <r>   -13.3436     0.0000     0.0000 </r>
       <r>   -13.1416     0.0000     0.0000 </r>
       <r>   -12.9396     0.0000     0.0000 </r>
       <r>   -12.7377     0.0000     0.0000 </r>
       <r>   -12.5357     0.0000     0.0000 </r>
       <r>   -12.3338     0.0000     0.0000 </r>
       <r>   -12.1318     0.0000     0.0000 </r>
       <r>   -11.9299     0.0000     0.0000 </r>
       <r>   -11.7279     0.0000     0.0000 </r>
       <r>   -11.5259     0.0000     0.0000 </r>
       <r>   -11.3240     0.0000     0.0000 </r>
       <r>   -11.1220     0.0000     0.0000 </r>
       <r>   -10.9201     0.0020     0.0000 </r>
       <r>   -10.7181     0.0271     0.0025 </r>
       <r>   -10.5162     0.0443     0.0100 </r>
       <r>   -10.3142     0.0522     0.0197 </r>
       <r>   -10.1122     0.0622     0.0312 </r>
       <r>    -9.9103     0.0693     0.0446 </r>
       <r>    -9.7083     0.0759     0.0592 </r>
       <r>    -9.5064     0.0836     0.0753 </r>
       <r>    -9.3044     0.0908     0.0930 </r>
       <r>    -9.1025     0.0961     0.1119 </r>
       <r>    -8.9005     0.1012     0.1318 </r>
       <r>    -8.6985     0.1050     0.1526 </r>
       <r>    -8.4966     0.1098     0.1743 </r>
       <r>    -8.2946     0.1149     0.1970 </r>
       <r>    -8.0927     0.1198     0.2207 </r>
       <r>    -7.8907     0.1241     0.2454 </r>
       <r>    -7.6888     0.1288     0.2709 </r>
       <r>    -7.4868     0.1339     0.2974 </r>
       <r>    -7.2849     0.1381     0.3249 </r>
       <r>    -7.0829     0.1415     0.3532 </r>
       <r>    -6.8809     0.1450     0.3821 </r>
       <r>    -6.6790     0.1486     0.4117 </r>
       <r>    -6.4770     0.1520     0.4421 </r>
       <r>    -6.2751     0.1554     0.4731 </r>
       <r>    -6.0731     0.1591     0.5049 </r>
       <r>    -5.8712     0.1628     0.5374 </r>
       <r>    -5.6692     0.1666     0.5707 </r>
       <r>    -5.4672     0.1705     0.6047 </r>
       <r>    -5.2653     0.1742     0.6395 </r>
       <r>    -5.0633     0.1777     0.6751 </r>
       <r>    -4.8614     0.1813     0.7113 </r>
       <r>    -4.6594     0.1846     0.7483 </r>
       <r>    -4.4575     0.1876     0.7858 </r>
       <r>    -4.2555     0.1908     0.8240 </r>
       <r>    -4.0535     0.1944     0.8629 </r>
       <r>    -3.8516     0.1982     0.9026 </r>
       <r>    -3.6496     0.2033     0.9431 </r>
       <r>    -3.4477     0.2102     0.9848 </r>
       <r>    -3.2457     0.2183     1.0281 </r>
       <r>    -3.0438     0.2280     1.0731 </r>
       <r>    -2.8418     0.2403     1.1203 </r>
       <r>    -2.6398     0.2542     1.1704 </r>
       <r>    -2.4379     0.2519     1.2214 </r>
       <r>    -2.2359     0.2473     1.2719 </r>
       <r>    -2.0340     0.2397     1.3211 </r>
       <r>    -1.8320     0.2368     1.3689 </r>
       <r>    -1.6301     0.2279     1.4165 </r>
       <r>    -1.4281     0.2222     1.4619 </r>
       <r>    -1.2262     0.2215     1.5066 </r>
       <r>    -1.0242     0.2257     1.5517 </r>
       <r>    -0.8222     0.2239     1.5970 </r>
       <r>    -0.6203     0.2214     1.6414 </r>
       <r>    -0.4183     0.2311     1.6870 </r>
       <r>    -0.2164     0.2486     1.7353 </r>
       <r>    -0.0144     0.2780     1.7883 </r>
       <r>     0.1875     0.2944     1.8465 </r>
       <r>     0.3895     0.3019     1.9069 </r>
       <r>     0.5915     0.2983     1.9677 </r>
       <r>     0.7934     0.2931     2.0274 </r>
       <r>     0.9954     0.2806     2.0859 </r>
       <r>     1.1973     0.2489     2.1388 </r>
       <r>     1.3993     0.2205     2.1859 </r>
       <r>     1.6012     0.2085     2.2290 </r>
       <r>     1.8032     0.2084     2.2709 </r>
       <r>     2.0052     0.2215     2.3141 </r>
       <r>     2.2071     0.2476     2.3612 </r>
       <r>     2.4091     0.2876     2.4151 </r>
       <r>     2.6110     0.3588     2.4824 </r>
       <r>     2.8130     0.4252     2.5615 </r>
       <r>     3.0149     0.4636     2.6511 </r>
       <r>     3.2169     0.3638     2.7368 </r>
       <r>     3.4189     0.3242     2.8062 </r>
       <r>     3.6208     0.2910     2.8682 </r>
       <r>     3.8228     0.2696     2.9244 </r>
       <r>     4.0247     0.2562     2.9775 </r>
       <r>     4.2267     0.2608     3.0293 </r>
       <r>     4.4286     0.2766     3.0833 </r>
       <r>     4.6306     0.3008     3.1416 </r>
       <r>     4.8325     0.3369     3.2054 </r>
       <r>     5.0345     0.3738     3.2779 </r>
       <r>     5.2365     0.3830     3.3545 </r>
       <r>     5.4384     0.3848     3.4322 </r>
       <r>     5.6404     0.3834     3.5098 </r>
       <r>     5.8423     0.3810     3.5871 </r>
       <r>     6.0443     0.3744     3.6633 </r>
       <r>     6.2462     0.3725     3.7386 </r>
       <r>     6.4482     0.3831     3.8147 </r>
       <r>     6.6502     0.4027     3.8937 </r>
       <r>     6.8521     0.4064     3.9760 </r>
       <r>     7.0541     0.4181     4.0591 </r>
       <r>     7.2560     0.4254     4.1442 </r>
       <r>     7.4580     0.4331     4.2309 </r>
       <r>     7.6599     0.4478     4.3196 </r>
       <r>     7.8619     0.4617     4.4111 </r>
       <r>     8.0639     0.4903     4.5072 </r>
       <r>     8.2658     0.5367     4.6104 </r>
       <r>     8.4678     0.5758     4.7234 </r>
       <r>     8.6697     0.5957     4.8426 </r>
       <r>     8.8717     0.5693     4.9597 </r>
       <r>     9.0736     0.5544     5.0731 </r>
       <r>     9.2756     0.5405     5.1836 </r>
       <r>     9.4776     0.5320     5.2919 </r>
       <r>     9.6795     0.5239     5.3985 </r>
       <r>     9.8815     0.5203     5.5038 </r>
       <r>    10.0834     0.5175     5.6087 </r>
       <r>    10.2854     0.5127     5.7127 </r>
       <r>    10.4873     0.5083     5.8158 </r>
       <r>    10.6893     0.5063     5.9182 </r>
       <r>    10.8912     0.5032     6.0201 </r>
       <r>    11.0932     0.4984     6.1212 </r>
       <r>    11.2952     0.4919     6.2213 </r>
       <r>    11.4971     0.4812     6.3196 </r>
       <r>    11.6991     0.4713     6.4158 </r>
       <r>    11.9010     0.4637     6.5101 </r>
       <r>    12.1030     0.4578     6.6031 </r>
       <r>    12.3049     0.4557     6.6953 </r>
       <r>    12.5069     0.4530     6.7871 </r>
       <r>    12.7089     0.4463     6.8780 </r>
       <r>    12.9108     0.4417     6.9676 </r>
       <r>    13.1128     0.4407     7.0566 </r>
       <r>    13.3147     0.4301     7.1448 </r>
       <r>    13.5167     0.4176     7.2306 </r>
       <r>    13.7186     0.3834     7.3118 </r>
       <r>    13.9206     0.3352     7.3844 </r>
       <r>    14.1226     0.2975     7.4479 </r>
       <r>    14.3245     0.2675     7.5049 </r>
       <r>    14.5265     0.2453     7.5566 </r>
       <r>    14.7284     0.2273     7.6042 </r>
       <r>    14.9304     0.2146     7.6488 </r>
       <r>    15.1323     0.2014     7.6908 </r>
       <r>    15.3343     0.1857     7.7300 </r>
       <r>    15.5363     0.1692     7.7658 </r>
       <r>    15.7382     0.1553     7.7984 </r>
       <r>    15.9402     0.1432     7.8286 </r>
       <r>    16.1421     0.1307     7.8563 </r>
       <r>    16.3441     0.1182     7.8814 </r>
       <r>    16.5460     0.1064     7.9041 </r>
       <r>    16.7480     0.0972     7.9246 </r>
       <r>    16.9499     0.0880     7.9432 </r>
       <r>    17.1519     0.0762     7.9599 </r>
       <r>    17.3539     0.0695     7.9744 </r>
       <r>    17.5558     0.0560     7.9873 </r>
       <r>    17.7578     0.0248     7.9962 </r>
       <r>    17.9597     0.0079     7.9993 </r>
       <r>    18.1617     0.0005     8.0000 </r>
       <r>    18.3636     0.0000     8.0000 </r>
       <r>    18.5656     0.0000     8.0000 </r>
       <r>    18.7676     0.0000     8.0000 </r>
       <r>    18.9695     0.0000     8.0000 </r>
       <r>    19.1715     0.0000     8.0000 </r>
       <r>    19.3734     0.0000     8.0000 </r>
       <r>    19.5754     0.0000     8.0000 </r>
       <r>    19.7773     0.0000     8.0000 </r>
       <r>    19.9793     0.0000     8.0000 </r>
       <r>    20.1813     0.0000     8.0000 </r>
       <r>    20.3832     0.0000     8.0000 </r>
       <r>    20.5852     0.0000     8.0000 </r>
       <r>    20.7871     0.0000     8.0000 </r>
       <r>    20.9891     0.0000     8.0000 </r>
       <r>    21.1910     0.0000     8.0000 </r>
       <r>    21.3930     0.0000     8.0000 </r>
       <r>    21.5950     0.0000     8.0000 </r>
       <r>    21.7969     0.0000     8.0000 </r>
       <r>    21.9989     0.0000     8.0000 </r>
       <r>    22.2008     0.0000     8.0000 </r>
       <r>    22.4028     0.0000     8.0000 </r>
       <r>    22.6047     0.0000     8.0000 </r>
       <r>    22.8067     0.0000     8.0000 </r>
       <r>    23.0086     0.0000     8.0000 </r>
       <r>    23.2106     0.0000     8.0000 </r>
       <r>    23.4126     0.0000     8.0000 </r>
       <r>    23.6145     0.0000     8.0000 </r>
       <r>    23.8165     0.0066     8.0004 </r>
       <r>    24.0184     0.0625     8.0065 </r>
       <r>    24.2204     0.1022     8.0235 </r>
       <r>    24.4223     0.1358     8.0476 </r>
       <r>    24.6243     0.1701     8.0786 </r>
       <r>    24.8263     0.2022     8.1162 </r>
       <r>    25.0282     0.2412     8.1606 </r>
       <r>    25.2302     0.2894     8.2143 </r>
       <r>    25.4321     0.3359     8.2776 </r>
       <r>    25.6341     0.3775     8.3497 </r>
       <r>    25.8360     0.3942     8.4285 </r>
       <r>    26.0380     0.4080     8.5091 </r>
       <r>    26.2400     0.4310     8.5938 </r>
       <r>    26.4419     0.4532     8.6831 </r>
       <r>    26.6439     0.4775     8.7770 </r>
       <r>    26.8458     0.5078     8.8766 </r>
       <r>    27.0478     0.5433     8.9825 </r>
       <r>    27.2497     0.6035     9.0978 </r>
       <r>    27.4517     0.7071     9.2304 </r>
       <r>    27.6537     0.7892     9.3823 </r>
       <r>    27.8556     0.8321     9.5462 </r>
       <r>    28.0576     0.8356     9.7165 </r>
       <r>    28.2595     0.8127     9.8820 </r>
       <r>    28.4615     0.7008    10.0368 </r>
       <r>    28.6634     0.5195    10.1600 </r>
       <r>    28.8654     0.3352    10.2485 </r>
       <r>    29.0673     0.2695    10.3068 </r>
       <r>    29.2693     0.2877    10.3622 </r>
       <r>    29.4713     0.3185    10.4236 </r>
       <r>    29.6732     0.3547    10.4916 </r>
       <r>    29.8752     0.4062    10.5678 </r>
       <r>    30.0771     0.4922    10.6576 </r>
       <r>    30.2791     0.5606    10.7654 </r>
       <r>    30.4810     0.5814    10.8813 </r>
       <r>    30.6830     0.6022    11.0003 </r>
       <r>    30.8850     0.6355    11.1274 </r>
       <r>    31.0869     0.5709    11.2475 </r>
       <r>    31.2889     0.5475    11.3604 </r>
       <r>    31.4908     0.5249    11.4687 </r>
       <r>    31.6928     0.5209    11.5735 </r>
       <r>    31.8947     0.4889    11.6748 </r>
       <r>    32.0967     0.4754    11.7722 </r>
       <r>    32.2987     0.4410    11.8655 </r>
       <r>    32.5006     0.3826    11.9482 </r>
       <r>    32.7026     0.3275    12.0196 </r>
       <r>    32.9045     0.2849    12.0813 </r>
       <r>    33.1065     0.2536    12.1354 </r>
       <r>    33.3084     0.2370    12.1848 </r>
       <r>    33.5104     0.2285    12.2317 </r>
       <r>    33.7124     0.2234    12.2773 </r>
       <r>    33.9143     0.2203    12.3220 </r>
       <r>    34.1163     0.2215    12.3667 </r>
       <r>    34.3182     0.2226    12.4115 </r>
       <r>    34.5202     0.2292    12.4570 </r>
       <r>    34.7221     0.2435    12.5044 </r>
       <r>    34.9241     0.2678    12.5561 </r>
       <r>    35.1260     0.2833    12.6121 </r>
       <r>    35.3280     0.2877    12.6699 </r>
       <r>    35.5300     0.2913    12.7283 </r>
       <r>    35.7319     0.2985    12.7878 </r>
       <r>    35.9339     0.3123    12.8495 </r>
       <r>    36.1358     0.3256    12.9138 </r>
       <r>    36.3378     0.3473    12.9816 </r>
       <r>    36.5397     0.3778    13.0547 </r>
       <r>    36.7417     0.4092    13.1342 </r>
       <r>    36.9437     0.4240    13.2178 </r>
       <r>    37.1456     0.4508    13.3062 </r>
       <r>    37.3476     0.4778    13.3997 </r>
       <r>    37.5495     0.5305    13.5011 </r>
       <r>    37.7515     0.6760    13.6180 </r>
       <r>    37.9534     0.7476    13.7686 </r>
       <r>    38.1554     0.7058    13.9141 </r>
       <r>    38.3574     0.6976    14.0558 </r>
       <r>    38.5593     0.7044    14.1972 </r>
       <r>    38.7613     0.6894    14.3391 </r>
       <r>    38.9632     0.6359    14.4759 </r>
       <r>    39.1652     0.5855    14.5982 </r>
       <r>    39.3671     0.5548    14.7134 </r>
       <r>    39.5691     0.5442    14.8234 </r>
       <r>    39.7711     0.5712    14.9345 </r>
       <r>    39.9730     0.5221    15.0438 </r>
       <r>    40.1750     0.5124    15.1482 </r>
       <r>    40.3769     0.4961    15.2504 </r>
       <r>    40.5789     0.4626    15.3474 </r>
       <r>    40.7808     0.4131    15.4361 </r>
       <r>    40.9828     0.3588    15.5141 </r>
       <r>    41.1847     0.3067    15.5809 </r>
       <r>    41.3867     0.2704    15.6390 </r>
       <r>    41.5887     0.2443    15.6908 </r>
       <r>    41.7906     0.2278    15.7384 </r>
       <r>    41.9926     0.2106    15.7826 </r>
       <r>    42.1945     0.1944    15.8235 </r>
       <r>    42.3965     0.1772    15.8610 </r>
       <r>    42.5984     0.1594    15.8951 </r>
       <r>    42.8004     0.1452    15.9257 </r>
       <r>    43.0024     0.1233    15.9525 </r>
       <r>    43.2043     0.1023    15.9757 </r>
       <r>    43.4063     0.0521    15.9913 </r>
       <r>    43.6082     0.0183    15.9982 </r>
       <r>    43.8102     0.0019    15.9999 </r>
       <r>    44.0121     0.0000    16.0000 </r>
       <r>    44.2141     0.0000    16.0000 </r>
       <r>    44.4161     0.0000    16.0000 </r>
       <r>    44.6180     0.0000    16.0000 </r>
       <r>    44.8200     0.0000    16.0000 </r>
       <r>    45.0219     0.0000    16.0000 </r>
       <r>    45.2239     0.0000    16.0000 </r>
       <r>    45.4258     0.0000    16.0000 </r>
       <r>    45.6278     0.0000    16.0000 </r>
       <r>    45.8298     0.0000    16.0000 </r>
       <r>    46.0317     0.0000    16.0000 </r>
       <r>    46.2337     0.0000    16.0000 </r>
       <r>    46.4356     0.0000    16.0000 </r>
       <r>    46.6376     0.0000    16.0000 </r>
       <r>    46.8395     0.0000    16.0000 </r>
      </set>
     </set>
    </array>
   </total>
  </dos>
 </calculation>
 <structure name="finalpos" >
  <crystal>
   <varray name="basis" >
    <v>       2.14358623       0.00000000       0.00000000 </v>
    <v>       1.07179311       1.85640013       0.00000000 </v>
    <v>       1.07179311       0.61880004       1.75023082 </v>
   </varray>
   <i name="volume">      6.96478758 </i>
   <varray name="rec_basis" >
    <v>       0.46650794      -0.26933849      -0.19045107 </v>
    <v>       0.00000000       0.53867697      -0.19045107 </v>
    <v>       0.00000000       0.00000000       0.57135321 </v>
   </varray>
  </crystal>
  <varray name="positions" >
   <v>       0.00000000       0.00000000       0.00000000 </v>
   <v>       0.25000000       0.25000000       0.24999999 </v>
  </varray>
 </structure>
</modeling>
