diamond                                 
           1
     2.143586    0.000000    0.000000
     1.071793    1.856400    0.000000
     1.071793    0.618800    1.750231
   C 
   2
Direct configuration=     1
   0.00000000  0.00000000  0.00000000
   0.25000000  0.25000000  0.24999999
