   2   2   0   0
  0.6078360E+01  0.2580935E-09  0.2580935E-09  0.2580935E-09  0.5000000E-15
  1.000000000000000E-004
  CAR 
 graphite                                
     26.55122307    -13.78997249  301      8.80529923      1.00000000
    -13.790  0.0000E+00  0.0000E+00
    -13.656  0.0000E+00  0.0000E+00
    -13.521  0.0000E+00  0.0000E+00
    -13.387  0.0000E+00  0.0000E+00
    -13.252  0.0000E+00  0.0000E+00
    -13.118  0.0000E+00  0.0000E+00
    -12.983  0.0000E+00  0.0000E+00
    -12.849  0.0000E+00  0.0000E+00
    -12.714  0.0000E+00  0.0000E+00
    -12.580  0.0000E+00  0.0000E+00
    -12.445  0.0000E+00  0.0000E+00
    -12.311  0.0000E+00  0.0000E+00
    -12.176  0.0000E+00  0.0000E+00
    -12.042  0.0000E+00  0.0000E+00
    -11.907  0.0000E+00  0.0000E+00
    -11.773  0.1526E-05  0.8677E-08
    -11.638  0.1204E-03  0.6080E-05
    -11.504  0.2795E-03  0.3489E-04
    -11.370  0.3433E-03  0.7780E-04
    -11.235  0.4127E-03  0.1286E-03
    -11.101  0.4744E-03  0.1884E-03
    -10.966  0.5147E-03  0.2549E-03
    -10.832  0.5645E-03  0.3273E-03
    -10.697  0.6191E-03  0.4069E-03
    -10.563  0.6622E-03  0.4934E-03
    -10.428  0.7000E-03  0.5850E-03
    -10.294  0.7348E-03  0.6815E-03
    -10.159  0.7627E-03  0.7822E-03
    -10.025  0.7982E-03  0.8871E-03
     -9.890  0.8345E-03  0.9968E-03
     -9.756  0.8699E-03  0.1111E-02
     -9.621  0.9017E-03  0.1231E-02
     -9.487  0.9367E-03  0.1354E-02
     -9.352  0.9743E-03  0.1483E-02
     -9.218  0.1007E-02  0.1616E-02
     -9.083  0.1034E-02  0.1753E-02
     -8.949  0.1062E-02  0.1894E-02
     -8.815  0.1091E-02  0.2039E-02
     -8.680  0.1120E-02  0.2188E-02
     -8.546  0.1150E-02  0.2340E-02
     -8.411  0.1181E-02  0.2497E-02
     -8.277  0.1214E-02  0.2658E-02
     -8.142  0.1248E-02  0.2823E-02
     -8.008  0.1283E-02  0.2993E-02
     -7.873  0.1319E-02  0.3168E-02
     -7.739  0.1356E-02  0.3348E-02
     -7.604  0.1395E-02  0.3533E-02
     -7.470  0.1436E-02  0.3723E-02
     -7.335  0.1481E-02  0.3920E-02
     -7.201  0.1534E-02  0.4122E-02
     -7.066  0.1594E-02  0.4332E-02
     -6.932  0.1667E-02  0.4551E-02
     -6.797  0.1777E-02  0.4782E-02
     -6.663  0.1910E-02  0.5030E-02
     -6.529  0.2066E-02  0.5297E-02
     -6.394  0.2173E-02  0.5594E-02
     -6.260  0.2016E-02  0.5873E-02
     -6.125  0.1969E-02  0.6140E-02
     -5.991  0.1944E-02  0.6403E-02
     -5.856  0.1930E-02  0.6664E-02
     -5.722  0.1854E-02  0.6919E-02
     -5.587  0.1780E-02  0.7163E-02
     -5.453  0.1746E-02  0.7399E-02
     -5.318  0.1732E-02  0.7635E-02
     -5.184  0.1652E-02  0.7863E-02
     -5.049  0.1569E-02  0.8079E-02
     -4.915  0.1524E-02  0.8287E-02
     -4.780  0.1504E-02  0.8490E-02
     -4.646  0.1510E-02  0.8692E-02
     -4.511  0.1514E-02  0.8896E-02
     -4.377  0.1493E-02  0.9098E-02
     -4.243  0.1462E-02  0.9297E-02
     -4.108  0.1336E-02  0.9487E-02
     -3.974  0.1148E-02  0.9654E-02
     -3.839  0.9338E-03  0.9793E-02
     -3.705  0.5070E-03  0.9892E-02
     -3.570  0.3799E-03  0.9948E-02
     -3.436  0.4459E-03  0.1000E-01
     -3.301  0.5630E-03  0.1007E-01
     -3.167  0.7405E-03  0.1016E-01
     -3.032  0.9164E-03  0.1027E-01
     -2.898  0.1061E-02  0.1040E-01
     -2.763  0.1330E-02  0.1056E-01
     -2.629  0.1855E-02  0.1077E-01
     -2.494  0.2566E-02  0.1107E-01
     -2.360  0.3225E-02  0.1146E-01
     -2.225  0.3904E-02  0.1194E-01
     -2.091  0.4082E-02  0.1249E-01
     -1.957  0.3504E-02  0.1300E-01
     -1.822  0.2874E-02  0.1342E-01
     -1.688  0.2497E-02  0.1378E-01
     -1.553  0.2240E-02  0.1410E-01
     -1.419  0.2014E-02  0.1439E-01
     -1.284  0.1861E-02  0.1465E-01
     -1.150  0.1738E-02  0.1489E-01
     -1.015  0.1626E-02  0.1511E-01
     -0.881  0.1549E-02  0.1533E-01
     -0.746  0.1493E-02  0.1553E-01
     -0.612  0.1449E-02  0.1573E-01
     -0.477  0.1403E-02  0.1592E-01
     -0.343  0.1344E-02  0.1611E-01
     -0.208  0.1275E-02  0.1628E-01
     -0.074  0.1195E-02  0.1645E-01
      0.061  0.1128E-02  0.1660E-01
      0.195  0.1131E-02  0.1676E-01
      0.329  0.1425E-02  0.1693E-01
      0.464  0.1834E-02  0.1715E-01
      0.598  0.2420E-02  0.1743E-01
      0.733  0.2963E-02  0.1780E-01
      0.867  0.3194E-02  0.1821E-01
      1.002  0.2995E-02  0.1863E-01
      1.136  0.2886E-02  0.1902E-01
      1.271  0.2871E-02  0.1941E-01
      1.405  0.2840E-02  0.1979E-01
      1.540  0.2795E-02  0.2017E-01
      1.674  0.2775E-02  0.2055E-01
      1.809  0.2791E-02  0.2092E-01
      1.943  0.2854E-02  0.2130E-01
      2.078  0.2910E-02  0.2169E-01
      2.212  0.3070E-02  0.2209E-01
      2.347  0.3247E-02  0.2251E-01
      2.481  0.3409E-02  0.2296E-01
      2.615  0.3511E-02  0.2342E-01
      2.750  0.3713E-02  0.2391E-01
      2.884  0.4047E-02  0.2443E-01
      3.019  0.4362E-02  0.2499E-01
      3.153  0.4328E-02  0.2559E-01
      3.288  0.4207E-02  0.2616E-01
      3.422  0.4175E-02  0.2672E-01
      3.557  0.4156E-02  0.2728E-01
      3.691  0.4120E-02  0.2784E-01
      3.826  0.4077E-02  0.2839E-01
      3.960  0.4041E-02  0.2893E-01
      4.095  0.3985E-02  0.2947E-01
      4.229  0.3921E-02  0.3001E-01
      4.364  0.3886E-02  0.3053E-01
      4.498  0.3865E-02  0.3105E-01
      4.633  0.3841E-02  0.3157E-01
      4.767  0.3804E-02  0.3208E-01
      4.901  0.3764E-02  0.3259E-01
      5.036  0.3732E-02  0.3310E-01
      5.170  0.3703E-02  0.3360E-01
      5.305  0.3666E-02  0.3409E-01
      5.439  0.3634E-02  0.3458E-01
      5.574  0.3609E-02  0.3507E-01
      5.708  0.3560E-02  0.3555E-01
      5.843  0.3486E-02  0.3603E-01
      5.977  0.3345E-02  0.3649E-01
      6.112  0.2982E-02  0.3692E-01
      6.246  0.2523E-02  0.3729E-01
      6.381  0.2233E-02  0.3761E-01
      6.515  0.2011E-02  0.3789E-01
      6.650  0.1836E-02  0.3815E-01
      6.784  0.1711E-02  0.3839E-01
      6.919  0.1578E-02  0.3861E-01
      7.053  0.1430E-02  0.3881E-01
      7.187  0.1277E-02  0.3899E-01
      7.322  0.1161E-02  0.3916E-01
      7.456  0.1048E-02  0.3931E-01
      7.591  0.9358E-03  0.3944E-01
      7.725  0.8286E-03  0.3956E-01
      7.860  0.7404E-03  0.3966E-01
      7.994  0.6518E-03  0.3976E-01
      8.129  0.5580E-03  0.3984E-01
      8.263  0.4684E-03  0.3991E-01
      8.398  0.3019E-03  0.3996E-01
      8.532  0.1240E-03  0.3999E-01
      8.667  0.2530E-04  0.4000E-01
      8.801  0.0000E+00  0.4000E-01
      8.936  0.0000E+00  0.4000E-01
      9.070  0.0000E+00  0.4000E-01
      9.205  0.0000E+00  0.4000E-01
      9.339  0.0000E+00  0.4000E-01
      9.473  0.0000E+00  0.4000E-01
      9.608  0.0000E+00  0.4000E-01
      9.742  0.0000E+00  0.4000E-01
      9.877  0.0000E+00  0.4000E-01
     10.011  0.0000E+00  0.4000E-01
     10.146  0.0000E+00  0.4000E-01
     10.280  0.0000E+00  0.4000E-01
     10.415  0.0000E+00  0.4000E-01
     10.549  0.0000E+00  0.4000E-01
     10.684  0.0000E+00  0.4000E-01
     10.818  0.0000E+00  0.4000E-01
     10.953  0.0000E+00  0.4000E-01
     11.087  0.0000E+00  0.4000E-01
     11.222  0.0000E+00  0.4000E-01
     11.356  0.0000E+00  0.4000E-01
     11.491  0.0000E+00  0.4000E-01
     11.625  0.0000E+00  0.4000E-01
     11.759  0.0000E+00  0.4000E-01
     11.894  0.0000E+00  0.4000E-01
     12.028  0.0000E+00  0.4000E-01
     12.163  0.0000E+00  0.4000E-01
     12.297  0.0000E+00  0.4000E-01
     12.432  0.0000E+00  0.4000E-01
     12.566  0.0000E+00  0.4000E-01
     12.701  0.0000E+00  0.4000E-01
     12.835  0.5989E-05  0.4000E-01
     12.970  0.1007E-03  0.4001E-01
     13.104  0.3163E-03  0.4003E-01
     13.239  0.5610E-03  0.4009E-01
     13.373  0.8151E-03  0.4018E-01
     13.508  0.9998E-03  0.4031E-01
     13.642  0.1157E-02  0.4045E-01
     13.777  0.1312E-02  0.4062E-01
     13.911  0.1521E-02  0.4081E-01
     14.045  0.1712E-02  0.4103E-01
     14.180  0.1955E-02  0.4127E-01
     14.314  0.2234E-02  0.4155E-01
     14.449  0.2452E-02  0.4187E-01
     14.583  0.2504E-02  0.4220E-01
     14.718  0.2631E-02  0.4255E-01
     14.852  0.2769E-02  0.4291E-01
     14.987  0.2879E-02  0.4329E-01
     15.121  0.3001E-02  0.4369E-01
     15.256  0.3112E-02  0.4410E-01
     15.390  0.3252E-02  0.4453E-01
     15.525  0.3411E-02  0.4497E-01
     15.659  0.3605E-02  0.4544E-01
     15.794  0.3853E-02  0.4594E-01
     15.928  0.4213E-02  0.4649E-01
     16.063  0.4817E-02  0.4709E-01
     16.197  0.5562E-02  0.4779E-01
     16.331  0.6300E-02  0.4858E-01
     16.466  0.7000E-02  0.4948E-01
     16.600  0.6796E-02  0.5043E-01
     16.735  0.4296E-02  0.5119E-01
     16.869  0.3562E-02  0.5170E-01
     17.004  0.3924E-02  0.5219E-01
     17.138  0.4493E-02  0.5277E-01
     17.273  0.4930E-02  0.5340E-01
     17.407  0.4903E-02  0.5408E-01
     17.542  0.4583E-02  0.5471E-01
     17.676  0.4644E-02  0.5533E-01
     17.811  0.4890E-02  0.5597E-01
     17.945  0.5262E-02  0.5666E-01
     18.080  0.5524E-02  0.5738E-01
     18.214  0.5003E-02  0.5809E-01
     18.349  0.5014E-02  0.5876E-01
     18.483  0.4870E-02  0.5943E-01
     18.617  0.4615E-02  0.6007E-01
     18.752  0.4250E-02  0.6067E-01
     18.886  0.3853E-02  0.6121E-01
     19.021  0.3502E-02  0.6170E-01
     19.155  0.4277E-02  0.6222E-01
     19.290  0.3202E-02  0.6270E-01
     19.424  0.2812E-02  0.6310E-01
     19.559  0.2534E-02  0.6346E-01
     19.693  0.2348E-02  0.6378E-01
     19.828  0.2320E-02  0.6410E-01
     19.962  0.2553E-02  0.6442E-01
     20.097  0.2958E-02  0.6479E-01
     20.231  0.3134E-02  0.6520E-01
     20.366  0.3942E-02  0.6568E-01
     20.500  0.4264E-02  0.6624E-01
     20.635  0.4554E-02  0.6683E-01
     20.769  0.5000E-02  0.6747E-01
     20.903  0.5494E-02  0.6819E-01
     21.038  0.5019E-02  0.6889E-01
     21.172  0.5035E-02  0.6957E-01
     21.307  0.4837E-02  0.7024E-01
     21.441  0.4278E-02  0.7085E-01
     21.576  0.3813E-02  0.7139E-01
     21.710  0.3760E-02  0.7190E-01
     21.845  0.3820E-02  0.7240E-01
     21.979  0.4138E-02  0.7294E-01
     22.114  0.4721E-02  0.7353E-01
     22.248  0.5465E-02  0.7421E-01
     22.383  0.5812E-02  0.7498E-01
     22.517  0.5508E-02  0.7575E-01
     22.652  0.4868E-02  0.7644E-01
     22.786  0.4044E-02  0.7704E-01
     22.921  0.3493E-02  0.7755E-01
     23.055  0.3060E-02  0.7799E-01
     23.189  0.2687E-02  0.7838E-01
     23.324  0.2435E-02  0.7872E-01
     23.458  0.2307E-02  0.7904E-01
     23.593  0.2039E-02  0.7933E-01
     23.727  0.1324E-02  0.7957E-01
     23.862  0.9450E-03  0.7972E-01
     23.996  0.8122E-03  0.7983E-01
     24.131  0.5265E-03  0.7993E-01
     24.265  0.2416E-03  0.7998E-01
     24.400  0.6782E-04  0.8000E-01
     24.534  0.8597E-06  0.8000E-01
     24.669  0.0000E+00  0.8000E-01
     24.803  0.0000E+00  0.8000E-01
     24.938  0.0000E+00  0.8000E-01
     25.072  0.0000E+00  0.8000E-01
     25.207  0.0000E+00  0.8000E-01
     25.341  0.0000E+00  0.8000E-01
     25.475  0.0000E+00  0.8000E-01
     25.610  0.0000E+00  0.8000E-01
     25.744  0.0000E+00  0.8000E-01
     25.879  0.0000E+00  0.8000E-01
     26.013  0.0000E+00  0.8000E-01
     26.148  0.0000E+00  0.8000E-01
     26.282  0.0000E+00  0.8000E-01
     26.417  0.0000E+00  0.8000E-01
     26.551  0.0000E+00  0.8000E-01
