       N       E                     dE             d eps       ncg     rms          rms(c)
DAV:   1     0.930656279348E+01    0.93066E+01   -0.64344E+03  3152   0.139E+03
DAV:   2    -0.184231813824E+02   -0.27730E+02   -0.27493E+02  4792   0.141E+02
DAV:   3    -0.186459276307E+02   -0.22275E+00   -0.22275E+00  3424   0.168E+01
DAV:   4    -0.186463681331E+02   -0.44050E-03   -0.44050E-03  4432   0.739E-01
DAV:   5    -0.186463683530E+02   -0.21992E-06   -0.21992E-06  3328   0.104E-02    0.438E+00
DAV:   6    -0.182599124594E+02    0.38646E+00   -0.30078E-01  3224   0.433E+00    0.242E+00
DAV:   7    -0.181304350532E+02    0.12948E+00   -0.33208E-01  3896   0.465E+00    0.344E-01
DAV:   8    -0.181316874554E+02   -0.12524E-02   -0.18288E-03  3424   0.511E-01    0.432E-02
DAV:   9    -0.181317126834E+02   -0.25228E-04   -0.13281E-04  4584   0.103E-01    0.123E-02
DAV:  10    -0.181317229774E+02   -0.10294E-04   -0.11896E-05  3128   0.398E-02    0.944E-04
DAV:  11    -0.181317228906E+02    0.86725E-07   -0.41226E-08  4544   0.218E-03    0.209E-04
DAV:  12    -0.181317228698E+02    0.20873E-07   -0.49513E-09  2976   0.936E-04    0.482E-05
DAV:  13    -0.181317228716E+02   -0.18685E-08   -0.13646E-10  1552   0.109E-04
   1 F= -.18488905E+02 E0= -.18488905E+02  d E =-.184889E+02
