graphite                                
           1
     2.580935    0.000000    0.000000
     1.290468    2.235156    0.000000
     1.290468    0.745052    2.107325
   C 
   2
Direct configuration=     1
   0.00000000  0.00000000  0.00000000
   0.25000000  0.25000000  0.24999999
