   4   4   0   0
  0.8119452E+01  0.2466437E-09  0.2466437E-09  0.6167528E-09  0.5000000E-15
  1.000000000000000E-004
  CAR 
 graphite                                
     19.26290797    -16.29942865  301      5.42008263      1.00000000
    -16.299  0.0000E+00  0.0000E+00
    -16.181  0.0000E+00  0.0000E+00
    -16.062  0.0000E+00  0.0000E+00
    -15.944  0.0000E+00  0.0000E+00
    -15.825  0.0000E+00  0.0000E+00
    -15.707  0.0000E+00  0.0000E+00
    -15.588  0.0000E+00  0.0000E+00
    -15.470  0.0000E+00  0.0000E+00
    -15.351  0.0000E+00  0.0000E+00
    -15.233  0.0000E+00  0.0000E+00
    -15.114  0.0000E+00  0.0000E+00
    -14.995  0.0000E+00  0.0000E+00
    -14.877  0.0000E+00  0.0000E+00
    -14.758  0.0000E+00  0.0000E+00
    -14.640  0.0000E+00  0.0000E+00
    -14.521  0.0000E+00  0.0000E+00
    -14.403  0.0000E+00  0.0000E+00
    -14.284  0.2273E-04  0.1151E-06
    -14.166  0.8731E-03  0.4533E-04
    -14.047  0.1290E-02  0.1823E-03
    -13.929  0.1722E-02  0.3601E-03
    -13.810  0.2255E-02  0.5944E-03
    -13.692  0.3001E-02  0.9041E-03
    -13.573  0.2945E-02  0.1274E-02
    -13.454  0.3047E-02  0.1629E-02
    -13.336  0.3123E-02  0.1996E-02
    -13.217  0.3116E-02  0.2367E-02
    -13.099  0.3082E-02  0.2734E-02
    -12.980  0.3104E-02  0.3101E-02
    -12.862  0.3119E-02  0.3470E-02
    -12.743  0.3121E-02  0.3840E-02
    -12.625  0.3090E-02  0.4209E-02
    -12.506  0.3098E-02  0.4575E-02
    -12.388  0.3128E-02  0.4944E-02
    -12.269  0.3166E-02  0.5317E-02
    -12.150  0.3165E-02  0.5693E-02
    -12.032  0.3167E-02  0.6068E-02
    -11.913  0.3167E-02  0.6444E-02
    -11.795  0.3147E-02  0.6818E-02
    -11.676  0.3131E-02  0.7190E-02
    -11.558  0.3151E-02  0.7562E-02
    -11.439  0.3176E-02  0.7937E-02
    -11.321  0.3205E-02  0.8315E-02
    -11.202  0.3238E-02  0.8697E-02
    -11.084  0.3242E-02  0.9081E-02
    -10.965  0.3247E-02  0.9466E-02
    -10.847  0.3245E-02  0.9851E-02
    -10.728  0.3233E-02  0.1024E-01
    -10.609  0.3241E-02  0.1062E-01
    -10.491  0.3256E-02  0.1100E-01
    -10.372  0.3282E-02  0.1139E-01
    -10.254  0.3312E-02  0.1178E-01
    -10.135  0.3349E-02  0.1218E-01
    -10.017  0.3394E-02  0.1258E-01
     -9.898  0.3444E-02  0.1298E-01
     -9.780  0.3497E-02  0.1339E-01
     -9.661  0.3578E-02  0.1381E-01
     -9.543  0.3676E-02  0.1424E-01
     -9.424  0.3794E-02  0.1468E-01
     -9.306  0.4588E-02  0.1517E-01
     -9.187  0.4962E-02  0.1574E-01
     -9.068  0.5065E-02  0.1633E-01
     -8.950  0.5091E-02  0.1695E-01
     -8.831  0.3774E-02  0.1747E-01
     -8.713  0.2824E-02  0.1786E-01
     -8.594  0.2498E-02  0.1817E-01
     -8.476  0.5552E-02  0.1849E-01
     -8.357  0.2560E-02  0.1886E-01
     -8.239  0.2578E-02  0.1916E-01
     -8.120  0.1214E-02  0.1941E-01
     -8.002  0.1065E-02  0.1955E-01
     -7.883  0.9160E-03  0.1966E-01
     -7.764  0.7921E-03  0.1976E-01
     -7.646  0.9405E-03  0.1986E-01
     -7.527  0.1229E-02  0.1999E-01
     -7.409  0.1523E-02  0.2016E-01
     -7.290  0.3179E-02  0.2041E-01
     -7.172  0.4011E-02  0.2089E-01
     -7.053  0.4183E-02  0.2137E-01
     -6.935  0.4256E-02  0.2188E-01
     -6.816  0.4474E-02  0.2237E-01
     -6.698  0.5272E-02  0.2295E-01
     -6.579  0.6069E-02  0.2362E-01
     -6.461  0.4982E-02  0.2426E-01
     -6.342  0.4005E-02  0.2481E-01
     -6.223  0.3465E-02  0.2523E-01
     -6.105  0.3368E-02  0.2563E-01
     -5.986  0.3281E-02  0.2603E-01
     -5.868  0.3199E-02  0.2641E-01
     -5.749  0.3112E-02  0.2678E-01
     -5.631  0.3016E-02  0.2715E-01
     -5.512  0.2921E-02  0.2750E-01
     -5.394  0.2826E-02  0.2784E-01
     -5.275  0.2730E-02  0.2817E-01
     -5.157  0.2634E-02  0.2849E-01
     -5.038  0.2568E-02  0.2879E-01
     -4.919  0.2782E-02  0.2911E-01
     -4.801  0.3017E-02  0.2945E-01
     -4.682  0.3252E-02  0.2983E-01
     -4.564  0.3486E-02  0.3022E-01
     -4.445  0.3720E-02  0.3065E-01
     -4.327  0.3955E-02  0.3111E-01
     -4.208  0.4062E-02  0.3159E-01
     -4.090  0.4094E-02  0.3207E-01
     -3.971  0.3957E-02  0.3255E-01
     -3.853  0.3824E-02  0.3301E-01
     -3.734  0.3823E-02  0.3346E-01
     -3.616  0.3821E-02  0.3391E-01
     -3.497  0.3820E-02  0.3437E-01
     -3.378  0.3950E-02  0.3482E-01
     -3.260  0.4384E-02  0.3532E-01
     -3.141  0.4511E-02  0.3584E-01
     -3.023  0.4754E-02  0.3639E-01
     -2.904  0.4971E-02  0.3697E-01
     -2.786  0.5192E-02  0.3757E-01
     -2.667  0.5438E-02  0.3820E-01
     -2.549  0.5731E-02  0.3886E-01
     -2.430  0.5985E-02  0.3956E-01
     -2.312  0.6226E-02  0.4028E-01
     -2.193  0.6586E-02  0.4104E-01
     -2.074  0.7010E-02  0.4185E-01
     -1.956  0.6248E-02  0.4264E-01
     -1.837  0.6168E-02  0.4338E-01
     -1.719  0.5959E-02  0.4410E-01
     -1.600  0.5925E-02  0.4480E-01
     -1.482  0.5994E-02  0.4551E-01
     -1.363  0.7034E-02  0.4628E-01
     -1.245  0.8283E-02  0.4719E-01
     -1.126  0.9242E-02  0.4823E-01
     -1.008  0.1029E-01  0.4938E-01
     -0.889  0.1580E-01  0.5087E-01
     -0.771  0.9761E-02  0.5229E-01
     -0.652  0.8471E-02  0.5335E-01
     -0.533  0.7873E-02  0.5432E-01
     -0.415  0.7567E-02  0.5522E-01
     -0.296  0.6039E-02  0.5603E-01
     -0.178  0.5954E-02  0.5673E-01
     -0.059  0.5895E-02  0.5744E-01
      0.059  0.5618E-02  0.5812E-01
      0.178  0.5599E-02  0.5878E-01
      0.296  0.7156E-02  0.5951E-01
      0.415  0.7662E-02  0.6045E-01
      0.533  0.7352E-02  0.6130E-01
      0.652  0.6913E-02  0.6215E-01
      0.770  0.6598E-02  0.6295E-01
      0.889  0.6501E-02  0.6372E-01
      1.008  0.6492E-02  0.6449E-01
      1.126  0.6295E-02  0.6525E-01
      1.245  0.6046E-02  0.6598E-01
      1.363  0.5899E-02  0.6669E-01
      1.482  0.6046E-02  0.6739E-01
      1.600  0.5912E-02  0.6810E-01
      1.719  0.5785E-02  0.6880E-01
      1.837  0.5934E-02  0.6948E-01
      1.956  0.5854E-02  0.7019E-01
      2.074  0.5570E-02  0.7087E-01
      2.193  0.6409E-02  0.7157E-01
      2.312  0.5655E-02  0.7229E-01
      2.430  0.4494E-02  0.7290E-01
      2.549  0.3894E-02  0.7338E-01
      2.667  0.3869E-02  0.7384E-01
      2.786  0.3826E-02  0.7429E-01
      2.904  0.3817E-02  0.7475E-01
      3.023  0.3840E-02  0.7520E-01
      3.141  0.3993E-02  0.7566E-01
      3.260  0.4281E-02  0.7615E-01
      3.378  0.4385E-02  0.7667E-01
      3.497  0.4146E-02  0.7719E-01
      3.615  0.3471E-02  0.7764E-01
      3.734  0.3078E-02  0.7802E-01
      3.853  0.2672E-02  0.7837E-01
      3.971  0.2047E-02  0.7865E-01
      4.090  0.1754E-02  0.7887E-01
      4.208  0.1575E-02  0.7906E-01
      4.327  0.1391E-02  0.7924E-01
      4.445  0.1210E-02  0.7939E-01
      4.564  0.1048E-02  0.7953E-01
      4.682  0.9201E-03  0.7964E-01
      4.801  0.8508E-03  0.7975E-01
      4.919  0.6742E-03  0.7984E-01
      5.038  0.5031E-03  0.7991E-01
      5.157  0.3366E-03  0.7996E-01
      5.275  0.1739E-03  0.7999E-01
      5.394  0.2162E-04  0.8000E-01
      5.512  0.6081E-04  0.8000E-01
      5.631  0.1486E-03  0.8002E-01
      5.749  0.2417E-03  0.8004E-01
      5.868  0.3401E-03  0.8007E-01
      5.986  0.4455E-03  0.8012E-01
      6.105  0.5589E-03  0.8018E-01
      6.223  0.6803E-03  0.8025E-01
      6.342  0.8135E-03  0.8034E-01
      6.460  0.1050E-02  0.8045E-01
      6.579  0.1417E-02  0.8059E-01
      6.698  0.1794E-02  0.8078E-01
      6.816  0.2092E-02  0.8102E-01
      6.935  0.2482E-02  0.8128E-01
      7.053  0.5036E-02  0.8167E-01
      7.172  0.5246E-02  0.8244E-01
      7.290  0.5415E-02  0.8306E-01
      7.409  0.4174E-02  0.8358E-01
      7.527  0.3934E-02  0.8406E-01
      7.646  0.3779E-02  0.8452E-01
      7.764  0.3691E-02  0.8496E-01
      7.883  0.3684E-02  0.8540E-01
      8.002  0.3738E-02  0.8584E-01
      8.120  0.3624E-02  0.8628E-01
      8.239  0.3088E-02  0.8667E-01
      8.357  0.2943E-02  0.8703E-01
      8.476  0.2811E-02  0.8737E-01
      8.594  0.2691E-02  0.8769E-01
      8.713  0.2590E-02  0.8800E-01
      8.831  0.2524E-02  0.8831E-01
      8.950  0.2464E-02  0.8860E-01
      9.068  0.2408E-02  0.8889E-01
      9.187  0.2356E-02  0.8917E-01
      9.305  0.2306E-02  0.8945E-01
      9.424  0.2241E-02  0.8972E-01
      9.543  0.2183E-02  0.8998E-01
      9.661  0.2133E-02  0.9024E-01
      9.780  0.2087E-02  0.9049E-01
      9.898  0.2043E-02  0.9073E-01
     10.017  0.2001E-02  0.9097E-01
     10.135  0.1961E-02  0.9121E-01
     10.254  0.1923E-02  0.9144E-01
     10.372  0.1885E-02  0.9166E-01
     10.491  0.1863E-02  0.9189E-01
     10.609  0.1842E-02  0.9211E-01
     10.728  0.1890E-02  0.9233E-01
     10.846  0.2047E-02  0.9256E-01
     10.965  0.2156E-02  0.9281E-01
     11.084  0.2207E-02  0.9307E-01
     11.202  0.2309E-02  0.9333E-01
     11.321  0.2395E-02  0.9361E-01
     11.439  0.2455E-02  0.9390E-01
     11.558  0.2506E-02  0.9420E-01
     11.676  0.2576E-02  0.9450E-01
     11.795  0.2649E-02  0.9481E-01
     11.913  0.2754E-02  0.9513E-01
     12.032  0.2764E-02  0.9546E-01
     12.150  0.2541E-02  0.9577E-01
     12.269  0.2243E-02  0.9605E-01
     12.388  0.2161E-02  0.9631E-01
     12.506  0.2041E-02  0.9656E-01
     12.625  0.2406E-02  0.9682E-01
     12.743  0.2942E-02  0.9713E-01
     12.862  0.3573E-02  0.9752E-01
     12.980  0.4638E-02  0.9800E-01
     13.099  0.6085E-02  0.9863E-01
     13.217  0.7370E-02  0.9943E-01
     13.336  0.8436E-02  0.1004E+00
     13.454  0.9482E-02  0.1015E+00
     13.573  0.9782E-02  0.1026E+00
     13.691  0.9945E-02  0.1038E+00
     13.810  0.1915E-01  0.1052E+00
     13.929  0.1253E-01  0.1068E+00
     14.047  0.1011E-01  0.1082E+00
     14.166  0.7814E-02  0.1093E+00
     14.284  0.6296E-02  0.1101E+00
     14.403  0.6346E-02  0.1108E+00
     14.521  0.6591E-02  0.1116E+00
     14.640  0.6333E-02  0.1124E+00
     14.758  0.5369E-02  0.1131E+00
     14.877  0.4580E-02  0.1136E+00
     14.995  0.3850E-02  0.1141E+00
     15.114  0.3312E-02  0.1146E+00
     15.233  0.3212E-02  0.1150E+00
     15.351  0.4039E-02  0.1153E+00
     15.470  0.4054E-02  0.1159E+00
     15.588  0.3547E-02  0.1163E+00
     15.707  0.3638E-02  0.1167E+00
     15.825  0.4062E-02  0.1172E+00
     15.944  0.4580E-02  0.1177E+00
     16.062  0.3664E-02  0.1182E+00
     16.181  0.2741E-02  0.1186E+00
     16.299  0.2119E-02  0.1189E+00
     16.418  0.1797E-02  0.1191E+00
     16.536  0.1545E-02  0.1193E+00
     16.655  0.1357E-02  0.1195E+00
     16.774  0.1281E-02  0.1196E+00
     16.892  0.1140E-02  0.1198E+00
     17.011  0.7531E-03  0.1199E+00
     17.129  0.5104E-03  0.1200E+00
     17.248  0.9025E-04  0.1200E+00
     17.366  0.0000E+00  0.1200E+00
     17.485  0.0000E+00  0.1200E+00
     17.603  0.0000E+00  0.1200E+00
     17.722  0.0000E+00  0.1200E+00
     17.840  0.0000E+00  0.1200E+00
     17.959  0.0000E+00  0.1200E+00
     18.077  0.0000E+00  0.1200E+00
     18.196  0.0000E+00  0.1200E+00
     18.315  0.0000E+00  0.1200E+00
     18.433  0.0000E+00  0.1200E+00
     18.552  0.0000E+00  0.1200E+00
     18.670  0.0000E+00  0.1200E+00
     18.789  0.0000E+00  0.1200E+00
     18.907  0.0000E+00  0.1200E+00
     19.026  0.0000E+00  0.1200E+00
     19.144  0.0000E+00  0.1200E+00
     19.263  0.0000E+00  0.1200E+00
