mesh: [     9,     9,     4 ]
nqpoint: 50     
reciprocal_lattice:
- [   0.40553429,   0.23434576,   0.00000000 ] # a*
- [   0.00018224,   0.46837588,   0.00000000 ] # b*
- [   0.00000000,   0.00000000,   0.16213951 ] # c*
natom:   4      
lattice:
- [     2.466437248995937,    -0.000959642981403,     0.000000000000000 ] # a
- [    -1.234049699648306,     2.135517492938035,     0.000000000000000 ] # b
- [     0.000000000000000,     0.000000000000000,     6.167528177175500 ] # c
points:
- symbol: C  # 1
  coordinates: [  0.999346608899160,  0.000653437440448,  0.250000000000000 ]
  mass: 12.010700
- symbol: C  # 2
  coordinates: [  0.000653437440448,  0.999346608899160,  0.750000000000000 ]
  mass: 12.010700
- symbol: C  # 3
  coordinates: [  0.332584924946424,  0.667415057713967,  0.250000000000000 ]
  mass: 12.010700
- symbol: C  # 4
  coordinates: [  0.667415057713967,  0.332584924946424,  0.750000000000000 ]
  mass: 12.010700
phonon:
- q-position: [    0.0000000,    0.0000000,    0.1250000 ]
  weight: 2    
  band:
  - # 1
    frequency:    -2.8028548821
  - # 2
    frequency:    -0.8634653109
  - # 3
    frequency:    -0.5737416856
  - # 4
    frequency:     1.1865779677
  - # 5
    frequency:     1.7545731810
  - # 6
    frequency:     2.9268597197
  - # 7
    frequency:    20.6813050941
  - # 8
    frequency:    26.3023307297
  - # 9
    frequency:    45.1797171047
  - # 10
    frequency:    45.2802396038
  - # 11
    frequency:    45.3048338580
  - # 12
    frequency:    45.5324394927

- q-position: [    0.1111111,    0.0000000,    0.1250000 ]
  weight: 8    
  band:
  - # 1
    frequency:     3.4715985027
  - # 2
    frequency:     5.9320175011
  - # 3
    frequency:     6.0312521212
  - # 4
    frequency:     6.0710934772
  - # 5
    frequency:    11.2732229482
  - # 6
    frequency:    11.5250051717
  - # 7
    frequency:    20.5301341897
  - # 8
    frequency:    25.7181362519
  - # 9
    frequency:    44.8782651703
  - # 10
    frequency:    45.0930259257
  - # 11
    frequency:    45.3728816171
  - # 12
    frequency:    45.4514090987

- q-position: [    0.2222222,    0.0000000,    0.1250000 ]
  weight: 8    
  band:
  - # 1
    frequency:     7.3845759875
  - # 2
    frequency:     9.9111295455
  - # 3
    frequency:    11.4589339311
  - # 4
    frequency:    11.5335909430
  - # 5
    frequency:    20.1132748030
  - # 6
    frequency:    21.9767305857
  - # 7
    frequency:    22.1690423975
  - # 8
    frequency:    24.0879481019
  - # 9
    frequency:    43.9833805561
  - # 10
    frequency:    44.1598350643
  - # 11
    frequency:    45.3732293513
  - # 12
    frequency:    45.3980014996

- q-position: [    0.3333333,    0.0000000,    0.1250000 ]
  weight: 8    
  band:
  - # 1
    frequency:    10.9493978499
  - # 2
    frequency:    13.0056735654
  - # 3
    frequency:    15.8977033905
  - # 4
    frequency:    15.9456054167
  - # 5
    frequency:    19.5208875159
  - # 6
    frequency:    21.7710706371
  - # 7
    frequency:    30.9547643519
  - # 8
    frequency:    31.1194637627
  - # 9
    frequency:    42.8033951775
  - # 10
    frequency:    42.9074641542
  - # 11
    frequency:    44.5750335384
  - # 12
    frequency:    44.6144715253

- q-position: [    0.4444444,    0.0000000,    0.1250000 ]
  weight: 8    
  band:
  - # 1
    frequency:    13.7858070078
  - # 2
    frequency:    14.7833375217
  - # 3
    frequency:    18.4913504639
  - # 4
    frequency:    18.5074954593
  - # 5
    frequency:    18.9378647946
  - # 6
    frequency:    19.5223177474
  - # 7
    frequency:    37.7465191405
  - # 8
    frequency:    37.8724430684
  - # 9
    frequency:    41.9035128000
  - # 10
    frequency:    41.9518102259
  - # 11
    frequency:    42.2232334882
  - # 12
    frequency:    42.3191448307

- q-position: [    0.1111111,    0.1111111,    0.1250000 ]
  weight: 4    
  band:
  - # 1
    frequency:     7.4118098174
  - # 2
    frequency:     8.3746072952
  - # 3
    frequency:    10.7452916300
  - # 4
    frequency:    10.7663655040
  - # 5
    frequency:    18.8993965803
  - # 6
    frequency:    19.1349764974
  - # 7
    frequency:    20.2561411423
  - # 8
    frequency:    24.5002989716
  - # 9
    frequency:    44.3348244337
  - # 10
    frequency:    44.5752505612
  - # 11
    frequency:    45.3385444456
  - # 12
    frequency:    45.3551851789

- q-position: [    0.2222222,    0.1111111,    0.1250000 ]
  weight: 8    
  band:
  - # 1
    frequency:    10.5595731918
  - # 2
    frequency:    11.6948641585
  - # 3
    frequency:    15.8971449945
  - # 4
    frequency:    16.0088726107
  - # 5
    frequency:    19.7452751283
  - # 6
    frequency:    22.4411111998
  - # 7
    frequency:    27.2404902219
  - # 8
    frequency:    27.4263009733
  - # 9
    frequency:    43.4925508938
  - # 10
    frequency:    43.6153480724
  - # 11
    frequency:    44.7850353084
  - # 12
    frequency:    44.8057312201

- q-position: [    0.3333333,    0.1111111,    0.1250000 ]
  weight: 8    
  band:
  - # 1
    frequency:    13.4011766092
  - # 2
    frequency:    14.1677536806
  - # 3
    frequency:    19.0969751374
  - # 4
    frequency:    19.6966785356
  - # 5
    frequency:    19.8080731782
  - # 6
    frequency:    20.0563617113
  - # 7
    frequency:    34.3164673449
  - # 8
    frequency:    34.4684234757
  - # 9
    frequency:    42.4103191705
  - # 10
    frequency:    42.4491346602
  - # 11
    frequency:    43.3256064884
  - # 12
    frequency:    43.3746707470

- q-position: [   -0.5555556,    0.1111111,    0.1250000 ]
  weight: 8    
  band:
  - # 1
    frequency:    14.4749493270
  - # 2
    frequency:    15.4329470524
  - # 3
    frequency:    18.6693089565
  - # 4
    frequency:    18.7976281153
  - # 5
    frequency:    21.1211012524
  - # 6
    frequency:    21.2051759725
  - # 7
    frequency:    39.4285941584
  - # 8
    frequency:    39.4645323480
  - # 9
    frequency:    39.6292533152
  - # 10
    frequency:    39.7442726508
  - # 11
    frequency:    42.5334168760
  - # 12
    frequency:    42.5655775696

- q-position: [   -0.4444444,    0.1111111,    0.1250000 ]
  weight: 8    
  band:
  - # 1
    frequency:    12.2979075329
  - # 2
    frequency:    14.5855123553
  - # 3
    frequency:    19.0728272972
  - # 4
    frequency:    19.6993650434
  - # 5
    frequency:    19.7576488073
  - # 6
    frequency:    20.4912985797
  - # 7
    frequency:    34.3341459317
  - # 8
    frequency:    34.4329610200
  - # 9
    frequency:    42.3809284514
  - # 10
    frequency:    42.4592014070
  - # 11
    frequency:    43.3259517495
  - # 12
    frequency:    43.4129989295

- q-position: [   -0.3333333,    0.1111111,    0.1250000 ]
  weight: 8    
  band:
  - # 1
    frequency:     9.0001079430
  - # 2
    frequency:    12.2282975766
  - # 3
    frequency:    15.8818891975
  - # 4
    frequency:    15.9091104810
  - # 5
    frequency:    19.6983043889
  - # 6
    frequency:    22.8858905309
  - # 7
    frequency:    27.2690384529
  - # 8
    frequency:    27.3756946291
  - # 9
    frequency:    43.5095160611
  - # 10
    frequency:    43.6172881830
  - # 11
    frequency:    44.7912031932
  - # 12
    frequency:    44.8118485671

- q-position: [   -0.2222222,    0.1111111,    0.1250000 ]
  weight: 8    
  band:
  - # 1
    frequency:     5.0840177968
  - # 2
    frequency:     9.2664377883
  - # 3
    frequency:    10.5395349162
  - # 4
    frequency:    10.6505853143
  - # 5
    frequency:    19.0221799324
  - # 6
    frequency:    19.0908590985
  - # 7
    frequency:    20.2139190777
  - # 8
    frequency:    24.8160512930
  - # 9
    frequency:    44.4031595995
  - # 10
    frequency:    44.4589256128
  - # 11
    frequency:    45.2871739176
  - # 12
    frequency:    45.4756938234

- q-position: [   -0.1111111,    0.1111111,    0.1250000 ]
  weight: 4    
  band:
  - # 1
    frequency:    -0.2843024751
  - # 2
    frequency:     5.3666211532
  - # 3
    frequency:     5.9318960167
  - # 4
    frequency:     6.6306551390
  - # 5
    frequency:    11.4468623115
  - # 6
    frequency:    11.6219439166
  - # 7
    frequency:    20.5135754832
  - # 8
    frequency:    25.8317751266
  - # 9
    frequency:    44.9411842974
  - # 10
    frequency:    44.9789352132
  - # 11
    frequency:    45.2771049547
  - # 12
    frequency:    45.6051103145

- q-position: [    0.2222222,    0.2222222,    0.1250000 ]
  weight: 4    
  band:
  - # 1
    frequency:    13.3115217043
  - # 2
    frequency:    13.8919257745
  - # 3
    frequency:    19.1489974182
  - # 4
    frequency:    20.2477429873
  - # 5
    frequency:    21.6283868800
  - # 6
    frequency:    21.7478267288
  - # 7
    frequency:    31.9920502867
  - # 8
    frequency:    32.1231489879
  - # 9
    frequency:    43.0046391564
  - # 10
    frequency:    43.0201249019
  - # 11
    frequency:    43.3392982039
  - # 12
    frequency:    43.3576553026

- q-position: [    0.3333333,    0.2222222,    0.1250000 ]
  weight: 8    
  band:
  - # 1
    frequency:    15.2607676024
  - # 2
    frequency:    15.7344157090
  - # 3
    frequency:    18.1554695060
  - # 4
    frequency:    18.4476620676
  - # 5
    frequency:    25.4873555876
  - # 6
    frequency:    25.5875777096
  - # 7
    frequency:    36.0550584142
  - # 8
    frequency:    36.1452694904
  - # 9
    frequency:    39.9885880343
  - # 10
    frequency:    40.0120848582
  - # 11
    frequency:    43.3539752690
  - # 12
    frequency:    43.3994850099

- q-position: [   -0.5555556,    0.2222222,    0.1250000 ]
  weight: 8    
  band:
  - # 1
    frequency:    14.2853856997
  - # 2
    frequency:    16.0374777047
  - # 3
    frequency:    18.3871105052
  - # 4
    frequency:    18.7460673385
  - # 5
    frequency:    25.4794578937
  - # 6
    frequency:    25.5658254096
  - # 7
    frequency:    36.0891016694
  - # 8
    frequency:    36.1228821076
  - # 9
    frequency:    39.9578274592
  - # 10
    frequency:    40.0075873756
  - # 11
    frequency:    43.3650814261
  - # 12
    frequency:    43.4125282274

- q-position: [   -0.4444444,    0.2222222,    0.1250000 ]
  weight: 8    
  band:
  - # 1
    frequency:    11.7228279562
  - # 2
    frequency:    14.3482152653
  - # 3
    frequency:    19.0471885556
  - # 4
    frequency:    21.0164104993
  - # 5
    frequency:    21.6202955879
  - # 6
    frequency:    21.6764585833
  - # 7
    frequency:    32.0186017750
  - # 8
    frequency:    32.0554466342
  - # 9
    frequency:    42.9827750879
  - # 10
    frequency:    43.0244766600
  - # 11
    frequency:    43.3657541157
  - # 12
    frequency:    43.3779699458

- q-position: [   -0.3333333,    0.2222222,    0.1250000 ]
  weight: 8    
  band:
  - # 1
    frequency:     8.7377192198
  - # 2
    frequency:    12.1678374496
  - # 3
    frequency:    15.8300768153
  - # 4
    frequency:    15.9091378160
  - # 5
    frequency:    19.6265736104
  - # 6
    frequency:    23.0915143282
  - # 7
    frequency:    27.2817613955
  - # 8
    frequency:    27.3549430060
  - # 9
    frequency:    43.5254135205
  - # 10
    frequency:    43.5707793505
  - # 11
    frequency:    44.7238524692
  - # 12
    frequency:    44.9110017388

- q-position: [   -0.2222222,    0.2222222,    0.1250000 ]
  weight: 4    
  band:
  - # 1
    frequency:     5.8972271087
  - # 2
    frequency:    10.1855246379
  - # 3
    frequency:    11.2686170316
  - # 4
    frequency:    11.4719547556
  - # 5
    frequency:    20.0368931532
  - # 6
    frequency:    22.0287116435
  - # 7
    frequency:    22.1513271360
  - # 8
    frequency:    24.4590042827
  - # 9
    frequency:    44.0176993556
  - # 10
    frequency:    44.0738167244
  - # 11
    frequency:    45.2870550744
  - # 12
    frequency:    45.5517818970

- q-position: [   -0.6666667,    0.3333333,    0.1250000 ]
  weight: 4    
  band:
  - # 1
    frequency:    16.2626267564
  - # 2
    frequency:    16.5925381596
  - # 3
    frequency:    17.1623056123
  - # 4
    frequency:    17.8236166726
  - # 5
    frequency:    29.0506575840
  - # 6
    frequency:    29.0556089662
  - # 7
    frequency:    37.0717444819
  - # 8
    frequency:    37.0862086445
  - # 9
    frequency:    37.1154745776
  - # 10
    frequency:    37.1722843667
  - # 11
    frequency:    43.6812779562
  - # 12
    frequency:    43.7370328744

- q-position: [   -0.5555556,    0.3333333,    0.1250000 ]
  weight: 8    
  band:
  - # 1
    frequency:    14.4790863611
  - # 2
    frequency:    15.8251832975
  - # 3
    frequency:    18.3097714365
  - # 4
    frequency:    18.8684744988
  - # 5
    frequency:    25.5120328711
  - # 6
    frequency:    25.5431751436
  - # 7
    frequency:    36.0771860725
  - # 8
    frequency:    36.1143029544
  - # 9
    frequency:    39.9643006017
  - # 10
    frequency:    39.9990974778
  - # 11
    frequency:    43.3710949721
  - # 12
    frequency:    43.3948945906

- q-position: [   -0.4444444,    0.3333333,    0.1250000 ]
  weight: 8    
  band:
  - # 1
    frequency:    12.4213744992
  - # 2
    frequency:    14.3518821913
  - # 3
    frequency:    18.8979595524
  - # 4
    frequency:    19.7037421477
  - # 5
    frequency:    19.7458939026
  - # 6
    frequency:    20.7682791280
  - # 7
    frequency:    34.3261862483
  - # 8
    frequency:    34.4045732095
  - # 9
    frequency:    42.3943517363
  - # 10
    frequency:    42.4471521587
  - # 11
    frequency:    43.2991129919
  - # 12
    frequency:    43.4241170838

- q-position: [   -0.3333333,    0.3333333,    0.1250000 ]
  weight: 4    
  band:
  - # 1
    frequency:    10.2484039171
  - # 2
    frequency:    12.9673587627
  - # 3
    frequency:    15.8337276401
  - # 4
    frequency:    15.9195244316
  - # 5
    frequency:    19.3401129635
  - # 6
    frequency:    22.3189806235
  - # 7
    frequency:    30.9636684839
  - # 8
    frequency:    31.0692243321
  - # 9
    frequency:    42.8100662150
  - # 10
    frequency:    42.8721160384
  - # 11
    frequency:    44.5177552358
  - # 12
    frequency:    44.7064610131

- q-position: [   -0.5555556,    0.4444444,    0.1250000 ]
  weight: 4    
  band:
  - # 1
    frequency:    14.5805958428
  - # 2
    frequency:    15.2516768271
  - # 3
    frequency:    18.6961051775
  - # 4
    frequency:    18.8757846270
  - # 5
    frequency:    21.1606228415
  - # 6
    frequency:    21.1659082657
  - # 7
    frequency:    39.4565252194
  - # 8
    frequency:    39.4620635705
  - # 9
    frequency:    39.5972661370
  - # 10
    frequency:    39.7010826083
  - # 11
    frequency:    42.5359173570
  - # 12
    frequency:    42.5455961392

- q-position: [   -0.4444444,    0.4444444,    0.1250000 ]
  weight: 4    
  band:
  - # 1
    frequency:    13.7215617956
  - # 2
    frequency:    14.7010275915
  - # 3
    frequency:    18.4795413671
  - # 4
    frequency:    18.5056441668
  - # 5
    frequency:    18.7529361225
  - # 6
    frequency:    19.8479130668
  - # 7
    frequency:    37.7412274075
  - # 8
    frequency:    37.8372708695
  - # 9
    frequency:    41.8938881341
  - # 10
    frequency:    41.9457218644
  - # 11
    frequency:    42.1977712501
  - # 12
    frequency:    42.3291699733

- q-position: [    0.0000000,    0.0000000,    0.3750000 ]
  weight: 2    
  band:
  - # 1
    frequency:    -2.8216201676
  - # 2
    frequency:    -2.2388406769
  - # 3
    frequency:    -1.2601168318
  - # 4
    frequency:    -0.4169405082
  - # 5
    frequency:     3.3752440012
  - # 6
    frequency:     4.9011580071
  - # 7
    frequency:    24.3607465756
  - # 8
    frequency:    26.6927408404
  - # 9
    frequency:    45.2845556515
  - # 10
    frequency:    45.2947866158
  - # 11
    frequency:    45.3504163625
  - # 12
    frequency:    45.4963334184

- q-position: [    0.1111111,    0.0000000,    0.3750000 ]
  weight: 8    
  band:
  - # 1
    frequency:     5.1572149789
  - # 2
    frequency:     5.7958197115
  - # 3
    frequency:     5.8373119294
  - # 4
    frequency:     6.4755781684
  - # 5
    frequency:    11.2586465358
  - # 6
    frequency:    11.3639617641
  - # 7
    frequency:    23.9078719238
  - # 8
    frequency:    26.0558113874
  - # 9
    frequency:    44.9965331330
  - # 10
    frequency:    45.0771588653
  - # 11
    frequency:    45.3979718968
  - # 12
    frequency:    45.4387459275

- q-position: [    0.2222222,    0.0000000,    0.3750000 ]
  weight: 8    
  band:
  - # 1
    frequency:     8.3507233664
  - # 2
    frequency:     9.4497118541
  - # 3
    frequency:    11.4191214700
  - # 4
    frequency:    11.4502662275
  - # 5
    frequency:    21.9989503741
  - # 6
    frequency:    22.0793218986
  - # 7
    frequency:    22.6592902577
  - # 8
    frequency:    24.2937749220
  - # 9
    frequency:    44.0680999199
  - # 10
    frequency:    44.1400287194
  - # 11
    frequency:    45.3869478114
  - # 12
    frequency:    45.3982893782

- q-position: [    0.3333333,    0.0000000,    0.3750000 ]
  weight: 8    
  band:
  - # 1
    frequency:    11.4978089064
  - # 2
    frequency:    12.3396645850
  - # 3
    frequency:    15.8905834028
  - # 4
    frequency:    15.9104700258
  - # 5
    frequency:    20.9071643764
  - # 6
    frequency:    21.8310057449
  - # 7
    frequency:    30.9905349554
  - # 8
    frequency:    31.0587869521
  - # 9
    frequency:    42.8490269758
  - # 10
    frequency:    42.8919582196
  - # 11
    frequency:    44.5895404913
  - # 12
    frequency:    44.6057774985

- q-position: [    0.4444444,    0.0000000,    0.3750000 ]
  weight: 8    
  band:
  - # 1
    frequency:    14.0555709123
  - # 2
    frequency:    14.4677693903
  - # 3
    frequency:    18.4934148212
  - # 4
    frequency:    18.5001037643
  - # 5
    frequency:    19.2334839198
  - # 6
    frequency:    19.4787605535
  - # 7
    frequency:    37.7792449983
  - # 8
    frequency:    37.8313912195
  - # 9
    frequency:    41.9202247464
  - # 10
    frequency:    41.9402376706
  - # 11
    frequency:    42.2502774282
  - # 12
    frequency:    42.2900006646

- q-position: [    0.1111111,    0.1111111,    0.3750000 ]
  weight: 4    
  band:
  - # 1
    frequency:     7.9744809322
  - # 2
    frequency:     8.6470253748
  - # 3
    frequency:    10.6819964177
  - # 4
    frequency:    10.6909728052
  - # 5
    frequency:    18.9299202898
  - # 6
    frequency:    19.0278736760
  - # 7
    frequency:    22.9946946597
  - # 8
    frequency:    24.7451301928
  - # 9
    frequency:    44.4508016101
  - # 10
    frequency:    44.5503134682
  - # 11
    frequency:    45.3405092922
  - # 12
    frequency:    45.3474190183

- q-position: [    0.2222222,    0.1111111,    0.3750000 ]
  weight: 8    
  band:
  - # 1
    frequency:    10.9678791061
  - # 2
    frequency:    11.4753873395
  - # 3
    frequency:    15.9050366988
  - # 4
    frequency:    15.9514473373
  - # 5
    frequency:    21.4287289817
  - # 6
    frequency:    22.5338034003
  - # 7
    frequency:    27.2809796033
  - # 8
    frequency:    27.3580918933
  - # 9
    frequency:    43.5500426102
  - # 10
    frequency:    43.6007561363
  - # 11
    frequency:    44.7908517618
  - # 12
    frequency:    44.7995059847

- q-position: [    0.3333333,    0.1111111,    0.3750000 ]
  weight: 8    
  band:
  - # 1
    frequency:    13.6355734705
  - # 2
    frequency:    13.9496197044
  - # 3
    frequency:    19.6190558798
  - # 4
    frequency:    19.7248878402
  - # 5
    frequency:    19.7710396416
  - # 6
    frequency:    20.0127578255
  - # 7
    frequency:    34.3569768622
  - # 8
    frequency:    34.4199324066
  - # 9
    frequency:    42.4232566196
  - # 10
    frequency:    42.4392515605
  - # 11
    frequency:    43.3414893747
  - # 12
    frequency:    43.3617378735

- q-position: [   -0.5555556,    0.1111111,    0.3750000 ]
  weight: 8    
  band:
  - # 1
    frequency:    14.7248048097
  - # 2
    frequency:    15.1333975036
  - # 3
    frequency:    18.6666688441
  - # 4
    frequency:    18.7314019238
  - # 5
    frequency:    21.1449199514
  - # 6
    frequency:    21.1797372393
  - # 7
    frequency:    39.4385008542
  - # 8
    frequency:    39.4532691148
  - # 9
    frequency:    39.6612818599
  - # 10
    frequency:    39.7096681815
  - # 11
    frequency:    42.5406032621
  - # 12
    frequency:    42.5538877196

- q-position: [   -0.4444444,    0.1111111,    0.3750000 ]
  weight: 8    
  band:
  - # 1
    frequency:    12.7273288090
  - # 2
    frequency:    13.6729809121
  - # 3
    frequency:    19.7039077967
  - # 4
    frequency:    19.7277842739
  - # 5
    frequency:    19.9204887164
  - # 6
    frequency:    20.5077254056
  - # 7
    frequency:    34.3544367523
  - # 8
    frequency:    34.3953744011
  - # 9
    frequency:    42.4147673765
  - # 10
    frequency:    42.4472253023
  - # 11
    frequency:    43.3511645523
  - # 12
    frequency:    43.3872515192

- q-position: [   -0.3333333,    0.1111111,    0.3750000 ]
  weight: 8    
  band:
  - # 1
    frequency:     9.8091273478
  - # 2
    frequency:    11.1678721614
  - # 3
    frequency:    15.8545283617
  - # 4
    frequency:    15.8658115557
  - # 5
    frequency:    21.6813006016
  - # 6
    frequency:    22.9882195384
  - # 7
    frequency:    27.2779960136
  - # 8
    frequency:    27.3221394431
  - # 9
    frequency:    43.5613166604
  - # 10
    frequency:    43.6048744812
  - # 11
    frequency:    44.8073740084
  - # 12
    frequency:    44.8169661068

- q-position: [   -0.2222222,    0.1111111,    0.3750000 ]
  weight: 8    
  band:
  - # 1
    frequency:     6.6993491831
  - # 2
    frequency:     8.4625520255
  - # 3
    frequency:    10.4951932491
  - # 4
    frequency:    10.5416159216
  - # 5
    frequency:    18.9912789532
  - # 6
    frequency:    19.0198055134
  - # 7
    frequency:    23.1513683769
  - # 8
    frequency:    25.0494237526
  - # 9
    frequency:    44.4357140905
  - # 10
    frequency:    44.4563796772
  - # 11
    frequency:    45.3748164818
  - # 12
    frequency:    45.4556982428

- q-position: [   -0.1111111,    0.1111111,    0.3750000 ]
  weight: 4    
  band:
  - # 1
    frequency:     4.4121840411
  - # 2
    frequency:     5.3582887980
  - # 3
    frequency:     5.5999898138
  - # 4
    frequency:     6.4167499256
  - # 5
    frequency:    11.4006634308
  - # 6
    frequency:    11.4741000536
  - # 7
    frequency:    23.9603757545
  - # 8
    frequency:    26.1622916028
  - # 9
    frequency:    44.9500311336
  - # 10
    frequency:    44.9656854543
  - # 11
    frequency:    45.4349388734
  - # 12
    frequency:    45.5706524648

- q-position: [    0.2222222,    0.2222222,    0.3750000 ]
  weight: 4    
  band:
  - # 1
    frequency:    13.5060869602
  - # 2
    frequency:    13.7458973753
  - # 3
    frequency:    19.7544991326
  - # 4
    frequency:    20.2031008453
  - # 5
    frequency:    21.6579386651
  - # 6
    frequency:    21.7074469894
  - # 7
    frequency:    32.0271366686
  - # 8
    frequency:    32.0814975004
  - # 9
    frequency:    43.0084353576
  - # 10
    frequency:    43.0146502690
  - # 11
    frequency:    43.3487576235
  - # 12
    frequency:    43.3565827164

- q-position: [    0.3333333,    0.2222222,    0.3750000 ]
  weight: 8    
  band:
  - # 1
    frequency:    15.4257743720
  - # 2
    frequency:    15.6451756211
  - # 3
    frequency:    18.0450983134
  - # 4
    frequency:    18.1540764911
  - # 5
    frequency:    25.5174072919
  - # 6
    frequency:    25.5589011117
  - # 7
    frequency:    36.0800189029
  - # 8
    frequency:    36.1173234216
  - # 9
    frequency:    39.9945173404
  - # 10
    frequency:    40.0042430841
  - # 11
    frequency:    43.3639045667
  - # 12
    frequency:    43.3827635077

- q-position: [   -0.5555556,    0.2222222,    0.3750000 ]
  weight: 8    
  band:
  - # 1
    frequency:    14.4907499544
  - # 2
    frequency:    15.2451663414
  - # 3
    frequency:    18.5737756316
  - # 4
    frequency:    18.7326990721
  - # 5
    frequency:    25.5001356034
  - # 6
    frequency:    25.5359073147
  - # 7
    frequency:    36.0950914600
  - # 8
    frequency:    36.1090815739
  - # 9
    frequency:    39.9754406070
  - # 10
    frequency:    39.9960606535
  - # 11
    frequency:    43.3771406967
  - # 12
    frequency:    43.3968145233

- q-position: [   -0.4444444,    0.2222222,    0.3750000 ]
  weight: 8    
  band:
  - # 1
    frequency:    12.1066078631
  - # 2
    frequency:    13.2278638325
  - # 3
    frequency:    20.2015012547
  - # 4
    frequency:    21.0012778918
  - # 5
    frequency:    21.6225994928
  - # 6
    frequency:    21.6459908034
  - # 7
    frequency:    32.0146206285
  - # 8
    frequency:    32.0298414293
  - # 9
    frequency:    43.0134023448
  - # 10
    frequency:    43.0294799439
  - # 11
    frequency:    43.3679680973
  - # 12
    frequency:    43.3735244933

- q-position: [   -0.3333333,    0.2222222,    0.3750000 ]
  weight: 8    
  band:
  - # 1
    frequency:     9.5052942529
  - # 2
    frequency:    11.0103118987
  - # 3
    frequency:    15.8227195420
  - # 4
    frequency:    15.8555157248
  - # 5
    frequency:    21.7340917658
  - # 6
    frequency:    23.1524379451
  - # 7
    frequency:    27.2720145723
  - # 8
    frequency:    27.3021959971
  - # 9
    frequency:    43.5406969952
  - # 10
    frequency:    43.5597670192
  - # 11
    frequency:    44.8101652809
  - # 12
    frequency:    44.8879878647

- q-position: [   -0.2222222,    0.2222222,    0.3750000 ]
  weight: 4    
  band:
  - # 1
    frequency:     7.2734138670
  - # 2
    frequency:     9.1351095739
  - # 3
    frequency:    11.2683502046
  - # 4
    frequency:    11.3530802453
  - # 5
    frequency:    22.0146606114
  - # 6
    frequency:    22.0631442482
  - # 7
    frequency:    22.8129991325
  - # 8
    frequency:    24.6306712591
  - # 9
    frequency:    44.0334098255
  - # 10
    frequency:    44.0566517334
  - # 11
    frequency:    45.4115011006
  - # 12
    frequency:    45.5210720199

- q-position: [   -0.6666667,    0.3333333,    0.3750000 ]
  weight: 4    
  band:
  - # 1
    frequency:    16.1796088304
  - # 2
    frequency:    16.5251379683
  - # 3
    frequency:    17.1698065451
  - # 4
    frequency:    17.2503465924
  - # 5
    frequency:    29.0523631514
  - # 6
    frequency:    29.0543822436
  - # 7
    frequency:    37.0676477782
  - # 8
    frequency:    37.0735647439
  - # 9
    frequency:    37.1371684934
  - # 10
    frequency:    37.1607327908
  - # 11
    frequency:    43.6940882162
  - # 12
    frequency:    43.7172510854

- q-position: [   -0.5555556,    0.3333333,    0.3750000 ]
  weight: 8    
  band:
  - # 1
    frequency:    14.5560465282
  - # 2
    frequency:    15.1505069875
  - # 3
    frequency:    18.5660980466
  - # 4
    frequency:    18.7818730790
  - # 5
    frequency:    25.5187019280
  - # 6
    frequency:    25.5316038259
  - # 7
    frequency:    36.0819408889
  - # 8
    frequency:    36.0972422899
  - # 9
    frequency:    39.9773774086
  - # 10
    frequency:    39.9917713924
  - # 11
    frequency:    43.3771310390
  - # 12
    frequency:    43.3870343094

- q-position: [   -0.4444444,    0.3333333,    0.3750000 ]
  weight: 8    
  band:
  - # 1
    frequency:    12.6773534462
  - # 2
    frequency:    13.5346323618
  - # 3
    frequency:    19.7079208359
  - # 4
    frequency:    19.7249230604
  - # 5
    frequency:    19.9126662513
  - # 6
    frequency:    20.6649981021
  - # 7
    frequency:    34.3320140789
  - # 8
    frequency:    34.3644898732
  - # 9
    frequency:    42.4123697582
  - # 10
    frequency:    42.4344593759
  - # 11
    frequency:    43.3483384714
  - # 12
    frequency:    43.4003277781

- q-position: [   -0.3333333,    0.3333333,    0.3750000 ]
  weight: 4    
  band:
  - # 1
    frequency:    10.7429542685
  - # 2
    frequency:    11.9689109656
  - # 3
    frequency:    15.8392572664
  - # 4
    frequency:    15.8748407702
  - # 5
    frequency:    21.0722771025
  - # 6
    frequency:    22.2879511905
  - # 7
    frequency:    30.9671022541
  - # 8
    frequency:    31.0108631515
  - # 9
    frequency:    42.8286157042
  - # 10
    frequency:    42.8543118527
  - # 11
    frequency:    44.6003524165
  - # 12
    frequency:    44.6784769569

- q-position: [   -0.5555556,    0.4444444,    0.3750000 ]
  weight: 4    
  band:
  - # 1
    frequency:    14.7049372188
  - # 2
    frequency:    14.9907132449
  - # 3
    frequency:    18.7439562111
  - # 4
    frequency:    18.8235684933
  - # 5
    frequency:    21.1618344881
  - # 6
    frequency:    21.1640090823
  - # 7
    frequency:    39.4590984910
  - # 8
    frequency:    39.4626683047
  - # 9
    frequency:    39.6220089510
  - # 10
    frequency:    39.6663616643
  - # 11
    frequency:    42.5380214783
  - # 12
    frequency:    42.5420995360

- q-position: [   -0.4444444,    0.4444444,    0.3750000 ]
  weight: 4    
  band:
  - # 1
    frequency:    13.9113384473
  - # 2
    frequency:    14.3494198065
  - # 3
    frequency:    18.4847969849
  - # 4
    frequency:    18.4956094414
  - # 5
    frequency:    19.2541256044
  - # 6
    frequency:    19.6915238544
  - # 7
    frequency:    37.7588495994
  - # 8
    frequency:    37.7986107566
  - # 9
    frequency:    41.9095589497
  - # 10
    frequency:    41.9310281398
  - # 11
    frequency:    42.2433272430
  - # 12
    frequency:    42.2977243035

