   4   4   0   0
  0.5760957E+01  0.2467155E-09  0.2467155E-09  0.4371733E-09  0.5000000E-15
  1.000000000000000E-004
  CAR 
 graphite                                
     24.99791706    -14.07421087  301      9.74106640      1.00000000
    -14.074  0.0000E+00  0.0000E+00
    -13.944  0.0000E+00  0.0000E+00
    -13.814  0.0000E+00  0.0000E+00
    -13.683  0.0000E+00  0.0000E+00
    -13.553  0.0000E+00  0.0000E+00
    -13.423  0.0000E+00  0.0000E+00
    -13.293  0.0000E+00  0.0000E+00
    -13.163  0.0000E+00  0.0000E+00
    -13.032  0.0000E+00  0.0000E+00
    -12.902  0.0000E+00  0.0000E+00
    -12.772  0.0000E+00  0.0000E+00
    -12.642  0.0000E+00  0.0000E+00
    -12.511  0.0000E+00  0.0000E+00
    -12.381  0.0000E+00  0.0000E+00
    -12.251  0.0000E+00  0.0000E+00
    -12.121  0.0000E+00  0.0000E+00
    -11.990  0.2758E-03  0.8271E-05
    -11.860  0.4969E-03  0.6067E-04
    -11.730  0.6690E-03  0.1384E-03
    -11.600  0.8021E-03  0.2344E-03
    -11.469  0.9145E-03  0.3472E-03
    -11.339  0.1012E-02  0.4723E-03
    -11.209  0.1121E-02  0.6114E-03
    -11.079  0.1208E-02  0.7633E-03
    -10.948  0.1278E-02  0.9248E-03
    -10.818  0.1359E-02  0.1097E-02
    -10.688  0.1446E-02  0.1279E-02
    -10.558  0.1524E-02  0.1473E-02
    -10.427  0.1585E-02  0.1675E-02
    -10.297  0.1652E-02  0.1886E-02
    -10.167  0.1723E-02  0.2106E-02
    -10.037  0.1800E-02  0.2335E-02
     -9.907  0.1870E-02  0.2574E-02
     -9.776  0.1931E-02  0.2822E-02
     -9.646  0.1994E-02  0.3077E-02
     -9.516  0.2063E-02  0.3342E-02
     -9.386  0.2134E-02  0.3615E-02
     -9.255  0.2206E-02  0.3898E-02
     -9.125  0.2272E-02  0.4189E-02
     -8.995  0.2347E-02  0.4490E-02
     -8.865  0.2426E-02  0.4801E-02
     -8.734  0.2505E-02  0.5122E-02
     -8.604  0.2588E-02  0.5453E-02
     -8.474  0.2674E-02  0.5796E-02
     -8.344  0.2829E-02  0.6153E-02
     -8.213  0.3015E-02  0.6534E-02
     -8.083  0.3117E-02  0.6936E-02
     -7.953  0.3134E-02  0.7344E-02
     -7.823  0.3146E-02  0.7752E-02
     -7.692  0.3153E-02  0.8163E-02
     -7.562  0.3173E-02  0.8575E-02
     -7.432  0.3187E-02  0.8989E-02
     -7.302  0.3192E-02  0.9404E-02
     -7.171  0.3217E-02  0.9821E-02
     -7.041  0.3246E-02  0.1024E-01
     -6.911  0.3280E-02  0.1067E-01
     -6.781  0.3328E-02  0.1110E-01
     -6.651  0.3478E-02  0.1154E-01
     -6.520  0.3607E-02  0.1200E-01
     -6.390  0.3521E-02  0.1247E-01
     -6.260  0.3496E-02  0.1292E-01
     -6.130  0.3408E-02  0.1339E-01
     -5.999  0.3310E-02  0.1382E-01
     -5.869  0.3169E-02  0.1425E-01
     -5.739  0.3078E-02  0.1465E-01
     -5.609  0.2999E-02  0.1505E-01
     -5.478  0.3162E-02  0.1544E-01
     -5.348  0.3156E-02  0.1585E-01
     -5.218  0.3642E-02  0.1629E-01
     -5.088  0.4100E-02  0.1680E-01
     -4.957  0.3984E-02  0.1736E-01
     -4.827  0.3357E-02  0.1782E-01
     -4.697  0.3274E-02  0.1827E-01
     -4.567  0.2835E-02  0.1866E-01
     -4.436  0.1912E-02  0.1896E-01
     -4.306  0.1571E-02  0.1918E-01
     -4.176  0.1628E-02  0.1938E-01
     -4.046  0.1920E-02  0.1961E-01
     -3.915  0.2719E-02  0.1991E-01
     -3.785  0.2575E-02  0.2027E-01
     -3.655  0.2581E-02  0.2059E-01
     -3.525  0.3302E-02  0.2097E-01
     -3.394  0.3235E-02  0.2139E-01
     -3.264  0.4092E-02  0.2186E-01
     -3.134  0.5068E-02  0.2246E-01
     -3.004  0.4569E-02  0.2312E-01
     -2.874  0.3539E-02  0.2362E-01
     -2.743  0.3246E-02  0.2406E-01
     -2.613  0.3231E-02  0.2448E-01
     -2.483  0.3356E-02  0.2491E-01
     -2.353  0.3474E-02  0.2535E-01
     -2.222  0.3541E-02  0.2581E-01
     -2.092  0.3736E-02  0.2628E-01
     -1.962  0.3782E-02  0.2677E-01
     -1.832  0.3360E-02  0.2723E-01
     -1.701  0.3198E-02  0.2766E-01
     -1.571  0.3131E-02  0.2807E-01
     -1.441  0.3114E-02  0.2847E-01
     -1.311  0.3191E-02  0.2888E-01
     -1.180  0.3484E-02  0.2932E-01
     -1.050  0.3711E-02  0.2979E-01
     -0.920  0.3760E-02  0.3027E-01
     -0.790  0.3975E-02  0.3077E-01
     -0.659  0.4621E-02  0.3135E-01
     -0.529  0.4331E-02  0.3192E-01
     -0.399  0.4416E-02  0.3249E-01
     -0.269  0.4511E-02  0.3307E-01
     -0.138  0.4616E-02  0.3366E-01
     -0.008  0.4663E-02  0.3427E-01
      0.122  0.4678E-02  0.3488E-01
      0.252  0.4553E-02  0.3548E-01
      0.382  0.4512E-02  0.3607E-01
      0.513  0.4732E-02  0.3667E-01
      0.643  0.5310E-02  0.3732E-01
      0.773  0.5584E-02  0.3808E-01
      0.903  0.4808E-02  0.3874E-01
      1.034  0.4557E-02  0.3935E-01
      1.164  0.4738E-02  0.3994E-01
      1.294  0.5134E-02  0.4059E-01
      1.424  0.5310E-02  0.4127E-01
      1.555  0.5706E-02  0.4198E-01
      1.685  0.5870E-02  0.4274E-01
      1.815  0.5773E-02  0.4350E-01
      1.945  0.5969E-02  0.4425E-01
      2.076  0.6265E-02  0.4503E-01
      2.206  0.7236E-02  0.4596E-01
      2.336  0.7038E-02  0.4690E-01
      2.466  0.6658E-02  0.4778E-01
      2.597  0.7155E-02  0.4868E-01
      2.727  0.7138E-02  0.4961E-01
      2.857  0.7479E-02  0.5056E-01
      2.987  0.7376E-02  0.5153E-01
      3.118  0.7204E-02  0.5249E-01
      3.248  0.7187E-02  0.5342E-01
      3.378  0.7264E-02  0.5437E-01
      3.508  0.7088E-02  0.5531E-01
      3.638  0.6256E-02  0.5616E-01
      3.769  0.7067E-02  0.5703E-01
      3.899  0.6832E-02  0.5794E-01
      4.029  0.6345E-02  0.5880E-01
      4.159  0.6080E-02  0.5960E-01
      4.290  0.5683E-02  0.6037E-01
      4.420  0.5509E-02  0.6110E-01
      4.550  0.5477E-02  0.6181E-01
      4.680  0.5478E-02  0.6252E-01
      4.811  0.5166E-02  0.6322E-01
      4.941  0.5040E-02  0.6388E-01
      5.071  0.4842E-02  0.6452E-01
      5.201  0.4689E-02  0.6514E-01
      5.332  0.4588E-02  0.6575E-01
      5.462  0.4696E-02  0.6635E-01
      5.592  0.4484E-02  0.6696E-01
      5.722  0.4169E-02  0.6752E-01
      5.853  0.3980E-02  0.6804E-01
      5.983  0.3764E-02  0.6855E-01
      6.113  0.3360E-02  0.6901E-01
      6.243  0.3184E-02  0.6944E-01
      6.374  0.2909E-02  0.6983E-01
      6.504  0.2607E-02  0.7019E-01
      6.634  0.2133E-02  0.7051E-01
      6.764  0.1888E-02  0.7076E-01
      6.894  0.2093E-02  0.7102E-01
      7.025  0.2142E-02  0.7130E-01
      7.155  0.2265E-02  0.7159E-01
      7.285  0.2427E-02  0.7189E-01
      7.415  0.2609E-02  0.7222E-01
      7.546  0.2752E-02  0.7257E-01
      7.676  0.3018E-02  0.7294E-01
      7.806  0.3290E-02  0.7335E-01
      7.936  0.3593E-02  0.7380E-01
      8.067  0.3968E-02  0.7430E-01
      8.197  0.4133E-02  0.7482E-01
      8.327  0.4065E-02  0.7535E-01
      8.457  0.3947E-02  0.7587E-01
      8.588  0.3836E-02  0.7638E-01
      8.718  0.3767E-02  0.7688E-01
      8.848  0.3761E-02  0.7737E-01
      8.978  0.3434E-02  0.7784E-01
      9.109  0.3237E-02  0.7827E-01
      9.239  0.3130E-02  0.7869E-01
      9.369  0.3080E-02  0.7909E-01
      9.499  0.2829E-02  0.7947E-01
      9.630  0.2173E-02  0.7980E-01
      9.760  0.1385E-02  0.8003E-01
      9.890  0.1097E-02  0.8019E-01
     10.020  0.8753E-03  0.8032E-01
     10.151  0.7352E-03  0.8042E-01
     10.281  0.8032E-03  0.8052E-01
     10.411  0.8964E-03  0.8063E-01
     10.541  0.1017E-02  0.8075E-01
     10.671  0.1131E-02  0.8089E-01
     10.802  0.1285E-02  0.8105E-01
     10.932  0.1452E-02  0.8123E-01
     11.062  0.1607E-02  0.8143E-01
     11.192  0.2777E-02  0.8165E-01
     11.323  0.3174E-02  0.8198E-01
     11.453  0.3509E-02  0.8243E-01
     11.583  0.3453E-02  0.8288E-01
     11.713  0.3473E-02  0.8333E-01
     11.844  0.3537E-02  0.8379E-01
     11.974  0.3384E-02  0.8424E-01
     12.104  0.3438E-02  0.8468E-01
     12.234  0.3603E-02  0.8514E-01
     12.365  0.3487E-02  0.8560E-01
     12.495  0.3435E-02  0.8605E-01
     12.625  0.3211E-02  0.8649E-01
     12.755  0.2922E-02  0.8688E-01
     12.886  0.2780E-02  0.8725E-01
     13.016  0.2673E-02  0.8761E-01
     13.146  0.2606E-02  0.8795E-01
     13.276  0.2504E-02  0.8828E-01
     13.407  0.2395E-02  0.8860E-01
     13.537  0.2363E-02  0.8891E-01
     13.667  0.2389E-02  0.8922E-01
     13.797  0.2430E-02  0.8953E-01
     13.927  0.2477E-02  0.8985E-01
     14.058  0.2534E-02  0.9018E-01
     14.188  0.2637E-02  0.9051E-01
     14.318  0.2780E-02  0.9087E-01
     14.448  0.3144E-02  0.9125E-01
     14.579  0.3464E-02  0.9168E-01
     14.709  0.3660E-02  0.9214E-01
     14.839  0.3763E-02  0.9263E-01
     14.969  0.3642E-02  0.9312E-01
     15.100  0.3309E-02  0.9356E-01
     15.230  0.3315E-02  0.9399E-01
     15.360  0.3340E-02  0.9442E-01
     15.490  0.3353E-02  0.9486E-01
     15.621  0.3381E-02  0.9530E-01
     15.751  0.3447E-02  0.9574E-01
     15.881  0.3575E-02  0.9620E-01
     16.011  0.3689E-02  0.9667E-01
     16.142  0.3741E-02  0.9716E-01
     16.272  0.3812E-02  0.9765E-01
     16.402  0.3985E-02  0.9815E-01
     16.532  0.4017E-02  0.9867E-01
     16.663  0.4101E-02  0.9920E-01
     16.793  0.4292E-02  0.9975E-01
     16.923  0.4601E-02  0.1003E+00
     17.053  0.4730E-02  0.1009E+00
     17.183  0.5104E-02  0.1016E+00
     17.314  0.4269E-02  0.1022E+00
     17.444  0.4343E-02  0.1027E+00
     17.574  0.4505E-02  0.1033E+00
     17.704  0.4011E-02  0.1039E+00
     17.835  0.3596E-02  0.1044E+00
     17.965  0.3968E-02  0.1049E+00
     18.095  0.5145E-02  0.1055E+00
     18.225  0.7039E-02  0.1063E+00
     18.356  0.6106E-02  0.1072E+00
     18.486  0.5872E-02  0.1080E+00
     18.616  0.4591E-02  0.1086E+00
     18.746  0.4463E-02  0.1092E+00
     18.877  0.4478E-02  0.1098E+00
     19.007  0.5377E-02  0.1104E+00
     19.137  0.6067E-02  0.1112E+00
     19.267  0.6070E-02  0.1120E+00
     19.398  0.5767E-02  0.1127E+00
     19.528  0.5825E-02  0.1135E+00
     19.658  0.5666E-02  0.1142E+00
     19.788  0.4649E-02  0.1149E+00
     19.919  0.3755E-02  0.1154E+00
     20.049  0.3524E-02  0.1159E+00
     20.179  0.2650E-02  0.1163E+00
     20.309  0.2537E-02  0.1166E+00
     20.440  0.2505E-02  0.1170E+00
     20.570  0.2635E-02  0.1173E+00
     20.700  0.3044E-02  0.1177E+00
     20.830  0.2528E-02  0.1180E+00
     20.960  0.2889E-02  0.1183E+00
     21.091  0.1622E-02  0.1186E+00
     21.221  0.1680E-02  0.1188E+00
     21.351  0.1737E-02  0.1191E+00
     21.481  0.9959E-03  0.1192E+00
     21.612  0.8339E-03  0.1194E+00
     21.742  0.7073E-03  0.1195E+00
     21.872  0.6330E-03  0.1195E+00
     22.002  0.5654E-03  0.1196E+00
     22.133  0.5021E-03  0.1197E+00
     22.263  0.4438E-03  0.1198E+00
     22.393  0.3932E-03  0.1198E+00
     22.523  0.6842E-03  0.1199E+00
     22.654  0.4378E-03  0.1199E+00
     22.784  0.1674E-03  0.1200E+00
     22.914  0.2468E-04  0.1200E+00
     23.044  0.0000E+00  0.1200E+00
     23.175  0.0000E+00  0.1200E+00
     23.305  0.0000E+00  0.1200E+00
     23.435  0.0000E+00  0.1200E+00
     23.565  0.0000E+00  0.1200E+00
     23.696  0.0000E+00  0.1200E+00
     23.826  0.0000E+00  0.1200E+00
     23.956  0.0000E+00  0.1200E+00
     24.086  0.0000E+00  0.1200E+00
     24.216  0.0000E+00  0.1200E+00
     24.347  0.0000E+00  0.1200E+00
     24.477  0.0000E+00  0.1200E+00
     24.607  0.0000E+00  0.1200E+00
     24.737  0.0000E+00  0.1200E+00
     24.868  0.0000E+00  0.1200E+00
     24.998  0.0000E+00  0.1200E+00
