mesh: [     9,     9,     4 ]
nqpoint: 50     
reciprocal_lattice:
- [   0.40533564,   0.23404500,   0.00000000 ] # a*
- [   0.00002110,   0.46805346,   0.00000000 ] # b*
- [   0.00000000,   0.00000000,   0.22874227 ] # c*
natom:   4      
lattice:
- [     2.467155442383188,    -0.000111200019553,     0.000000000000000 ] # a
- [    -1.233674023183305,     2.136563688137034,     0.000000000000000 ] # b
- [     0.000000000000000,     0.000000000000000,     4.371732503000000 ] # c
points:
- symbol: C  # 1
  coordinates: [  0.999999697166835,  0.000000349172772,  0.250000000000000 ]
  mass: 12.010700
- symbol: C  # 2
  coordinates: [  0.000000349172772,  0.999999697166835,  0.750000000000000 ]
  mass: 12.010700
- symbol: C  # 3
  coordinates: [  0.333298929956719,  0.666701052703672,  0.250000000000000 ]
  mass: 12.010700
- symbol: C  # 4
  coordinates: [  0.666701052703672,  0.333298929956719,  0.750000000000000 ]
  mass: 12.010700
phonon:
- q-position: [    0.0000000,    0.0000000,    0.1250000 ]
  weight: 2    
  band:
  - # 1
    frequency:   -33.7102056470
  - # 2
    frequency:   -33.7094034669
  - # 3
    frequency:   -27.9646901714
  - # 4
    frequency:   -27.9643818605
  - # 5
    frequency:     2.1762333041
  - # 6
    frequency:     2.1763359630
  - # 7
    frequency:     2.8890598358
  - # 8
    frequency:     2.8898907535
  - # 9
    frequency:     4.1640197252
  - # 10
    frequency:    13.0163338138
  - # 11
    frequency:    18.3914212730
  - # 12
    frequency:    19.2041284076

- q-position: [    0.1111111,    0.0000000,    0.1250000 ]
  weight: 8    
  band:
  - # 1
    frequency:   -32.2538828963
  - # 2
    frequency:   -31.7998692451
  - # 3
    frequency:   -26.8657980223
  - # 4
    frequency:   -26.3544039914
  - # 5
    frequency:     2.0031914415
  - # 6
    frequency:     4.1246011619
  - # 7
    frequency:     6.0674638410
  - # 8
    frequency:     6.5665549974
  - # 9
    frequency:     7.3880399204
  - # 10
    frequency:    13.3240260142
  - # 11
    frequency:    18.3153302177
  - # 12
    frequency:    18.9349049898

- q-position: [    0.2222222,    0.0000000,    0.1250000 ]
  weight: 8    
  band:
  - # 1
    frequency:   -28.2445421774
  - # 2
    frequency:   -26.3671251871
  - # 3
    frequency:   -23.8673542216
  - # 4
    frequency:   -21.8846946818
  - # 5
    frequency:     4.4489550112
  - # 6
    frequency:     7.1980999530
  - # 7
    frequency:    10.4247491286
  - # 8
    frequency:    10.8793360026
  - # 9
    frequency:    12.1904680340
  - # 10
    frequency:    14.0507347471
  - # 11
    frequency:    17.9319042668
  - # 12
    frequency:    18.4294839231

- q-position: [    0.3333333,    0.0000000,    0.1250000 ]
  weight: 8    
  band:
  - # 1
    frequency:   -22.8848945096
  - # 2
    frequency:   -20.2994940019
  - # 3
    frequency:   -18.1479091545
  - # 4
    frequency:   -15.7590785916
  - # 5
    frequency:     6.8120181636
  - # 6
    frequency:    10.1192853117
  - # 7
    frequency:    13.5736770191
  - # 8
    frequency:    14.7406682123
  - # 9
    frequency:    14.8690892026
  - # 10
    frequency:    15.8731219050
  - # 11
    frequency:    17.1662540364
  - # 12
    frequency:    18.1695274249

- q-position: [    0.4444444,    0.0000000,    0.1250000 ]
  weight: 8    
  band:
  - # 1
    frequency:   -18.5758554383
  - # 2
    frequency:   -17.5110897209
  - # 3
    frequency:   -12.5792935594
  - # 4
    frequency:    -8.2843440094
  - # 5
    frequency:     9.6463826486
  - # 6
    frequency:    11.6536662225
  - # 7
    frequency:    15.1661797462
  - # 8
    frequency:    15.1902394933
  - # 9
    frequency:    16.8834210779
  - # 10
    frequency:    17.1013020173
  - # 11
    frequency:    17.8602295601
  - # 12
    frequency:    17.9343773462

- q-position: [    0.1111111,    0.1111111,    0.1250000 ]
  weight: 4    
  band:
  - # 1
    frequency:   -28.9534346077
  - # 2
    frequency:   -28.4165638392
  - # 3
    frequency:   -24.0982797662
  - # 4
    frequency:   -23.8152633106
  - # 5
    frequency:     6.4080686351
  - # 6
    frequency:     6.5286144979
  - # 7
    frequency:     8.8725548779
  - # 8
    frequency:     8.9075690726
  - # 9
    frequency:     9.7878938150
  - # 10
    frequency:    13.8620560241
  - # 11
    frequency:    18.0805642626
  - # 12
    frequency:    18.3520171359

- q-position: [    0.2222222,    0.1111111,    0.1250000 ]
  weight: 8    
  band:
  - # 1
    frequency:   -24.1992584700
  - # 2
    frequency:   -22.1210257699
  - # 3
    frequency:   -20.2050230595
  - # 4
    frequency:   -18.7633422799
  - # 5
    frequency:     8.4679850600
  - # 6
    frequency:    10.2285041317
  - # 7
    frequency:    12.7933183251
  - # 8
    frequency:    13.0356349987
  - # 9
    frequency:    13.1925915012
  - # 10
    frequency:    14.5666454088
  - # 11
    frequency:    17.0763966164
  - # 12
    frequency:    18.3022990372

- q-position: [    0.3333333,    0.1111111,    0.1250000 ]
  weight: 8    
  band:
  - # 1
    frequency:   -19.8062957858
  - # 2
    frequency:   -16.8183456130
  - # 3
    frequency:   -15.1903150710
  - # 4
    frequency:   -11.9930836546
  - # 5
    frequency:    10.3204530904
  - # 6
    frequency:    12.7167481215
  - # 7
    frequency:    15.0402170096
  - # 8
    frequency:    15.0916040455
  - # 9
    frequency:    16.2184630868
  - # 10
    frequency:    16.5557567525
  - # 11
    frequency:    16.7702234113
  - # 12
    frequency:    18.1406054172

- q-position: [   -0.5555556,    0.1111111,    0.1250000 ]
  weight: 8    
  band:
  - # 1
    frequency:   -17.9316651981
  - # 2
    frequency:   -15.6771994633
  - # 3
    frequency:   -11.9111483673
  - # 4
    frequency:    -4.2859353503
  - # 5
    frequency:    10.9186671560
  - # 6
    frequency:    12.1288220657
  - # 7
    frequency:    15.2714386491
  - # 8
    frequency:    15.2962102725
  - # 9
    frequency:    17.0601086884
  - # 10
    frequency:    17.5078825301
  - # 11
    frequency:    17.8512450494
  - # 12
    frequency:    18.5728906558

- q-position: [   -0.4444444,    0.1111111,    0.1250000 ]
  weight: 8    
  band:
  - # 1
    frequency:   -20.1637391730
  - # 2
    frequency:   -18.2054145851
  - # 3
    frequency:   -12.7489117815
  - # 4
    frequency:   -10.2539264030
  - # 5
    frequency:     7.4273282108
  - # 6
    frequency:    10.1860638783
  - # 7
    frequency:    14.4031602305
  - # 8
    frequency:    15.0999207212
  - # 9
    frequency:    16.6755571305
  - # 10
    frequency:    17.2938285370
  - # 11
    frequency:    17.9647281519
  - # 12
    frequency:    18.2024319239

- q-position: [   -0.3333333,    0.1111111,    0.1250000 ]
  weight: 8    
  band:
  - # 1
    frequency:   -25.3283648236
  - # 2
    frequency:   -21.7785171830
  - # 3
    frequency:   -21.2563769290
  - # 4
    frequency:   -17.7040593349
  - # 5
    frequency:     5.1311502898
  - # 6
    frequency:     9.1332278460
  - # 7
    frequency:    12.0015139993
  - # 8
    frequency:    14.0669935112
  - # 9
    frequency:    14.5276960628
  - # 10
    frequency:    15.8991944334
  - # 11
    frequency:    17.6936620952
  - # 12
    frequency:    18.4386921724

- q-position: [   -0.2222222,    0.1111111,    0.1250000 ]
  weight: 8    
  band:
  - # 1
    frequency:   -29.9305164419
  - # 2
    frequency:   -28.4782217776
  - # 3
    frequency:   -25.0221191057
  - # 4
    frequency:   -23.4805009708
  - # 5
    frequency:     4.0036617626
  - # 6
    frequency:     8.0679276619
  - # 7
    frequency:     8.6801048157
  - # 8
    frequency:    10.1785096620
  - # 9
    frequency:    12.1569166557
  - # 10
    frequency:    13.7731170727
  - # 11
    frequency:    17.9994576826
  - # 12
    frequency:    19.0378625199

- q-position: [   -0.1111111,    0.1111111,    0.1250000 ]
  weight: 4    
  band:
  - # 1
    frequency:   -32.3602695108
  - # 2
    frequency:   -32.1587414717
  - # 3
    frequency:   -26.7363227069
  - # 4
    frequency:   -26.7359961779
  - # 5
    frequency:     2.1054570123
  - # 6
    frequency:     5.9480551188
  - # 7
    frequency:     6.2692230238
  - # 8
    frequency:     6.6454242512
  - # 9
    frequency:     8.2239365092
  - # 10
    frequency:    13.2771059380
  - # 11
    frequency:    18.2027791596
  - # 12
    frequency:    19.2783671434

- q-position: [    0.2222222,    0.2222222,    0.1250000 ]
  weight: 4    
  band:
  - # 1
    frequency:   -20.1759144464
  - # 2
    frequency:   -16.4120153506
  - # 3
    frequency:   -15.4017368678
  - # 4
    frequency:   -14.4190082689
  - # 5
    frequency:    11.2000091215
  - # 6
    frequency:    13.2983164201
  - # 7
    frequency:    14.9792870269
  - # 8
    frequency:    15.0380361655
  - # 9
    frequency:    15.8618084548
  - # 10
    frequency:    15.8720076546
  - # 11
    frequency:    16.4208837971
  - # 12
    frequency:    18.2441497212

- q-position: [    0.3333333,    0.2222222,    0.1250000 ]
  weight: 8    
  band:
  - # 1
    frequency:   -17.5492119294
  - # 2
    frequency:   -13.2705245641
  - # 3
    frequency:   -11.6738846887
  - # 4
    frequency:    -7.2542844745
  - # 5
    frequency:    12.2680982044
  - # 6
    frequency:    14.5470905347
  - # 7
    frequency:    15.3278570821
  - # 8
    frequency:    15.3608744488
  - # 9
    frequency:    16.9793257785
  - # 10
    frequency:    17.6671159183
  - # 11
    frequency:    18.0116236718
  - # 12
    frequency:    18.3734551250

- q-position: [   -0.5555556,    0.2222222,    0.1250000 ]
  weight: 8    
  band:
  - # 1
    frequency:   -17.5485938224
  - # 2
    frequency:   -14.1248819423
  - # 3
    frequency:   -10.3615310885
  - # 4
    frequency:     5.1505217519
  - # 5
    frequency:    10.8504584231
  - # 6
    frequency:    11.5610968565
  - # 7
    frequency:    15.1035233493
  - # 8
    frequency:    15.3765240444
  - # 9
    frequency:    17.3803206198
  - # 10
    frequency:    17.6521187852
  - # 11
    frequency:    17.7988396973
  - # 12
    frequency:    19.0873297933

- q-position: [   -0.4444444,    0.2222222,    0.1250000 ]
  weight: 8    
  band:
  - # 1
    frequency:   -20.9690243473
  - # 2
    frequency:   -17.8212230904
  - # 3
    frequency:   -13.7627449982
  - # 4
    frequency:   -11.3175682952
  - # 5
    frequency:     7.4219917915
  - # 6
    frequency:    10.5299314678
  - # 7
    frequency:    13.7583182988
  - # 8
    frequency:    15.0348819263
  - # 9
    frequency:    16.3104057999
  - # 10
    frequency:    17.4918011808
  - # 11
    frequency:    18.0632380287
  - # 12
    frequency:    18.2330108223

- q-position: [   -0.3333333,    0.2222222,    0.1250000 ]
  weight: 8    
  band:
  - # 1
    frequency:   -25.4792004312
  - # 2
    frequency:   -22.5208816829
  - # 3
    frequency:   -21.0024632913
  - # 4
    frequency:   -18.4631544738
  - # 5
    frequency:     7.3439428628
  - # 6
    frequency:    11.3373942397
  - # 7
    frequency:    11.4776540862
  - # 8
    frequency:    13.7875441650
  - # 9
    frequency:    14.4431721046
  - # 10
    frequency:    15.5952615811
  - # 11
    frequency:    17.6727427669
  - # 12
    frequency:    18.9037228794

- q-position: [   -0.2222222,    0.2222222,    0.1250000 ]
  weight: 4    
  band:
  - # 1
    frequency:   -28.6180116420
  - # 2
    frequency:   -27.6226669966
  - # 3
    frequency:   -23.1914456684
  - # 4
    frequency:   -23.1746657975
  - # 5
    frequency:     6.8513399710
  - # 6
    frequency:     9.1673629655
  - # 7
    frequency:    10.7066834834
  - # 8
    frequency:    11.7022343617
  - # 9
    frequency:    12.4555838810
  - # 10
    frequency:    13.9187280910
  - # 11
    frequency:    17.8563784731
  - # 12
    frequency:    19.2585880128

- q-position: [   -0.6666667,    0.3333333,    0.1250000 ]
  weight: 4    
  band:
  - # 1
    frequency:   -16.2770100795
  - # 2
    frequency:   -11.9233583273
  - # 3
    frequency:    -6.9724495568
  - # 4
    frequency:    -5.0062171816
  - # 5
    frequency:    12.7570359581
  - # 6
    frequency:    14.5890337668
  - # 7
    frequency:    15.4011637736
  - # 8
    frequency:    15.4595029457
  - # 9
    frequency:    17.4234725927
  - # 10
    frequency:    17.7339193135
  - # 11
    frequency:    18.2124672972
  - # 12
    frequency:    18.4297395856

- q-position: [   -0.5555556,    0.3333333,    0.1250000 ]
  weight: 8    
  band:
  - # 1
    frequency:   -17.3704702911
  - # 2
    frequency:   -12.5708381709
  - # 3
    frequency:    -8.7073572099
  - # 4
    frequency:    -0.3006905144
  - # 5
    frequency:    10.6190245423
  - # 6
    frequency:    12.1308804144
  - # 7
    frequency:    15.0430692334
  - # 8
    frequency:    15.3504406830
  - # 9
    frequency:    17.0933316375
  - # 10
    frequency:    17.4500416168
  - # 11
    frequency:    17.8099458550
  - # 12
    frequency:    17.9540568783

- q-position: [   -0.4444444,    0.3333333,    0.1250000 ]
  weight: 8    
  band:
  - # 1
    frequency:   -20.5661054643
  - # 2
    frequency:   -15.6266725926
  - # 3
    frequency:   -14.0686326635
  - # 4
    frequency:   -11.7028664399
  - # 5
    frequency:     8.7584688413
  - # 6
    frequency:    12.6277032664
  - # 7
    frequency:    13.7480872303
  - # 8
    frequency:    14.9858974958
  - # 9
    frequency:    15.6809645331
  - # 10
    frequency:    16.7858060003
  - # 11
    frequency:    17.4483489532
  - # 12
    frequency:    18.4397202821

- q-position: [   -0.3333333,    0.3333333,    0.1250000 ]
  weight: 4    
  band:
  - # 1
    frequency:   -23.5816916298
  - # 2
    frequency:   -20.3755105069
  - # 3
    frequency:   -17.7720884896
  - # 4
    frequency:   -17.6495891527
  - # 5
    frequency:     9.3042466213
  - # 6
    frequency:    12.1623679088
  - # 7
    frequency:    13.8940652627
  - # 8
    frequency:    14.2607842085
  - # 9
    frequency:    14.6132374791
  - # 10
    frequency:    14.9288452225
  - # 11
    frequency:    17.5543901270
  - # 12
    frequency:    18.9148523295

- q-position: [   -0.5555556,    0.4444444,    0.1250000 ]
  weight: 4    
  band:
  - # 1
    frequency:   -18.2408168904
  - # 2
    frequency:   -11.1658518264
  - # 3
    frequency:    -8.6181110191
  - # 4
    frequency:    -5.7491954622
  - # 5
    frequency:     9.7149387080
  - # 6
    frequency:    11.4624651167
  - # 7
    frequency:    14.9776372074
  - # 8
    frequency:    15.0258786232
  - # 9
    frequency:    16.1832016954
  - # 10
    frequency:    16.3229189367
  - # 11
    frequency:    17.3943752675
  - # 12
    frequency:    18.0283360900

- q-position: [   -0.4444444,    0.4444444,    0.1250000 ]
  weight: 4    
  band:
  - # 1
    frequency:   -19.5929471940
  - # 2
    frequency:   -11.8577674859
  - # 3
    frequency:   -11.6074466328
  - # 4
    frequency:   -10.3720699094
  - # 5
    frequency:     9.0005184841
  - # 6
    frequency:    12.4176790533
  - # 7
    frequency:    14.3210687702
  - # 8
    frequency:    14.9704116499
  - # 9
    frequency:    15.4581184801
  - # 10
    frequency:    15.9390638214
  - # 11
    frequency:    17.3929919151
  - # 12
    frequency:    18.3290909467

- q-position: [    0.0000000,    0.0000000,    0.3750000 ]
  weight: 2    
  band:
  - # 1
    frequency:   -33.4257277768
  - # 2
    frequency:   -33.4250570574
  - # 3
    frequency:   -31.1506391791
  - # 4
    frequency:   -31.1501644436
  - # 5
    frequency:     3.0100154445
  - # 6
    frequency:     3.0105496354
  - # 7
    frequency:     3.2275518562
  - # 8
    frequency:     3.2283290664
  - # 9
    frequency:    11.2732422189
  - # 10
    frequency:    14.8833478706
  - # 11
    frequency:    18.0218457316
  - # 12
    frequency:    19.2061160310

- q-position: [    0.1111111,    0.0000000,    0.3750000 ]
  weight: 8    
  band:
  - # 1
    frequency:   -31.9382176630
  - # 2
    frequency:   -31.5170166456
  - # 3
    frequency:   -29.7889857597
  - # 4
    frequency:   -29.3489058917
  - # 5
    frequency:     3.3116956567
  - # 6
    frequency:     3.9673206109
  - # 7
    frequency:     6.4634926684
  - # 8
    frequency:     7.0509726884
  - # 9
    frequency:    11.8423356486
  - # 10
    frequency:    14.8721887643
  - # 11
    frequency:    17.9675465946
  - # 12
    frequency:    18.8950662032

- q-position: [    0.2222222,    0.0000000,    0.3750000 ]
  weight: 8    
  band:
  - # 1
    frequency:   -27.8124705282
  - # 2
    frequency:   -26.2747822882
  - # 3
    frequency:   -25.8449833431
  - # 4
    frequency:   -24.2808043474
  - # 5
    frequency:     4.8944757738
  - # 6
    frequency:     6.0436354673
  - # 7
    frequency:    11.1783541310
  - # 8
    frequency:    11.7565918372
  - # 9
    frequency:    13.1409280966
  - # 10
    frequency:    14.8131474256
  - # 11
    frequency:    17.8218089469
  - # 12
    frequency:    18.1531950969

- q-position: [    0.3333333,    0.0000000,    0.3750000 ]
  weight: 8    
  band:
  - # 1
    frequency:   -22.2056340067
  - # 2
    frequency:   -21.0975882062
  - # 3
    frequency:   -18.1471132690
  - # 4
    frequency:   -17.1663627075
  - # 5
    frequency:     6.9792632375
  - # 6
    frequency:     8.5195167021
  - # 7
    frequency:    14.2059129812
  - # 8
    frequency:    14.5996188768
  - # 9
    frequency:    15.0239193107
  - # 10
    frequency:    15.4502168161
  - # 11
    frequency:    17.3397877573
  - # 12
    frequency:    17.8085331436

- q-position: [    0.4444444,    0.0000000,    0.3750000 ]
  weight: 8    
  band:
  - # 1
    frequency:   -17.5907976314
  - # 2
    frequency:   -17.1503209584
  - # 3
    frequency:   -12.1412210847
  - # 4
    frequency:   -10.4824931518
  - # 5
    frequency:     9.8719105258
  - # 6
    frequency:    10.7715864188
  - # 7
    frequency:    14.5472468760
  - # 8
    frequency:    14.5590689091
  - # 9
    frequency:    17.0419186737
  - # 10
    frequency:    17.2570849521
  - # 11
    frequency:    17.3741460806
  - # 12
    frequency:    17.7036409474

- q-position: [    0.1111111,    0.1111111,    0.3750000 ]
  weight: 4    
  band:
  - # 1
    frequency:   -28.5861939056
  - # 2
    frequency:   -28.0770928520
  - # 3
    frequency:   -26.6055093037
  - # 4
    frequency:   -26.1782774136
  - # 5
    frequency:     6.3414480830
  - # 6
    frequency:     6.3768192054
  - # 7
    frequency:     8.4645366235
  - # 8
    frequency:     8.4650328007
  - # 9
    frequency:    12.9476751306
  - # 10
    frequency:    14.8504900115
  - # 11
    frequency:    17.9236653105
  - # 12
    frequency:    18.1699421117

- q-position: [    0.2222222,    0.1111111,    0.3750000 ]
  weight: 8    
  band:
  - # 1
    frequency:   -23.5366413343
  - # 2
    frequency:   -22.1199900473
  - # 3
    frequency:   -21.4169059464
  - # 4
    frequency:   -20.2979624058
  - # 5
    frequency:     8.4989276733
  - # 6
    frequency:     9.2921273747
  - # 7
    frequency:    12.3936013679
  - # 8
    frequency:    12.5782933795
  - # 9
    frequency:    14.1780521264
  - # 10
    frequency:    14.7576727793
  - # 11
    frequency:    17.3298379260
  - # 12
    frequency:    17.8611450474

- q-position: [    0.3333333,    0.1111111,    0.3750000 ]
  weight: 8    
  band:
  - # 1
    frequency:   -18.6287238900
  - # 2
    frequency:   -17.2444235432
  - # 3
    frequency:   -14.7151086992
  - # 4
    frequency:   -13.3484466438
  - # 5
    frequency:    10.6740091581
  - # 6
    frequency:    11.8247852764
  - # 7
    frequency:    14.5546341847
  - # 8
    frequency:    14.5641665402
  - # 9
    frequency:    15.9275191489
  - # 10
    frequency:    16.1992671445
  - # 11
    frequency:    17.1068604445
  - # 12
    frequency:    17.7859726710

- q-position: [   -0.5555556,    0.1111111,    0.3750000 ]
  weight: 8    
  band:
  - # 1
    frequency:   -16.6493515627
  - # 2
    frequency:   -15.5650813446
  - # 3
    frequency:   -10.7973770956
  - # 4
    frequency:    -8.0110023436
  - # 5
    frequency:    11.1734558549
  - # 6
    frequency:    11.6650774829
  - # 7
    frequency:    14.5052438872
  - # 8
    frequency:    14.5117867920
  - # 9
    frequency:    17.3078786160
  - # 10
    frequency:    17.5329028532
  - # 11
    frequency:    17.6509235329
  - # 12
    frequency:    18.0330104556

- q-position: [   -0.4444444,    0.1111111,    0.3750000 ]
  weight: 8    
  band:
  - # 1
    frequency:   -19.3868635949
  - # 2
    frequency:   -18.5692284804
  - # 3
    frequency:   -12.3250960048
  - # 4
    frequency:   -11.4162742657
  - # 5
    frequency:     7.2646292079
  - # 6
    frequency:     8.6944642424
  - # 7
    frequency:    14.3280566751
  - # 8
    frequency:    14.5567618837
  - # 9
    frequency:    17.0183546625
  - # 10
    frequency:    17.3982892200
  - # 11
    frequency:    17.6535275502
  - # 12
    frequency:    17.8055480416

- q-position: [   -0.3333333,    0.1111111,    0.3750000 ]
  weight: 8    
  band:
  - # 1
    frequency:   -24.8094441180
  - # 2
    frequency:   -23.3751079329
  - # 3
    frequency:   -21.0923873241
  - # 4
    frequency:   -19.6497960238
  - # 5
    frequency:     5.9128181623
  - # 6
    frequency:     7.7126125142
  - # 7
    frequency:    13.5398617472
  - # 8
    frequency:    14.5109019823
  - # 9
    frequency:    14.8971367833
  - # 10
    frequency:    15.5156253656
  - # 11
    frequency:    17.6186103968
  - # 12
    frequency:    18.0566555282

- q-position: [   -0.2222222,    0.1111111,    0.3750000 ]
  weight: 8    
  band:
  - # 1
    frequency:   -29.5404113072
  - # 2
    frequency:   -28.2334934073
  - # 3
    frequency:   -27.5850721055
  - # 4
    frequency:   -26.2408645223
  - # 5
    frequency:     5.8282047786
  - # 6
    frequency:     7.4093258529
  - # 7
    frequency:    10.8872865138
  - # 8
    frequency:    11.6617366453
  - # 9
    frequency:    12.4330632749
  - # 10
    frequency:    14.8103640571
  - # 11
    frequency:    17.8021179536
  - # 12
    frequency:    18.7119459334

- q-position: [   -0.1111111,    0.1111111,    0.3750000 ]
  weight: 4    
  band:
  - # 1
    frequency:   -32.0148211754
  - # 2
    frequency:   -31.9147463453
  - # 3
    frequency:   -29.7861837279
  - # 4
    frequency:   -29.7631332704
  - # 5
    frequency:     5.1046259332
  - # 6
    frequency:     6.7641449772
  - # 7
    frequency:     6.9311476779
  - # 8
    frequency:     7.2530624651
  - # 9
    frequency:    11.6112678960
  - # 10
    frequency:    14.8513588806
  - # 11
    frequency:    17.9297910157
  - # 12
    frequency:    19.0943545894

- q-position: [    0.2222222,    0.2222222,    0.3750000 ]
  weight: 4    
  band:
  - # 1
    frequency:   -18.8969108570
  - # 2
    frequency:   -17.0529415142
  - # 3
    frequency:   -15.5584481514
  - # 4
    frequency:   -14.9356669532
  - # 5
    frequency:    11.6342683946
  - # 6
    frequency:    12.7570312937
  - # 7
    frequency:    14.4425449852
  - # 8
    frequency:    14.4668254709
  - # 9
    frequency:    15.2387119512
  - # 10
    frequency:    15.3259707310
  - # 11
    frequency:    17.0433222635
  - # 12
    frequency:    17.8282860571

- q-position: [    0.3333333,    0.2222222,    0.3750000 ]
  weight: 8    
  band:
  - # 1
    frequency:   -15.8029145336
  - # 2
    frequency:   -13.8588605434
  - # 3
    frequency:   -10.6014500513
  - # 4
    frequency:    -8.7868917359
  - # 5
    frequency:    12.9456383124
  - # 6
    frequency:    14.0529515377
  - # 7
    frequency:    14.4456679168
  - # 8
    frequency:    14.4936297683
  - # 9
    frequency:    17.2660126731
  - # 10
    frequency:    17.4443501309
  - # 11
    frequency:    17.6557098210
  - # 12
    frequency:    17.8655856249

- q-position: [   -0.5555556,    0.2222222,    0.3750000 ]
  weight: 8    
  band:
  - # 1
    frequency:   -16.1342623209
  - # 2
    frequency:   -14.6695375503
  - # 3
    frequency:    -8.1045810008
  - # 4
    frequency:    -2.9406707677
  - # 5
    frequency:    10.7355223024
  - # 6
    frequency:    11.0984856386
  - # 7
    frequency:    14.3832020729
  - # 8
    frequency:    14.4689878234
  - # 9
    frequency:    17.4281481790
  - # 10
    frequency:    17.6418406609
  - # 11
    frequency:    17.9089744651
  - # 12
    frequency:    18.5795553140

- q-position: [   -0.4444444,    0.2222222,    0.3750000 ]
  weight: 8    
  band:
  - # 1
    frequency:   -20.1106020173
  - # 2
    frequency:   -18.8574437616
  - # 3
    frequency:   -13.3953004830
  - # 4
    frequency:   -12.3812268906
  - # 5
    frequency:     7.5409178971
  - # 6
    frequency:     9.1005152378
  - # 7
    frequency:    14.0486653560
  - # 8
    frequency:    14.5635533676
  - # 9
    frequency:    16.8787908671
  - # 10
    frequency:    17.4437979567
  - # 11
    frequency:    17.6762991373
  - # 12
    frequency:    17.8970176928

- q-position: [   -0.3333333,    0.2222222,    0.3750000 ]
  weight: 8    
  band:
  - # 1
    frequency:   -24.8248773379
  - # 2
    frequency:   -23.1293648404
  - # 3
    frequency:   -22.2555903946
  - # 4
    frequency:   -20.6660633784
  - # 5
    frequency:     8.8093035112
  - # 6
    frequency:    10.5489176237
  - # 7
    frequency:    13.2108738452
  - # 8
    frequency:    14.3512508337
  - # 9
    frequency:    14.8356256994
  - # 10
    frequency:    15.2512392682
  - # 11
    frequency:    17.5610682554
  - # 12
    frequency:    18.3767678453

- q-position: [   -0.2222222,    0.2222222,    0.3750000 ]
  weight: 4    
  band:
  - # 1
    frequency:   -28.0306353791
  - # 2
    frequency:   -27.5131143767
  - # 3
    frequency:   -25.8700609219
  - # 4
    frequency:   -25.7398571525
  - # 5
    frequency:     8.9789428500
  - # 6
    frequency:    11.1972359765
  - # 7
    frequency:    11.3830127811
  - # 8
    frequency:    11.8043578890
  - # 9
    frequency:    12.5216993112
  - # 10
    frequency:    14.7806728293
  - # 11
    frequency:    17.6965814742
  - # 12
    frequency:    18.7778841263

- q-position: [   -0.6666667,    0.3333333,    0.3750000 ]
  weight: 4    
  band:
  - # 1
    frequency:   -14.2047097025
  - # 2
    frequency:   -12.1610014624
  - # 3
    frequency:    -6.4919554329
  - # 4
    frequency:    -5.6966323727
  - # 5
    frequency:    13.2446059564
  - # 6
    frequency:    14.0739212925
  - # 7
    frequency:    14.4229346513
  - # 8
    frequency:    14.4813381928
  - # 9
    frequency:    17.5032399815
  - # 10
    frequency:    17.6052852622
  - # 11
    frequency:    17.9235683689
  - # 12
    frequency:    18.0793161261

- q-position: [   -0.5555556,    0.3333333,    0.3750000 ]
  weight: 8    
  band:
  - # 1
    frequency:   -15.4589842412
  - # 2
    frequency:   -13.4165078736
  - # 3
    frequency:    -7.1303156670
  - # 4
    frequency:    -4.2518571217
  - # 5
    frequency:    10.5092739582
  - # 6
    frequency:    11.1882372090
  - # 7
    frequency:    14.3959059419
  - # 8
    frequency:    14.4954159687
  - # 9
    frequency:    17.1460493183
  - # 10
    frequency:    17.4438849302
  - # 11
    frequency:    17.5448931366
  - # 12
    frequency:    17.7344734530

- q-position: [   -0.4444444,    0.3333333,    0.3750000 ]
  weight: 8    
  band:
  - # 1
    frequency:   -19.0507839277
  - # 2
    frequency:   -17.0588831930
  - # 3
    frequency:   -14.1867940653
  - # 4
    frequency:   -13.1905463431
  - # 5
    frequency:     9.6466085263
  - # 6
    frequency:    11.4015833016
  - # 7
    frequency:    14.0567147381
  - # 8
    frequency:    14.5998543390
  - # 9
    frequency:    16.0957123543
  - # 10
    frequency:    16.5636845178
  - # 11
    frequency:    17.3906771113
  - # 12
    frequency:    17.9759687067

- q-position: [   -0.3333333,    0.3333333,    0.3750000 ]
  weight: 4    
  band:
  - # 1
    frequency:   -22.3618209129
  - # 2
    frequency:   -20.5555557338
  - # 3
    frequency:   -19.9941396468
  - # 4
    frequency:   -19.4709600393
  - # 5
    frequency:    10.8434768920
  - # 6
    frequency:    12.7381830136
  - # 7
    frequency:    13.7327120095
  - # 8
    frequency:    14.4888233028
  - # 9
    frequency:    14.7157729917
  - # 10
    frequency:    14.9287205590
  - # 11
    frequency:    17.4447890300
  - # 12
    frequency:    18.3190378605

- q-position: [   -0.5555556,    0.4444444,    0.3750000 ]
  weight: 4    
  band:
  - # 1
    frequency:   -15.7843749055
  - # 2
    frequency:   -12.5546088192
  - # 3
    frequency:    -8.4643507357
  - # 4
    frequency:    -7.2598273627
  - # 5
    frequency:     9.4066946221
  - # 6
    frequency:    10.3270714578
  - # 7
    frequency:    14.4519980984
  - # 8
    frequency:    14.5561926864
  - # 9
    frequency:    16.1611251506
  - # 10
    frequency:    16.2221050904
  - # 11
    frequency:    17.3571795285
  - # 12
    frequency:    17.7465387668

- q-position: [   -0.4444444,    0.4444444,    0.3750000 ]
  weight: 4    
  band:
  - # 1
    frequency:   -17.3194629917
  - # 2
    frequency:   -14.0427668182
  - # 3
    frequency:   -11.8404454119
  - # 4
    frequency:   -11.4424206599
  - # 5
    frequency:     9.3827371933
  - # 6
    frequency:    11.0327888150
  - # 7
    frequency:    14.3138652360
  - # 8
    frequency:    14.6211497907
  - # 9
    frequency:    15.7056126850
  - # 10
    frequency:    15.8993959772
  - # 11
    frequency:    17.3148455419
  - # 12
    frequency:    17.8951546588

