mesh: [     9,     9,     4 ]
nqpoint: 50     
natom:   4      
reciprocal_lattice:
- [   0.40532700,   0.23401531,   0.00000000 ] # a*
- [  -0.00000030,   0.46803114,   0.00000000 ] # b*
- [   0.00000000,   0.00000000,   0.23044141 ] # c*
phonon:
- q-position: [    0.0000000,    0.0000000,    0.1250000 ]
  weight: 2    
  band:
  - # 1
    frequency:   -33.7102056470
  - # 2
    frequency:   -33.7094034669
  - # 3
    frequency:   -27.9646901714
  - # 4
    frequency:   -27.9643818605
  - # 5
    frequency:     2.1762333041
  - # 6
    frequency:     2.1763359630
  - # 7
    frequency:     2.8890598358
  - # 8
    frequency:     2.8898907535
  - # 9
    frequency:     4.1640197252
  - # 10
    frequency:    13.0163338138
  - # 11
    frequency:    18.3914212730
  - # 12
    frequency:    19.2041284076

- q-position: [    0.1111111,    0.0000000,    0.1250000 ]
  weight: 8    
  band:
  - # 1
    frequency:   -32.4083313560
  - # 2
    frequency:   -32.0947882341
  - # 3
    frequency:   -26.6974217184
  - # 4
    frequency:   -26.6227553600
  - # 5
    frequency:     1.4339796847
  - # 6
    frequency:     6.0012014940
  - # 7
    frequency:     6.1090794967
  - # 8
    frequency:     6.5619801215
  - # 9
    frequency:     8.0033294254
  - # 10
    frequency:    13.2522692557
  - # 11
    frequency:    18.4262302169
  - # 12
    frequency:    19.0638147371

- q-position: [    0.2222222,    0.0000000,    0.1250000 ]
  weight: 8    
  band:
  - # 1
    frequency:   -28.7834897035
  - # 2
    frequency:   -27.4020023721
  - # 3
    frequency:   -23.0689720193
  - # 4
    frequency:   -22.7839354717
  - # 5
    frequency:     6.1826065370
  - # 6
    frequency:     9.2700954847
  - # 7
    frequency:    10.7965930023
  - # 8
    frequency:    11.2188948546
  - # 9
    frequency:    12.1202821060
  - # 10
    frequency:    13.8434909309
  - # 11
    frequency:    18.4658340644
  - # 12
    frequency:    18.6768674983

- q-position: [    0.3333333,    0.0000000,    0.1250000 ]
  weight: 8    
  band:
  - # 1
    frequency:   -23.7999912715
  - # 2
    frequency:   -20.0055505739
  - # 3
    frequency:   -17.5925381249
  - # 4
    frequency:   -17.0843533703
  - # 5
    frequency:     8.5872265838
  - # 6
    frequency:    12.2395519172
  - # 7
    frequency:    13.9259384659
  - # 8
    frequency:    14.0486142691
  - # 9
    frequency:    14.5080122928
  - # 10
    frequency:    14.5278666293
  - # 11
    frequency:    18.1004244322
  - # 12
    frequency:    18.4047653673

- q-position: [    0.4444444,    0.0000000,    0.1250000 ]
  weight: 8    
  band:
  - # 1
    frequency:   -19.6441823964
  - # 2
    frequency:   -11.8475197945
  - # 3
    frequency:   -11.4254572871
  - # 4
    frequency:    -9.9325678716
  - # 5
    frequency:     8.5146079501
  - # 6
    frequency:    12.3900858607
  - # 7
    frequency:    14.3603437345
  - # 8
    frequency:    14.9248255610
  - # 9
    frequency:    15.5167254898
  - # 10
    frequency:    15.8154501545
  - # 11
    frequency:    17.5068765464
  - # 12
    frequency:    18.2281506590

- q-position: [    0.1111111,    0.1111111,    0.1250000 ]
  weight: 4    
  band:
  - # 1
    frequency:   -29.8345990518
  - # 2
    frequency:   -29.2028101922
  - # 3
    frequency:   -24.1239550239
  - # 4
    frequency:   -23.9034228016
  - # 5
    frequency:     6.8886989642
  - # 6
    frequency:     7.8733901713
  - # 7
    frequency:     8.3838166243
  - # 8
    frequency:    10.7478705031
  - # 9
    frequency:    10.9085788664
  - # 10
    frequency:    13.6776744043
  - # 11
    frequency:    18.5161862777
  - # 12
    frequency:    18.7561007772

- q-position: [    0.2222222,    0.1111111,    0.1250000 ]
  weight: 8    
  band:
  - # 1
    frequency:   -25.3578316073
  - # 2
    frequency:   -23.4934292003
  - # 3
    frequency:   -19.4234326013
  - # 4
    frequency:   -18.8651798867
  - # 5
    frequency:     8.7625069268
  - # 6
    frequency:    11.2251647978
  - # 7
    frequency:    11.6134408726
  - # 8
    frequency:    13.9058419747
  - # 9
    frequency:    14.2434282348
  - # 10
    frequency:    14.3341870283
  - # 11
    frequency:    18.2438358202
  - # 12
    frequency:    18.5310186447

- q-position: [    0.3333333,    0.1111111,    0.1250000 ]
  weight: 8    
  band:
  - # 1
    frequency:   -20.4019546563
  - # 2
    frequency:   -15.4776483519
  - # 3
    frequency:   -13.5128402871
  - # 4
    frequency:   -12.0964415259
  - # 5
    frequency:     9.1003236246
  - # 6
    frequency:    13.1948926442
  - # 7
    frequency:    13.7101933293
  - # 8
    frequency:    14.9188680573
  - # 9
    frequency:    15.1858933291
  - # 10
    frequency:    16.0603627787
  - # 11
    frequency:    17.6525209578
  - # 12
    frequency:    18.3580151650

- q-position: [    0.4444444,    0.1111111,    0.1250000 ]
  weight: 8    
  band:
  - # 1
    frequency:   -17.8890105057
  - # 2
    frequency:   -10.7803123479
  - # 3
    frequency:    -9.0675979927
  - # 4
    frequency:    -3.1881632860
  - # 5
    frequency:     9.1609833871
  - # 6
    frequency:    11.3432511395
  - # 7
    frequency:    14.9208281803
  - # 8
    frequency:    14.9878483660
  - # 9
    frequency:    15.0180049573
  - # 10
    frequency:    16.7462795593
  - # 11
    frequency:    17.3412713329
  - # 12
    frequency:    18.1440049195

- q-position: [   -0.4444444,    0.1111111,    0.1250000 ]
  weight: 8    
  band:
  - # 1
    frequency:   -20.3106805108
  - # 2
    frequency:   -15.2729142814
  - # 3
    frequency:   -13.7613098086
  - # 4
    frequency:   -12.5048248009
  - # 5
    frequency:     9.9476951751
  - # 6
    frequency:    13.2846858841
  - # 7
    frequency:    13.8569206610
  - # 8
    frequency:    14.2702005338
  - # 9
    frequency:    14.8577556952
  - # 10
    frequency:    16.4686566952
  - # 11
    frequency:    17.8104383457
  - # 12
    frequency:    18.1976771494

- q-position: [   -0.3333333,    0.1111111,    0.1250000 ]
  weight: 8    
  band:
  - # 1
    frequency:   -25.2771283891
  - # 2
    frequency:   -22.6934826127
  - # 3
    frequency:   -20.5559760838
  - # 4
    frequency:   -19.0455992364
  - # 5
    frequency:     8.6836797427
  - # 6
    frequency:    11.3144880156
  - # 7
    frequency:    12.0096073709
  - # 8
    frequency:    13.3631743881
  - # 9
    frequency:    14.2874283095
  - # 10
    frequency:    14.8651419483
  - # 11
    frequency:    18.3081150437
  - # 12
    frequency:    18.4430107348

- q-position: [   -0.2222222,    0.1111111,    0.1250000 ]
  weight: 8    
  band:
  - # 1
    frequency:   -29.7158198174
  - # 2
    frequency:   -28.8735661309
  - # 3
    frequency:   -24.8083036650
  - # 4
    frequency:   -23.9350455513
  - # 5
    frequency:     5.3351470646
  - # 6
    frequency:     8.0156509196
  - # 7
    frequency:     8.4420454847
  - # 8
    frequency:    10.6485764131
  - # 9
    frequency:    12.1306130894
  - # 10
    frequency:    13.6560925483
  - # 11
    frequency:    18.3744458700
  - # 12
    frequency:    18.8708040562

- q-position: [   -0.1111111,    0.1111111,    0.1250000 ]
  weight: 4    
  band:
  - # 1
    frequency:   -32.1991191127
  - # 2
    frequency:   -32.1687685270
  - # 3
    frequency:   -26.9689191047
  - # 4
    frequency:   -26.5760274099
  - # 5
    frequency:     1.6023070771
  - # 6
    frequency:     3.0436358398
  - # 7
    frequency:     6.0397533764
  - # 8
    frequency:     7.5490149584
  - # 9
    frequency:     9.0027309533
  - # 10
    frequency:    13.2464280400
  - # 11
    frequency:    18.3762969785
  - # 12
    frequency:    19.1021040175

- q-position: [    0.2222222,    0.2222222,    0.1250000 ]
  weight: 4    
  band:
  - # 1
    frequency:   -20.3348364092
  - # 2
    frequency:   -17.4331564110
  - # 3
    frequency:   -14.2628982406
  - # 4
    frequency:   -12.4719922817
  - # 5
    frequency:     9.8890589646
  - # 6
    frequency:    12.4709845490
  - # 7
    frequency:    13.3781531539
  - # 8
    frequency:    14.9159035957
  - # 9
    frequency:    15.6750448835
  - # 10
    frequency:    16.1354401258
  - # 11
    frequency:    17.7013001463
  - # 12
    frequency:    18.4256268345

- q-position: [    0.3333333,    0.2222222,    0.1250000 ]
  weight: 8    
  band:
  - # 1
    frequency:   -15.7492403321
  - # 2
    frequency:   -10.5391977152
  - # 3
    frequency:    -9.1959383617
  - # 4
    frequency:    -1.7110128769
  - # 5
    frequency:    10.0957262230
  - # 6
    frequency:    12.6558908606
  - # 7
    frequency:    14.9065393626
  - # 8
    frequency:    15.3354888719
  - # 9
    frequency:    15.4881107653
  - # 10
    frequency:    16.8197401321
  - # 11
    frequency:    17.2807115384
  - # 12
    frequency:    18.1158844728

- q-position: [   -0.5555556,    0.2222222,    0.1250000 ]
  weight: 8    
  band:
  - # 1
    frequency:   -15.3671001984
  - # 2
    frequency:   -12.9648456769
  - # 3
    frequency:    -7.1077594372
  - # 4
    frequency:     4.4744528034
  - # 5
    frequency:    11.2611469454
  - # 6
    frequency:    11.9833790485
  - # 7
    frequency:    14.4195216323
  - # 8
    frequency:    14.9647273081
  - # 9
    frequency:    15.2857128131
  - # 10
    frequency:    17.1486063950
  - # 11
    frequency:    17.4829583395
  - # 12
    frequency:    17.9308843405

- q-position: [   -0.4444444,    0.2222222,    0.1250000 ]
  weight: 8    
  band:
  - # 1
    frequency:   -19.6638448021
  - # 2
    frequency:   -17.8787120403
  - # 3
    frequency:   -14.8480504830
  - # 4
    frequency:   -12.8254435506
  - # 5
    frequency:    11.3546050984
  - # 6
    frequency:    12.9680664094
  - # 7
    frequency:    13.4302489139
  - # 8
    frequency:    13.9126536219
  - # 9
    frequency:    14.8702614165
  - # 10
    frequency:    16.8659420380
  - # 11
    frequency:    17.9376635413
  - # 12
    frequency:    18.1691939886

- q-position: [   -0.3333333,    0.2222222,    0.1250000 ]
  weight: 8    
  band:
  - # 1
    frequency:   -24.4939265725
  - # 2
    frequency:   -23.2662949642
  - # 3
    frequency:   -21.2327881425
  - # 4
    frequency:   -18.8330813080
  - # 5
    frequency:     9.5870360788
  - # 6
    frequency:    11.2291474762
  - # 7
    frequency:    11.3121007663
  - # 8
    frequency:    12.9404974776
  - # 9
    frequency:    14.3112376917
  - # 10
    frequency:    15.5351298289
  - # 11
    frequency:    18.2037206264
  - # 12
    frequency:    18.5273425582

- q-position: [   -0.2222222,    0.2222222,    0.1250000 ]
  weight: 4    
  band:
  - # 1
    frequency:   -27.8238675288
  - # 2
    frequency:   -27.8131198806
  - # 3
    frequency:   -24.1891411259
  - # 4
    frequency:   -22.5754370830
  - # 5
    frequency:     7.4869306640
  - # 6
    frequency:     8.1957331131
  - # 7
    frequency:     9.3255410062
  - # 8
    frequency:    11.3696383679
  - # 9
    frequency:    13.6760293850
  - # 10
    frequency:    13.8421714911
  - # 11
    frequency:    18.3057168121
  - # 12
    frequency:    18.8033775307

- q-position: [    0.3333333,    0.3333333,    0.1250000 ]
  weight: 4    
  band:
  - # 1
    frequency:   -12.0321257327
  - # 2
    frequency:   -11.4788064718
  - # 3
    frequency:     2.5362994122
  - # 4
    frequency:     6.2504314772
  - # 5
    frequency:    11.7382329953
  - # 6
    frequency:    12.6965470555
  - # 7
    frequency:    15.3605840394
  - # 8
    frequency:    15.3893280787
  - # 9
    frequency:    15.5761576329
  - # 10
    frequency:    16.1467349508
  - # 11
    frequency:    17.3868213779
  - # 12
    frequency:    17.7211561924

- q-position: [   -0.5555556,    0.3333333,    0.1250000 ]
  weight: 8    
  band:
  - # 1
    frequency:   -15.9137010174
  - # 2
    frequency:   -12.1633261355
  - # 3
    frequency:    -6.6709368534
  - # 4
    frequency:     2.6659526955
  - # 5
    frequency:    11.4334796821
  - # 6
    frequency:    12.0064122527
  - # 7
    frequency:    14.9165217476
  - # 8
    frequency:    15.0175389788
  - # 9
    frequency:    15.3306793959
  - # 10
    frequency:    16.6107637734
  - # 11
    frequency:    17.5358686077
  - # 12
    frequency:    17.8784107720

- q-position: [   -0.4444444,    0.3333333,    0.1250000 ]
  weight: 8    
  band:
  - # 1
    frequency:   -19.5766424535
  - # 2
    frequency:   -16.6557962632
  - # 3
    frequency:   -14.2635239697
  - # 4
    frequency:   -11.6840020139
  - # 5
    frequency:    11.0262420079
  - # 6
    frequency:    12.5156352204
  - # 7
    frequency:    13.7337562905
  - # 8
    frequency:    14.2923326366
  - # 9
    frequency:    14.9392142171
  - # 10
    frequency:    16.6953368230
  - # 11
    frequency:    17.7398962740
  - # 12
    frequency:    18.2411596292

- q-position: [   -0.3333333,    0.3333333,    0.1250000 ]
  weight: 4    
  band:
  - # 1
    frequency:   -22.3283327940
  - # 2
    frequency:   -21.0151226050
  - # 3
    frequency:   -19.3992741763
  - # 4
    frequency:   -16.4262742155
  - # 5
    frequency:    10.2015957445
  - # 6
    frequency:    12.1904967141
  - # 7
    frequency:    12.6880259768
  - # 8
    frequency:    12.9695433210
  - # 9
    frequency:    14.5638714549
  - # 10
    frequency:    16.1929482354
  - # 11
    frequency:    18.0164075638
  - # 12
    frequency:    18.4444928773

- q-position: [   -0.5555556,    0.4444444,    0.1250000 ]
  weight: 4    
  band:
  - # 1
    frequency:   -18.0866960437
  - # 2
    frequency:   -10.4063018041
  - # 3
    frequency:    -8.6614683428
  - # 4
    frequency:    -4.3067606808
  - # 5
    frequency:     9.3818299472
  - # 6
    frequency:    11.3063755339
  - # 7
    frequency:    14.9311787524
  - # 8
    frequency:    14.9908214739
  - # 9
    frequency:    15.8068611307
  - # 10
    frequency:    15.8937850799
  - # 11
    frequency:    17.3903272072
  - # 12
    frequency:    18.1009233242

- q-position: [   -0.4444444,    0.4444444,    0.1250000 ]
  weight: 4    
  band:
  - # 1
    frequency:   -19.3680660004
  - # 2
    frequency:   -12.7242431830
  - # 3
    frequency:   -12.1074036565
  - # 4
    frequency:    -8.9316354851
  - # 5
    frequency:     9.7805800404
  - # 6
    frequency:    11.5392913969
  - # 7
    frequency:    14.3156892097
  - # 8
    frequency:    14.9815993120
  - # 9
    frequency:    15.1929006534
  - # 10
    frequency:    16.2873496616
  - # 11
    frequency:    17.4912243889
  - # 12
    frequency:    18.2273108139

- q-position: [    0.0000000,    0.0000000,    0.3750000 ]
  weight: 2    
  band:
  - # 1
    frequency:   -33.4257277768
  - # 2
    frequency:   -33.4250570574
  - # 3
    frequency:   -31.1506391791
  - # 4
    frequency:   -31.1501644436
  - # 5
    frequency:     3.0100154445
  - # 6
    frequency:     3.0105496354
  - # 7
    frequency:     3.2275518562
  - # 8
    frequency:     3.2283290664
  - # 9
    frequency:    11.2732422189
  - # 10
    frequency:    14.8833478706
  - # 11
    frequency:    18.0218457316
  - # 12
    frequency:    19.2061160310

- q-position: [    0.1111111,    0.0000000,    0.3750000 ]
  weight: 8    
  band:
  - # 1
    frequency:   -32.0105758411
  - # 2
    frequency:   -31.8488715596
  - # 3
    frequency:   -29.7191541115
  - # 4
    frequency:   -29.7069648171
  - # 5
    frequency:     4.7533552570
  - # 6
    frequency:     6.5993468177
  - # 7
    frequency:     6.7404471705
  - # 8
    frequency:     6.9839359841
  - # 9
    frequency:    11.6517041851
  - # 10
    frequency:    14.8810807127
  - # 11
    frequency:    17.9807942681
  - # 12
    frequency:    19.0066310286

- q-position: [    0.2222222,    0.0000000,    0.3750000 ]
  weight: 8    
  band:
  - # 1
    frequency:   -28.0253728715
  - # 2
    frequency:   -27.2900965284
  - # 3
    frequency:   -25.6444443605
  - # 4
    frequency:   -25.5560413951
  - # 5
    frequency:     8.3558006321
  - # 6
    frequency:    10.6459936503
  - # 7
    frequency:    11.2443327966
  - # 8
    frequency:    11.4351887879
  - # 9
    frequency:    12.6357908558
  - # 10
    frequency:    14.8441531117
  - # 11
    frequency:    17.8955092546
  - # 12
    frequency:    18.4880508696

- q-position: [    0.3333333,    0.0000000,    0.3750000 ]
  weight: 8    
  band:
  - # 1
    frequency:   -22.3684721086
  - # 2
    frequency:   -20.1976626178
  - # 3
    frequency:   -19.6777656324
  - # 4
    frequency:   -19.1937093842
  - # 5
    frequency:    10.2081726726
  - # 6
    frequency:    12.3025367179
  - # 7
    frequency:    13.7729183620
  - # 8
    frequency:    14.4178236936
  - # 9
    frequency:    14.5866889450
  - # 10
    frequency:    14.7474108624
  - # 11
    frequency:    17.7584822932
  - # 12
    frequency:    17.9289722477

- q-position: [    0.4444444,    0.0000000,    0.3750000 ]
  weight: 8    
  band:
  - # 1
    frequency:   -17.3216074684
  - # 2
    frequency:   -13.9446356360
  - # 3
    frequency:   -11.7299592490
  - # 4
    frequency:   -11.1493791447
  - # 5
    frequency:     9.0582989625
  - # 6
    frequency:    10.8873965526
  - # 7
    frequency:    14.3352118349
  - # 8
    frequency:    14.6164733789
  - # 9
    frequency:    15.7023625260
  - # 10
    frequency:    15.8200537151
  - # 11
    frequency:    17.3704563688
  - # 12
    frequency:    17.8273818791

- q-position: [    0.1111111,    0.1111111,    0.3750000 ]
  weight: 4    
  band:
  - # 1
    frequency:   -29.2661512228
  - # 2
    frequency:   -28.8875640045
  - # 3
    frequency:   -26.9938390625
  - # 4
    frequency:   -26.7919775688
  - # 5
    frequency:     8.2314872313
  - # 6
    frequency:     8.8181868511
  - # 7
    frequency:    10.2734445786
  - # 8
    frequency:    10.4971092067
  - # 9
    frequency:    12.3080753354
  - # 10
    frequency:    14.8593956113
  - # 11
    frequency:    17.9406074507
  - # 12
    frequency:    18.6329750828

- q-position: [    0.2222222,    0.1111111,    0.3750000 ]
  weight: 8    
  band:
  - # 1
    frequency:   -24.3326797766
  - # 2
    frequency:   -23.1937534770
  - # 3
    frequency:   -21.9277410883
  - # 4
    frequency:   -21.3724296344
  - # 5
    frequency:    10.3429782032
  - # 6
    frequency:    11.7759620703
  - # 7
    frequency:    13.2309666432
  - # 8
    frequency:    13.5350220083
  - # 9
    frequency:    13.9178230938
  - # 10
    frequency:    14.7904181403
  - # 11
    frequency:    17.8789819474
  - # 12
    frequency:    18.0607732701

- q-position: [    0.3333333,    0.1111111,    0.3750000 ]
  weight: 8    
  band:
  - # 1
    frequency:   -18.5593623936
  - # 2
    frequency:   -15.7288191272
  - # 3
    frequency:   -15.1976103334
  - # 4
    frequency:   -13.9662456654
  - # 5
    frequency:    10.4508316253
  - # 6
    frequency:    12.3482638367
  - # 7
    frequency:    14.1350857992
  - # 8
    frequency:    14.6614480857
  - # 9
    frequency:    15.2241446177
  - # 10
    frequency:    15.7447348767
  - # 11
    frequency:    17.5176503719
  - # 12
    frequency:    17.8481520690

- q-position: [    0.4444444,    0.1111111,    0.3750000 ]
  weight: 8    
  band:
  - # 1
    frequency:   -15.4112585833
  - # 2
    frequency:   -12.0274791213
  - # 3
    frequency:    -8.6435804660
  - # 4
    frequency:    -6.3085671594
  - # 5
    frequency:     8.9248648478
  - # 6
    frequency:    10.1037538314
  - # 7
    frequency:    14.4178200696
  - # 8
    frequency:    14.5706026170
  - # 9
    frequency:    15.4889510209
  - # 10
    frequency:    16.2232859331
  - # 11
    frequency:    17.3306934696
  - # 12
    frequency:    17.7960105892

- q-position: [   -0.4444444,    0.1111111,    0.3750000 ]
  weight: 8    
  band:
  - # 1
    frequency:   -18.4807491219
  - # 2
    frequency:   -15.9816215539
  - # 3
    frequency:   -14.6656054939
  - # 4
    frequency:   -14.3900492592
  - # 5
    frequency:    10.7073660906
  - # 6
    frequency:    12.1782536154
  - # 7
    frequency:    14.1811528687
  - # 8
    frequency:    14.6491703501
  - # 9
    frequency:    15.0207270095
  - # 10
    frequency:    15.9158839517
  - # 11
    frequency:    17.5592179960
  - # 12
    frequency:    17.8001043462

- q-position: [   -0.3333333,    0.1111111,    0.3750000 ]
  weight: 8    
  band:
  - # 1
    frequency:   -24.2654889520
  - # 2
    frequency:   -22.8932116970
  - # 3
    frequency:   -22.1570220500
  - # 4
    frequency:   -21.5750223877
  - # 5
    frequency:    10.2046729479
  - # 6
    frequency:    12.0231617925
  - # 7
    frequency:    12.9858090578
  - # 8
    frequency:    13.4825274687
  - # 9
    frequency:    14.1614206071
  - # 10
    frequency:    14.7976244011
  - # 11
    frequency:    17.8000955454
  - # 12
    frequency:    18.1223028491

- q-position: [   -0.2222222,    0.1111111,    0.3750000 ]
  weight: 8    
  band:
  - # 1
    frequency:   -29.1940229021
  - # 2
    frequency:   -28.7613610065
  - # 3
    frequency:   -27.1909096016
  - # 4
    frequency:   -26.8314721974
  - # 5
    frequency:     7.6213748546
  - # 6
    frequency:     9.3625427394
  - # 7
    frequency:     9.7054063087
  - # 8
    frequency:    11.0416246829
  - # 9
    frequency:    12.3531720393
  - # 10
    frequency:    14.8628918526
  - # 11
    frequency:    17.8823372829
  - # 12
    frequency:    18.6743463698

- q-position: [   -0.1111111,    0.1111111,    0.3750000 ]
  weight: 4    
  band:
  - # 1
    frequency:   -31.9092826087
  - # 2
    frequency:   -31.8898514360
  - # 3
    frequency:   -29.8338345750
  - # 4
    frequency:   -29.6651977086
  - # 5
    frequency:     5.0661285061
  - # 6
    frequency:     5.3223636029
  - # 7
    frequency:     6.7212349202
  - # 8
    frequency:     7.8461071350
  - # 9
    frequency:    11.6635267642
  - # 10
    frequency:    14.8821752685
  - # 11
    frequency:    17.9603042801
  - # 12
    frequency:    19.0205564104

- q-position: [    0.2222222,    0.2222222,    0.3750000 ]
  weight: 4    
  band:
  - # 1
    frequency:   -18.8793630855
  - # 2
    frequency:   -16.8709921082
  - # 3
    frequency:   -16.2260910499
  - # 4
    frequency:   -14.7906902508
  - # 5
    frequency:    11.3294834861
  - # 6
    frequency:    12.6735556674
  - # 7
    frequency:    13.9466244947
  - # 8
    frequency:    14.7098958193
  - # 9
    frequency:    15.1452999050
  - # 10
    frequency:    15.6110882405
  - # 11
    frequency:    17.6055101439
  - # 12
    frequency:    17.8485445758

- q-position: [    0.3333333,    0.2222222,    0.3750000 ]
  weight: 8    
  band:
  - # 1
    frequency:   -13.5444381147
  - # 2
    frequency:   -10.7442863655
  - # 3
    frequency:    -8.3803667059
  - # 4
    frequency:    -5.4507552762
  - # 5
    frequency:    10.5861770958
  - # 6
    frequency:    12.0503535429
  - # 7
    frequency:    14.3699371506
  - # 8
    frequency:    14.5740247334
  - # 9
    frequency:    15.2759556495
  - # 10
    frequency:    16.0288472300
  - # 11
    frequency:    17.3914745859
  - # 12
    frequency:    17.7667171417

- q-position: [   -0.5555556,    0.2222222,    0.3750000 ]
  weight: 8    
  band:
  - # 1
    frequency:   -13.2349422791
  - # 2
    frequency:   -11.6939526426
  - # 3
    frequency:    -7.8200978045
  - # 4
    frequency:    -4.8970612102
  - # 5
    frequency:    11.1652082910
  - # 6
    frequency:    11.5224146364
  - # 7
    frequency:    14.3810944408
  - # 8
    frequency:    14.5637667330
  - # 9
    frequency:    15.0338527896
  - # 10
    frequency:    16.1967136885
  - # 11
    frequency:    17.4638704719
  - # 12
    frequency:    17.6941733201

- q-position: [   -0.4444444,    0.2222222,    0.3750000 ]
  weight: 8    
  band:
  - # 1
    frequency:   -18.4349567536
  - # 2
    frequency:   -17.5469750999
  - # 3
    frequency:   -15.7957687728
  - # 4
    frequency:   -15.1152249099
  - # 5
    frequency:    11.7718275910
  - # 6
    frequency:    12.4858663869
  - # 7
    frequency:    14.0380541621
  - # 8
    frequency:    14.6000316636
  - # 9
    frequency:    14.7142125805
  - # 10
    frequency:    15.9634187799
  - # 11
    frequency:    17.6995975624
  - # 12
    frequency:    17.7402958400

- q-position: [   -0.3333333,    0.2222222,    0.3750000 ]
  weight: 8    
  band:
  - # 1
    frequency:   -23.8859799995
  - # 2
    frequency:   -23.1701355108
  - # 3
    frequency:   -22.4989411218
  - # 4
    frequency:   -21.3770088187
  - # 5
    frequency:    10.5520675671
  - # 6
    frequency:    11.7506603761
  - # 7
    frequency:    12.6814953715
  - # 8
    frequency:    13.4425330699
  - # 9
    frequency:    14.4829323628
  - # 10
    frequency:    14.8129906291
  - # 11
    frequency:    17.7545430428
  - # 12
    frequency:    18.1589217687

- q-position: [   -0.2222222,    0.2222222,    0.3750000 ]
  weight: 4    
  band:
  - # 1
    frequency:   -27.6106922498
  - # 2
    frequency:   -27.4546741821
  - # 3
    frequency:   -26.1200836961
  - # 4
    frequency:   -25.3842503899
  - # 5
    frequency:     8.7900423646
  - # 6
    frequency:    10.1722750262
  - # 7
    frequency:    10.2968616746
  - # 8
    frequency:    12.4528387479
  - # 9
    frequency:    12.6600215174
  - # 10
    frequency:    14.8538324666
  - # 11
    frequency:    17.8264425643
  - # 12
    frequency:    18.5381101858

- q-position: [    0.3333333,    0.3333333,    0.3750000 ]
  weight: 4    
  band:
  - # 1
    frequency:    -9.3408426569
  - # 2
    frequency:    -9.1972792536
  - # 3
    frequency:     3.0019733752
  - # 4
    frequency:     5.0772162336
  - # 5
    frequency:    11.4925901781
  - # 6
    frequency:    11.9935020251
  - # 7
    frequency:    14.4718061294
  - # 8
    frequency:    14.5226510248
  - # 9
    frequency:    14.8986538078
  - # 10
    frequency:    15.2925585059
  - # 11
    frequency:    17.4859115291
  - # 12
    frequency:    17.6234889031

- q-position: [   -0.5555556,    0.3333333,    0.3750000 ]
  weight: 8    
  band:
  - # 1
    frequency:   -13.5137728024
  - # 2
    frequency:   -11.3278266912
  - # 3
    frequency:    -7.4778872483
  - # 4
    frequency:    -5.5678298349
  - # 5
    frequency:    11.2013305696
  - # 6
    frequency:    11.5325308431
  - # 7
    frequency:    14.3897320375
  - # 8
    frequency:    14.5353779919
  - # 9
    frequency:    15.3035842878
  - # 10
    frequency:    15.9506886357
  - # 11
    frequency:    17.4967603973
  - # 12
    frequency:    17.6629229547

- q-position: [   -0.4444444,    0.3333333,    0.3750000 ]
  weight: 8    
  band:
  - # 1
    frequency:   -18.1048906485
  - # 2
    frequency:   -16.5073814031
  - # 3
    frequency:   -15.1465422033
  - # 4
    frequency:   -13.8250515090
  - # 5
    frequency:    11.1567413707
  - # 6
    frequency:    11.7957036788
  - # 7
    frequency:    14.1550015915
  - # 8
    frequency:    14.6513284514
  - # 9
    frequency:    14.9909546372
  - # 10
    frequency:    16.0027259307
  - # 11
    frequency:    17.5268036375
  - # 12
    frequency:    17.8267783651

- q-position: [   -0.3333333,    0.3333333,    0.3750000 ]
  weight: 4    
  band:
  - # 1
    frequency:   -21.6833541091
  - # 2
    frequency:   -20.5841826193
  - # 3
    frequency:   -20.4964785194
  - # 4
    frequency:   -18.7888908705
  - # 5
    frequency:    10.8001950645
  - # 6
    frequency:    11.8239242964
  - # 7
    frequency:    13.7530051456
  - # 8
    frequency:    13.7669706824
  - # 9
    frequency:    14.7721606028
  - # 10
    frequency:    15.2879049846
  - # 11
    frequency:    17.6555850359
  - # 12
    frequency:    18.0122830372

- q-position: [   -0.5555556,    0.4444444,    0.3750000 ]
  weight: 4    
  band:
  - # 1
    frequency:   -15.5077772837
  - # 2
    frequency:   -11.9048592266
  - # 3
    frequency:    -8.3993570294
  - # 4
    frequency:    -6.6404569262
  - # 5
    frequency:     8.9815009467
  - # 6
    frequency:    10.0827724035
  - # 7
    frequency:    14.4151177867
  - # 8
    frequency:    14.5640657507
  - # 9
    frequency:    15.8324323399
  - # 10
    frequency:    15.8802641769
  - # 11
    frequency:    17.3512735797
  - # 12
    frequency:    17.7769870451

- q-position: [   -0.4444444,    0.4444444,    0.3750000 ]
  weight: 4    
  band:
  - # 1
    frequency:   -17.1706837523
  - # 2
    frequency:   -14.1656283059
  - # 3
    frequency:   -12.1173762881
  - # 4
    frequency:   -10.7576309161
  - # 5
    frequency:     9.5609452236
  - # 6
    frequency:    10.4788759702
  - # 7
    frequency:    14.3234206202
  - # 8
    frequency:    14.6322049296
  - # 9
    frequency:    15.5466366709
  - # 10
    frequency:    16.0029202980
  - # 11
    frequency:    17.3622069739
  - # 12
    frequency:    17.8316889067

