mesh: [     9,     9,     4 ]
nqpoint: 50     
reciprocal_lattice:
- [   0.40533564,   0.23404500,   0.00000000 ] # a*
- [   0.00002110,   0.46805346,   0.00000000 ] # b*
- [   0.00000000,   0.00000000,   0.22874227 ] # c*
natom:   4      
lattice:
- [     2.467155442383188,    -0.000111200019553,     0.000000000000000 ] # a
- [    -1.233674023183305,     2.136563688137034,     0.000000000000000 ] # b
- [     0.000000000000000,     0.000000000000000,     4.371732503000000 ] # c
points:
- symbol: C  # 1
  coordinates: [  0.999999697166835,  0.000000349172772,  0.250000000000000 ]
  mass: 12.010700
- symbol: C  # 2
  coordinates: [  0.000000349172772,  0.999999697166835,  0.750000000000000 ]
  mass: 12.010700
- symbol: C  # 3
  coordinates: [  0.333298929956719,  0.666701052703672,  0.250000000000000 ]
  mass: 12.010700
- symbol: C  # 4
  coordinates: [  0.666701052703672,  0.333298929956719,  0.750000000000000 ]
  mass: 12.010700
phonon:
- q-position: [    0.0000000,    0.0000000,    0.1250000 ]
  weight: 2    
  band:
  - # 1
    frequency:    -7.2751770258
  - # 2
    frequency:    -3.3339797843
  - # 3
    frequency:     0.8407490751
  - # 4
    frequency:     1.7606610460
  - # 5
    frequency:     4.0651685878
  - # 6
    frequency:    14.2356998261
  - # 7
    frequency:    23.0328829023
  - # 8
    frequency:    25.8211056911
  - # 9
    frequency:    42.5704660033
  - # 10
    frequency:    43.4447688939
  - # 11
    frequency:    46.1697404163
  - # 12
    frequency:    46.2698782252

- q-position: [    0.1111111,    0.0000000,    0.1250000 ]
  weight: 8    
  band:
  - # 1
    frequency:     2.7467272477
  - # 2
    frequency:     5.4552895725
  - # 3
    frequency:     5.8702991407
  - # 4
    frequency:     8.1233490526
  - # 5
    frequency:    10.8234567256
  - # 6
    frequency:    14.5789615827
  - # 7
    frequency:    22.9999609973
  - # 8
    frequency:    25.4008221202
  - # 9
    frequency:    42.5882860442
  - # 10
    frequency:    43.2761064058
  - # 11
    frequency:    45.7677174373
  - # 12
    frequency:    45.9633111454

- q-position: [    0.2222222,    0.0000000,    0.1250000 ]
  weight: 8    
  band:
  - # 1
    frequency:     9.8493541575
  - # 2
    frequency:     9.9668154711
  - # 3
    frequency:    10.6966625493
  - # 4
    frequency:    15.2240828815
  - # 5
    frequency:    18.3385728105
  - # 6
    frequency:    20.7265138976
  - # 7
    frequency:    22.8802700635
  - # 8
    frequency:    24.2954173258
  - # 9
    frequency:    42.0266858171
  - # 10
    frequency:    43.1016490238
  - # 11
    frequency:    44.6455099790
  - # 12
    frequency:    44.9505577685

- q-position: [    0.3333333,    0.0000000,    0.1250000 ]
  weight: 8    
  band:
  - # 1
    frequency:    13.3181554586
  - # 2
    frequency:    14.4151015792
  - # 3
    frequency:    15.1161468819
  - # 4
    frequency:    16.1910988228
  - # 5
    frequency:    22.0486400683
  - # 6
    frequency:    23.1406012490
  - # 7
    frequency:    26.9759901697
  - # 8
    frequency:    29.2791279342
  - # 9
    frequency:    40.9072195528
  - # 10
    frequency:    42.2725803785
  - # 11
    frequency:    42.9709030898
  - # 12
    frequency:    43.2093235252

- q-position: [    0.4444444,    0.0000000,    0.1250000 ]
  weight: 8    
  band:
  - # 1
    frequency:    15.7688407922
  - # 2
    frequency:    16.7504609541
  - # 3
    frequency:    17.1168649673
  - # 4
    frequency:    17.6074405726
  - # 5
    frequency:    20.8668858087
  - # 6
    frequency:    22.6507851191
  - # 7
    frequency:    33.9186785418
  - # 8
    frequency:    35.7038249049
  - # 9
    frequency:    39.1893580012
  - # 10
    frequency:    39.9784265755
  - # 11
    frequency:    40.3874067721
  - # 12
    frequency:    42.1235305412

- q-position: [    0.1111111,    0.1111111,    0.1250000 ]
  weight: 4    
  band:
  - # 1
    frequency:     8.7717314478
  - # 2
    frequency:     9.4042439581
  - # 3
    frequency:     9.7751683147
  - # 4
    frequency:    14.7132802876
  - # 5
    frequency:    16.3032314136
  - # 6
    frequency:    17.2547527973
  - # 7
    frequency:    22.9324731371
  - # 8
    frequency:    24.5466621551
  - # 9
    frequency:    42.6505691726
  - # 10
    frequency:    42.6559662641
  - # 11
    frequency:    45.0002167082
  - # 12
    frequency:    45.4679850033

- q-position: [    0.2222222,    0.1111111,    0.1250000 ]
  weight: 8    
  band:
  - # 1
    frequency:    12.4714317901
  - # 2
    frequency:    14.2579285391
  - # 3
    frequency:    14.6655969439
  - # 4
    frequency:    15.8400504447
  - # 5
    frequency:    22.4685453694
  - # 6
    frequency:    23.2058443197
  - # 7
    frequency:    24.0364940204
  - # 8
    frequency:    25.3206886765
  - # 9
    frequency:    41.6253842185
  - # 10
    frequency:    42.3364526799
  - # 11
    frequency:    43.7640785875
  - # 12
    frequency:    43.9672619080

- q-position: [    0.3333333,    0.1111111,    0.1250000 ]
  weight: 8    
  band:
  - # 1
    frequency:    15.2568794569
  - # 2
    frequency:    16.5371542309
  - # 3
    frequency:    17.9369697163
  - # 4
    frequency:    18.6980801090
  - # 5
    frequency:    21.3825670645
  - # 6
    frequency:    22.5475755455
  - # 7
    frequency:    30.6943867282
  - # 8
    frequency:    32.3789754599
  - # 9
    frequency:    40.1972335896
  - # 10
    frequency:    41.0081439855
  - # 11
    frequency:    41.4094430315
  - # 12
    frequency:    42.5202761660

- q-position: [   -0.5555556,    0.1111111,    0.1250000 ]
  weight: 8    
  band:
  - # 1
    frequency:    16.3479866042
  - # 2
    frequency:    16.9257395960
  - # 3
    frequency:    19.1704196310
  - # 4
    frequency:    20.4270591590
  - # 5
    frequency:    20.7063159340
  - # 6
    frequency:    22.3506342386
  - # 7
    frequency:    36.2419842921
  - # 8
    frequency:    36.3386408985
  - # 9
    frequency:    37.1153953008
  - # 10
    frequency:    38.4368260867
  - # 11
    frequency:    40.4499766832
  - # 12
    frequency:    41.9266982868

- q-position: [   -0.4444444,    0.1111111,    0.1250000 ]
  weight: 8    
  band:
  - # 1
    frequency:    14.6529811261
  - # 2
    frequency:    16.7362034689
  - # 3
    frequency:    17.5845489123
  - # 4
    frequency:    19.3801597303
  - # 5
    frequency:    21.4701242821
  - # 6
    frequency:    22.6830962773
  - # 7
    frequency:    30.5955082385
  - # 8
    frequency:    32.6659136165
  - # 9
    frequency:    40.1749972927
  - # 10
    frequency:    40.8007372572
  - # 11
    frequency:    41.4856230940
  - # 12
    frequency:    42.4065229712

- q-position: [   -0.3333333,    0.1111111,    0.1250000 ]
  weight: 8    
  band:
  - # 1
    frequency:    11.7054277950
  - # 2
    frequency:    13.2614778107
  - # 3
    frequency:    15.8538177836
  - # 4
    frequency:    16.0692060882
  - # 5
    frequency:    22.4542292824
  - # 6
    frequency:    23.3539475943
  - # 7
    frequency:    23.7040081200
  - # 8
    frequency:    25.9980780460
  - # 9
    frequency:    41.5969323247
  - # 10
    frequency:    42.7983131180
  - # 11
    frequency:    43.3718324775
  - # 12
    frequency:    43.7177879994

- q-position: [   -0.2222222,    0.1111111,    0.1250000 ]
  weight: 8    
  band:
  - # 1
    frequency:     6.5793297571
  - # 2
    frequency:     8.3148123596
  - # 3
    frequency:    11.0493980295
  - # 4
    frequency:    15.0255295699
  - # 5
    frequency:    16.0069077108
  - # 6
    frequency:    18.1571763912
  - # 7
    frequency:    22.9228146079
  - # 8
    frequency:    24.7432639458
  - # 9
    frequency:    42.3677725434
  - # 10
    frequency:    43.3272238453
  - # 11
    frequency:    44.7898371844
  - # 12
    frequency:    45.1806850429

- q-position: [   -0.1111111,    0.1111111,    0.1250000 ]
  weight: 4    
  band:
  - # 1
    frequency:    -5.5366793063
  - # 2
    frequency:     5.5199752159
  - # 3
    frequency:     6.8201892915
  - # 4
    frequency:     9.3617959046
  - # 5
    frequency:    10.9615434776
  - # 6
    frequency:    14.6491917664
  - # 7
    frequency:    23.0014775754
  - # 8
    frequency:    25.4681490177
  - # 9
    frequency:    42.5537278688
  - # 10
    frequency:    43.4666453453
  - # 11
    frequency:    45.6625707378
  - # 12
    frequency:    45.8819730386

- q-position: [    0.2222222,    0.2222222,    0.1250000 ]
  weight: 4    
  band:
  - # 1
    frequency:    15.0683464574
  - # 2
    frequency:    16.4540599591
  - # 3
    frequency:    19.7127056682
  - # 4
    frequency:    20.0199986331
  - # 5
    frequency:    21.8886904185
  - # 6
    frequency:    22.2229028519
  - # 7
    frequency:    29.3868449194
  - # 8
    frequency:    29.5355012530
  - # 9
    frequency:    40.5609169529
  - # 10
    frequency:    41.3790748480
  - # 11
    frequency:    41.6851330532
  - # 12
    frequency:    42.7389192839

- q-position: [    0.3333333,    0.2222222,    0.1250000 ]
  weight: 8    
  band:
  - # 1
    frequency:    16.6353453535
  - # 2
    frequency:    17.1660794969
  - # 3
    frequency:    20.9417192252
  - # 4
    frequency:    21.7554274211
  - # 5
    frequency:    23.1275630152
  - # 6
    frequency:    24.1933363616
  - # 7
    frequency:    33.1969016321
  - # 8
    frequency:    34.1964702534
  - # 9
    frequency:    37.6790456092
  - # 10
    frequency:    38.3004929020
  - # 11
    frequency:    41.1784002731
  - # 12
    frequency:    41.9593924075

- q-position: [   -0.5555556,    0.2222222,    0.1250000 ]
  weight: 8    
  band:
  - # 1
    frequency:    16.1404723692
  - # 2
    frequency:    17.4089804170
  - # 3
    frequency:    20.9929649511
  - # 4
    frequency:    21.8883901472
  - # 5
    frequency:    22.7863964562
  - # 6
    frequency:    24.8495021227
  - # 7
    frequency:    33.2970567059
  - # 8
    frequency:    34.2842196031
  - # 9
    frequency:    37.2032035901
  - # 10
    frequency:    38.4039562613
  - # 11
    frequency:    41.3870477209
  - # 12
    frequency:    41.7629440059

- q-position: [   -0.4444444,    0.2222222,    0.1250000 ]
  weight: 8    
  band:
  - # 1
    frequency:    14.0973240683
  - # 2
    frequency:    16.7583176564
  - # 3
    frequency:    18.6816011679
  - # 4
    frequency:    21.4965926900
  - # 5
    frequency:    22.1047438093
  - # 6
    frequency:    22.4536198868
  - # 7
    frequency:    28.6564600867
  - # 8
    frequency:    30.4906386889
  - # 9
    frequency:    40.4809898741
  - # 10
    frequency:    41.1733941022
  - # 11
    frequency:    41.9221964816
  - # 12
    frequency:    42.4037217523

- q-position: [   -0.3333333,    0.2222222,    0.1250000 ]
  weight: 8    
  band:
  - # 1
    frequency:    11.3162438779
  - # 2
    frequency:    12.0937031777
  - # 3
    frequency:    16.0863327782
  - # 4
    frequency:    16.6012453241
  - # 5
    frequency:    22.6790106623
  - # 6
    frequency:    23.3828692085
  - # 7
    frequency:    23.9423844174
  - # 8
    frequency:    25.9501651229
  - # 9
    frequency:    42.0617874318
  - # 10
    frequency:    42.6279392644
  - # 11
    frequency:    42.9618194595
  - # 12
    frequency:    43.8056518092

- q-position: [   -0.2222222,    0.2222222,    0.1250000 ]
  weight: 4    
  band:
  - # 1
    frequency:     6.1327038912
  - # 2
    frequency:     8.9949141008
  - # 3
    frequency:    12.5699380113
  - # 4
    frequency:    15.4180691974
  - # 5
    frequency:    19.0739842385
  - # 6
    frequency:    20.8615402366
  - # 7
    frequency:    22.9354704165
  - # 8
    frequency:    24.4477562356
  - # 9
    frequency:    42.4042937896
  - # 10
    frequency:    43.2696403236
  - # 11
    frequency:    44.0382132099
  - # 12
    frequency:    44.9193001281

- q-position: [   -0.6666667,    0.3333333,    0.1250000 ]
  weight: 4    
  band:
  - # 1
    frequency:    16.9039726295
  - # 2
    frequency:    17.6541394075
  - # 3
    frequency:    20.8631605998
  - # 4
    frequency:    21.3504487990
  - # 5
    frequency:    26.9497232139
  - # 6
    frequency:    27.0058201953
  - # 7
    frequency:    34.4680499789
  - # 8
    frequency:    34.5002181024
  - # 9
    frequency:    35.4900268773
  - # 10
    frequency:    35.8478752178
  - # 11
    frequency:    41.5222416040
  - # 12
    frequency:    41.6321232940

- q-position: [   -0.5555556,    0.3333333,    0.1250000 ]
  weight: 8    
  band:
  - # 1
    frequency:    16.1962733810
  - # 2
    frequency:    17.4116530666
  - # 3
    frequency:    20.8066597742
  - # 4
    frequency:    22.0268269456
  - # 5
    frequency:    23.1040066648
  - # 6
    frequency:    24.6073835396
  - # 7
    frequency:    33.1917011952
  - # 8
    frequency:    34.3604455521
  - # 9
    frequency:    37.2257903113
  - # 10
    frequency:    38.4137861253
  - # 11
    frequency:    41.2128665330
  - # 12
    frequency:    41.9374824278

- q-position: [   -0.4444444,    0.3333333,    0.1250000 ]
  weight: 8    
  band:
  - # 1
    frequency:    14.4523414700
  - # 2
    frequency:    16.6135857797
  - # 3
    frequency:    17.1194526771
  - # 4
    frequency:    19.8390171791
  - # 5
    frequency:    21.7210012963
  - # 6
    frequency:    22.5266691955
  - # 7
    frequency:    30.8256347133
  - # 8
    frequency:    32.6174423009
  - # 9
    frequency:    40.2188627582
  - # 10
    frequency:    40.7766848369
  - # 11
    frequency:    41.7039246463
  - # 12
    frequency:    42.1762509692

- q-position: [   -0.3333333,    0.3333333,    0.1250000 ]
  weight: 4    
  band:
  - # 1
    frequency:    12.1839410492
  - # 2
    frequency:    12.5304295770
  - # 3
    frequency:    16.4450929546
  - # 4
    frequency:    16.7392485131
  - # 5
    frequency:    22.6356476442
  - # 6
    frequency:    22.8453111686
  - # 7
    frequency:    27.3817153377
  - # 8
    frequency:    29.3610314860
  - # 9
    frequency:    41.5223980364
  - # 10
    frequency:    42.1224994382
  - # 11
    frequency:    42.4808350504
  - # 12
    frequency:    43.1192640549

- q-position: [   -0.5555556,    0.4444444,    0.1250000 ]
  weight: 4    
  band:
  - # 1
    frequency:    16.3709796603
  - # 2
    frequency:    16.9285277001
  - # 3
    frequency:    19.6575440655
  - # 4
    frequency:    20.0480816761
  - # 5
    frequency:    20.5884534788
  - # 6
    frequency:    22.4369908319
  - # 7
    frequency:    36.2932437494
  - # 8
    frequency:    36.3357298319
  - # 9
    frequency:    37.1283470788
  - # 10
    frequency:    38.4681855309
  - # 11
    frequency:    40.3535068050
  - # 12
    frequency:    42.0077160669

- q-position: [   -0.4444444,    0.4444444,    0.1250000 ]
  weight: 4    
  band:
  - # 1
    frequency:    15.5166115584
  - # 2
    frequency:    16.4190130061
  - # 3
    frequency:    16.8837755333
  - # 4
    frequency:    18.2276811525
  - # 5
    frequency:    21.0015868690
  - # 6
    frequency:    22.6086620849
  - # 7
    frequency:    34.0842789500
  - # 8
    frequency:    35.7313419337
  - # 9
    frequency:    39.1187593872
  - # 10
    frequency:    40.0499927261
  - # 11
    frequency:    40.4493224958
  - # 12
    frequency:    42.0403986593

- q-position: [    0.0000000,    0.0000000,    0.3750000 ]
  weight: 2    
  band:
  - # 1
    frequency:    -3.4071212858
  - # 2
    frequency:    -1.5097864250
  - # 3
    frequency:     1.6854368230
  - # 4
    frequency:     3.4610956197
  - # 5
    frequency:    11.5949388159
  - # 6
    frequency:    16.6793815993
  - # 7
    frequency:    22.9240645229
  - # 8
    frequency:    25.4681898637
  - # 9
    frequency:    44.6391662674
  - # 10
    frequency:    44.8056225554
  - # 11
    frequency:    45.9184283354
  - # 12
    frequency:    46.1346868080

- q-position: [    0.1111111,    0.0000000,    0.3750000 ]
  weight: 8    
  band:
  - # 1
    frequency:     5.0140569707
  - # 2
    frequency:     5.7246977233
  - # 3
    frequency:     9.0541322649
  - # 4
    frequency:    10.2498724554
  - # 5
    frequency:    12.9941897164
  - # 6
    frequency:    16.9870109609
  - # 7
    frequency:    22.6846842811
  - # 8
    frequency:    24.9862061622
  - # 9
    frequency:    44.3202411107
  - # 10
    frequency:    44.6567781247
  - # 11
    frequency:    45.4777239408
  - # 12
    frequency:    45.8882457100

- q-position: [    0.2222222,    0.0000000,    0.3750000 ]
  weight: 8    
  band:
  - # 1
    frequency:    10.3187409615
  - # 2
    frequency:    10.6068792997
  - # 3
    frequency:    12.8747096273
  - # 4
    frequency:    16.0266611628
  - # 5
    frequency:    19.9573769027
  - # 6
    frequency:    21.1409166384
  - # 7
    frequency:    22.1759768298
  - # 8
    frequency:    23.7626368468
  - # 9
    frequency:    43.1384720234
  - # 10
    frequency:    44.1863776737
  - # 11
    frequency:    44.2925594266
  - # 12
    frequency:    45.0810232470

- q-position: [    0.3333333,    0.0000000,    0.3750000 ]
  weight: 8    
  band:
  - # 1
    frequency:    14.5802099386
  - # 2
    frequency:    14.6165871552
  - # 3
    frequency:    14.9014005078
  - # 4
    frequency:    16.3749750889
  - # 5
    frequency:    21.4451612741
  - # 6
    frequency:    22.2697495025
  - # 7
    frequency:    28.2508976979
  - # 8
    frequency:    29.1591345843
  - # 9
    frequency:    41.5302311057
  - # 10
    frequency:    42.4742388898
  - # 11
    frequency:    43.0291688299
  - # 12
    frequency:    43.3422287484

- q-position: [    0.4444444,    0.0000000,    0.3750000 ]
  weight: 8    
  band:
  - # 1
    frequency:    15.6030173815
  - # 2
    frequency:    16.2370361943
  - # 3
    frequency:    17.2704107488
  - # 4
    frequency:    17.4813826469
  - # 5
    frequency:    20.7426851377
  - # 6
    frequency:    21.6987110917
  - # 7
    frequency:    34.8935386683
  - # 8
    frequency:    35.5904924477
  - # 9
    frequency:    40.0589810651
  - # 10
    frequency:    40.2614756153
  - # 11
    frequency:    40.5372343880
  - # 12
    frequency:    41.1591174626

- q-position: [    0.1111111,    0.1111111,    0.3750000 ]
  weight: 4    
  band:
  - # 1
    frequency:     9.2539599856
  - # 2
    frequency:     9.4880040266
  - # 3
    frequency:    12.8413139698
  - # 4
    frequency:    15.2401289173
  - # 5
    frequency:    17.9984543112
  - # 6
    frequency:    18.5819790376
  - # 7
    frequency:    22.2238086114
  - # 8
    frequency:    24.0193444012
  - # 9
    frequency:    43.6613252563
  - # 10
    frequency:    44.2841166435
  - # 11
    frequency:    44.6337029620
  - # 12
    frequency:    45.4405304686

- q-position: [    0.2222222,    0.1111111,    0.3750000 ]
  weight: 8    
  band:
  - # 1
    frequency:    13.4662845345
  - # 2
    frequency:    14.1206594621
  - # 3
    frequency:    15.3975774770
  - # 4
    frequency:    16.7838013700
  - # 5
    frequency:    21.6129296744
  - # 6
    frequency:    22.5178421426
  - # 7
    frequency:    25.0254805679
  - # 8
    frequency:    25.5138517505
  - # 9
    frequency:    42.3672824242
  - # 10
    frequency:    43.2158983319
  - # 11
    frequency:    43.3942900123
  - # 12
    frequency:    44.0876427693

- q-position: [    0.3333333,    0.1111111,    0.3750000 ]
  weight: 8    
  band:
  - # 1
    frequency:    15.3316574813
  - # 2
    frequency:    16.0438053663
  - # 3
    frequency:    18.4033600405
  - # 4
    frequency:    18.7602948376
  - # 5
    frequency:    21.0040527541
  - # 6
    frequency:    21.6393034858
  - # 7
    frequency:    31.6424126244
  - # 8
    frequency:    32.3070444839
  - # 9
    frequency:    40.7957188474
  - # 10
    frequency:    41.4011745679
  - # 11
    frequency:    41.5572157613
  - # 12
    frequency:    41.8491268485

- q-position: [   -0.5555556,    0.1111111,    0.3750000 ]
  weight: 8    
  band:
  - # 1
    frequency:    15.6358110386
  - # 2
    frequency:    16.0727059875
  - # 3
    frequency:    19.7490194885
  - # 4
    frequency:    20.2790105269
  - # 5
    frequency:    20.6905344727
  - # 6
    frequency:    21.5508824438
  - # 7
    frequency:    36.7059075800
  - # 8
    frequency:    36.7932324777
  - # 9
    frequency:    37.8696263696
  - # 10
    frequency:    38.5056586112
  - # 11
    frequency:    40.4192909217
  - # 12
    frequency:    41.0514482529

- q-position: [   -0.4444444,    0.1111111,    0.3750000 ]
  weight: 8    
  band:
  - # 1
    frequency:    14.8974225054
  - # 2
    frequency:    15.9927544965
  - # 3
    frequency:    18.3732007559
  - # 4
    frequency:    19.0155171916
  - # 5
    frequency:    21.2076901780
  - # 6
    frequency:    21.8553721495
  - # 7
    frequency:    31.6558243512
  - # 8
    frequency:    32.4861688467
  - # 9
    frequency:    40.7484963489
  - # 10
    frequency:    41.2389763665
  - # 11
    frequency:    41.6110184764
  - # 12
    frequency:    41.6949293402

- q-position: [   -0.3333333,    0.1111111,    0.3750000 ]
  weight: 8    
  band:
  - # 1
    frequency:    13.3039440842
  - # 2
    frequency:    13.9541928720
  - # 3
    frequency:    15.5372593471
  - # 4
    frequency:    16.5573758655
  - # 5
    frequency:    21.8621536506
  - # 6
    frequency:    22.8730608607
  - # 7
    frequency:    24.8872743642
  - # 8
    frequency:    25.8424542230
  - # 9
    frequency:    42.2983027321
  - # 10
    frequency:    43.1101755836
  - # 11
    frequency:    43.5416855517
  - # 12
    frequency:    43.8060805813

- q-position: [   -0.2222222,    0.1111111,    0.3750000 ]
  weight: 8    
  band:
  - # 1
    frequency:     8.8667147752
  - # 2
    frequency:    10.3480588231
  - # 3
    frequency:    12.1530477353
  - # 4
    frequency:    15.3852080422
  - # 5
    frequency:    17.6072173994
  - # 6
    frequency:    18.8555995477
  - # 7
    frequency:    22.4490120325
  - # 8
    frequency:    24.2981236935
  - # 9
    frequency:    43.5952534136
  - # 10
    frequency:    44.4165783984
  - # 11
    frequency:    44.6211915483
  - # 12
    frequency:    45.1763450457

- q-position: [   -0.1111111,    0.1111111,    0.3750000 ]
  weight: 4    
  band:
  - # 1
    frequency:     3.7306271125
  - # 2
    frequency:     6.7413564887
  - # 3
    frequency:     9.2359737462
  - # 4
    frequency:    10.2942126039
  - # 5
    frequency:    12.7809176298
  - # 6
    frequency:    16.8813258319
  - # 7
    frequency:    22.7803611641
  - # 8
    frequency:    25.0870800828
  - # 9
    frequency:    44.2897968582
  - # 10
    frequency:    44.7206596460
  - # 11
    frequency:    45.5551706059
  - # 12
    frequency:    45.7043645325

- q-position: [    0.2222222,    0.2222222,    0.3750000 ]
  weight: 4    
  band:
  - # 1
    frequency:    15.2082079698
  - # 2
    frequency:    15.9821004717
  - # 3
    frequency:    20.3063295916
  - # 4
    frequency:    20.3100563046
  - # 5
    frequency:    21.3356954127
  - # 6
    frequency:    21.4954463042
  - # 7
    frequency:    29.7904406874
  - # 8
    frequency:    29.8222045156
  - # 9
    frequency:    41.3442721502
  - # 10
    frequency:    41.5670339732
  - # 11
    frequency:    41.8219280703
  - # 12
    frequency:    42.1495629058

- q-position: [    0.3333333,    0.2222222,    0.3750000 ]
  weight: 8    
  band:
  - # 1
    frequency:    15.7102368208
  - # 2
    frequency:    16.0066074912
  - # 3
    frequency:    20.8578183827
  - # 4
    frequency:    21.2363584866
  - # 5
    frequency:    23.9229878786
  - # 6
    frequency:    24.3702692644
  - # 7
    frequency:    33.7610461602
  - # 8
    frequency:    34.1599808040
  - # 9
    frequency:    38.1636374770
  - # 10
    frequency:    38.4350344485
  - # 11
    frequency:    40.9757639308
  - # 12
    frequency:    41.3163448414

- q-position: [   -0.5555556,    0.2222222,    0.3750000 ]
  weight: 8    
  band:
  - # 1
    frequency:    15.3897401915
  - # 2
    frequency:    16.0077915053
  - # 3
    frequency:    20.9837987166
  - # 4
    frequency:    21.3565937536
  - # 5
    frequency:    23.8473955487
  - # 6
    frequency:    24.6881306207
  - # 7
    frequency:    33.8517223558
  - # 8
    frequency:    34.2632927101
  - # 9
    frequency:    37.9140807802
  - # 10
    frequency:    38.4417501376
  - # 11
    frequency:    41.0155323184
  - # 12
    frequency:    41.1723220212

- q-position: [   -0.4444444,    0.2222222,    0.3750000 ]
  weight: 8    
  band:
  - # 1
    frequency:    14.4760035088
  - # 2
    frequency:    15.8490017056
  - # 3
    frequency:    20.0089007494
  - # 4
    frequency:    20.8645139363
  - # 5
    frequency:    21.6475603517
  - # 6
    frequency:    22.0192495814
  - # 7
    frequency:    29.5679966832
  - # 8
    frequency:    30.3093447558
  - # 9
    frequency:    41.2160097869
  - # 10
    frequency:    41.4840032176
  - # 11
    frequency:    41.7418265866
  - # 12
    frequency:    41.9518203512

- q-position: [   -0.3333333,    0.2222222,    0.3750000 ]
  weight: 8    
  band:
  - # 1
    frequency:    12.9459023223
  - # 2
    frequency:    13.7859846015
  - # 3
    frequency:    15.6514801106
  - # 4
    frequency:    16.5479389166
  - # 5
    frequency:    22.0295362230
  - # 6
    frequency:    22.9253322388
  - # 7
    frequency:    25.0237165566
  - # 8
    frequency:    25.8589747382
  - # 9
    frequency:    42.5257804032
  - # 10
    frequency:    42.8751241414
  - # 11
    frequency:    43.4172804473
  - # 12
    frequency:    43.8425721335

- q-position: [   -0.2222222,    0.2222222,    0.3750000 ]
  weight: 4    
  band:
  - # 1
    frequency:     9.3121296240
  - # 2
    frequency:    11.6357366326
  - # 3
    frequency:    12.2995832014
  - # 4
    frequency:    15.8339166901
  - # 5
    frequency:    20.2712533201
  - # 6
    frequency:    21.0165250135
  - # 7
    frequency:    22.4333349764
  - # 8
    frequency:    24.0885656121
  - # 9
    frequency:    43.3090648534
  - # 10
    frequency:    43.9841192176
  - # 11
    frequency:    44.2623037717
  - # 12
    frequency:    44.9264595127

- q-position: [   -0.6666667,    0.3333333,    0.3750000 ]
  weight: 4    
  band:
  - # 1
    frequency:    15.6504479009
  - # 2
    frequency:    15.9908171654
  - # 3
    frequency:    20.9244529173
  - # 4
    frequency:    21.1276328688
  - # 5
    frequency:    27.7612244027
  - # 6
    frequency:    27.7880080720
  - # 7
    frequency:    34.3790799747
  - # 8
    frequency:    34.3917285769
  - # 9
    frequency:    35.9044191624
  - # 10
    frequency:    36.0484546256
  - # 11
    frequency:    41.0489770650
  - # 12
    frequency:    41.0891410309

- q-position: [   -0.5555556,    0.3333333,    0.3750000 ]
  weight: 8    
  band:
  - # 1
    frequency:    15.4137911719
  - # 2
    frequency:    16.0199778179
  - # 3
    frequency:    20.8831651848
  - # 4
    frequency:    21.4267761616
  - # 5
    frequency:    23.9850600290
  - # 6
    frequency:    24.6028830139
  - # 7
    frequency:    33.7959238979
  - # 8
    frequency:    34.2688196964
  - # 9
    frequency:    37.9311234897
  - # 10
    frequency:    38.4454127760
  - # 11
    frequency:    40.9271521638
  - # 12
    frequency:    41.2275222360

- q-position: [   -0.4444444,    0.3333333,    0.3750000 ]
  weight: 8    
  band:
  - # 1
    frequency:    14.7449192410
  - # 2
    frequency:    15.9476321778
  - # 3
    frequency:    18.1308981252
  - # 4
    frequency:    19.2182627713
  - # 5
    frequency:    21.3950377981
  - # 6
    frequency:    21.7973934627
  - # 7
    frequency:    31.7512433563
  - # 8
    frequency:    32.4790292391
  - # 9
    frequency:    40.8050472714
  - # 10
    frequency:    41.1549769590
  - # 11
    frequency:    41.5545942670
  - # 12
    frequency:    41.6812916360

- q-position: [   -0.3333333,    0.3333333,    0.3750000 ]
  weight: 4    
  band:
  - # 1
    frequency:    13.8577331336
  - # 2
    frequency:    13.9621158982
  - # 3
    frequency:    15.6785781198
  - # 4
    frequency:    16.2006371380
  - # 5
    frequency:    21.8586808392
  - # 6
    frequency:    22.4131533316
  - # 7
    frequency:    28.4409538743
  - # 8
    frequency:    29.2491744274
  - # 9
    frequency:    41.7743596345
  - # 10
    frequency:    42.1525448203
  - # 11
    frequency:    42.8883078566
  - # 12
    frequency:    43.2831092384

- q-position: [   -0.5555556,    0.4444444,    0.3750000 ]
  weight: 4    
  band:
  - # 1
    frequency:    15.6224135759
  - # 2
    frequency:    16.0827499743
  - # 3
    frequency:    19.9476574878
  - # 4
    frequency:    20.1465074791
  - # 5
    frequency:    20.6384989274
  - # 6
    frequency:    21.5982638961
  - # 7
    frequency:    36.7167548784
  - # 8
    frequency:    36.7924730731
  - # 9
    frequency:    37.8613044666
  - # 10
    frequency:    38.5015352221
  - # 11
    frequency:    40.3350618461
  - # 12
    frequency:    41.0402627332

- q-position: [   -0.4444444,    0.4444444,    0.3750000 ]
  weight: 4    
  band:
  - # 1
    frequency:    15.4466480237
  - # 2
    frequency:    16.2254738492
  - # 3
    frequency:    17.0044879266
  - # 4
    frequency:    17.7504053249
  - # 5
    frequency:    20.8590617795
  - # 6
    frequency:    21.7042392042
  - # 7
    frequency:    34.9643186598
  - # 8
    frequency:    35.6244696743
  - # 9
    frequency:    39.9857692672
  - # 10
    frequency:    40.2528656652
  - # 11
    frequency:    40.5223831820
  - # 12
    frequency:    41.0838517301

