# Thermal properties / unit cell (natom)

unit:
  temperature:   K
  free_energy:   kJ/mol
  entropy:       J/K/mol
  heat_capacity: J/K/mol

natom:     4
num_modes: 3888
num_integrated_modes: 3868

zero_point_energy:      66.5061517
high_T_entropy:        227.6764302

thermal_properties:
- temperature:         0.0000000
  free_energy:        66.5061517
  entropy:             0.0000000
  heat_capacity:       0.0000000
  energy:             66.5061517

- temperature:        10.0000000
  free_energy:        66.5061463
  entropy:             0.0040293
  heat_capacity:       0.0228268
  energy:             66.5061866

- temperature:        20.0000000
  free_energy:        66.5058523
  entropy:             0.0670575
  heat_capacity:       0.1898044
  energy:             66.5071934

- temperature:        30.0000000
  free_energy:        66.5046511
  entropy:             0.1775950
  heat_capacity:       0.3665287
  energy:             66.5099789

- temperature:        40.0000000
  free_energy:        66.5022343
  entropy:             0.3087706
  heat_capacity:       0.5613871
  energy:             66.5145851

- temperature:        50.0000000
  free_energy:        66.4984098
  entropy:             0.4599110
  heat_capacity:       0.8157647
  energy:             66.5214054

- temperature:        60.0000000
  free_energy:        66.4929467
  entropy:             0.6379227
  heat_capacity:       1.1663922
  energy:             66.5312220

- temperature:        70.0000000
  free_energy:        66.4855319
  entropy:             0.8517385
  heat_capacity:       1.6427379
  energy:             66.5451536

- temperature:        80.0000000
  free_energy:        66.4757639
  entropy:             1.1099063
  heat_capacity:       2.2625778
  energy:             66.5645564

- temperature:        90.0000000
  free_energy:        66.4631626
  entropy:             1.4193747
  heat_capacity:       3.0324586
  energy:             66.5909063

- temperature:       100.0000000
  free_energy:        66.4471886
  entropy:             1.7851003
  heat_capacity:       3.9500538
  energy:             66.6256987

- temperature:       110.0000000
  free_energy:        66.4272629
  entropy:             2.2100678
  heat_capacity:       5.0063845
  energy:             66.6703704

- temperature:       120.0000000
  free_energy:        66.4027856
  entropy:             2.6954811
  heat_capacity:       6.1877172
  energy:             66.7262434

- temperature:       130.0000000
  free_energy:        66.3731527
  entropy:             3.2410233
  heat_capacity:       7.4773160
  energy:             66.7944858

- temperature:       140.0000000
  free_energy:        66.3377698
  entropy:             3.8451455
  heat_capacity:       8.8570625
  energy:             66.8760902

- temperature:       150.0000000
  free_energy:        66.2960628
  entropy:             4.5053615
  heat_capacity:      10.3088432
  energy:             66.9718670

- temperature:       160.0000000
  free_energy:        66.2474860
  entropy:             5.2185255
  heat_capacity:      11.8156071
  energy:             67.0824501

- temperature:       170.0000000
  free_energy:        66.1915276
  entropy:             5.9810800
  heat_capacity:      13.3620593
  energy:             67.2083112

- temperature:       180.0000000
  free_energy:        66.1277123
  entropy:             6.7892615
  heat_capacity:      14.9350178
  energy:             67.3497794

- temperature:       190.0000000
  free_energy:        66.0556030
  entropy:             7.6392636
  heat_capacity:      16.5234994
  energy:             67.5070631

- temperature:       200.0000000
  free_energy:        65.9748001
  entropy:             8.5273559
  heat_capacity:      18.1186136
  energy:             67.6802713

- temperature:       210.0000000
  free_energy:        65.8849408
  entropy:             9.4499669
  heat_capacity:      19.7133390
  energy:             67.8694339

- temperature:       220.0000000
  free_energy:        65.7856969
  entropy:            10.4037345
  heat_capacity:      21.3022431
  energy:             68.0745185

- temperature:       230.0000000
  free_energy:        65.6767727
  entropy:            11.3855335
  heat_capacity:      22.8811909
  energy:             68.2954454

- temperature:       240.0000000
  free_energy:        65.5579025
  entropy:            12.3924843
  heat_capacity:      24.4470686
  energy:             68.5320987

- temperature:       250.0000000
  free_energy:        65.4288480
  entropy:            13.4219495
  heat_capacity:      25.9975426
  energy:             68.7843354

- temperature:       260.0000000
  free_energy:        65.2893965
  entropy:            14.4715224
  heat_capacity:      27.5308564
  energy:             69.0519923

- temperature:       270.0000000
  free_energy:        65.1393579
  entropy:            15.5390109
  heat_capacity:      29.0456694
  energy:             69.3348908

- temperature:       280.0000000
  free_energy:        64.9785632
  entropy:            16.6224189
  heat_capacity:      30.5409330
  energy:             69.6328405

- temperature:       290.0000000
  free_energy:        64.8068625
  entropy:            17.7199275
  heat_capacity:      32.0157991
  energy:             69.9456415

- temperature:       300.0000000
  free_energy:        64.6241232
  entropy:            18.8298763
  heat_capacity:      33.4695554
  energy:             70.2730861

- temperature:       310.0000000
  free_energy:        64.4302286
  entropy:            19.9507469
  heat_capacity:      34.9015815
  energy:             70.6149601

- temperature:       320.0000000
  free_energy:        64.2250765
  entropy:            21.0811467
  heat_capacity:      36.3113220
  energy:             70.9710434

- temperature:       330.0000000
  free_energy:        64.0085782
  entropy:            22.2197952
  heat_capacity:      37.6982704
  energy:             71.3411106

- temperature:       340.0000000
  free_energy:        63.7806571
  entropy:            23.3655125
  heat_capacity:      39.0619612
  energy:             71.7249313

- temperature:       350.0000000
  free_energy:        63.5412480
  entropy:            24.5172082
  heat_capacity:      40.4019679
  energy:             72.1222709

- temperature:       360.0000000
  free_energy:        63.2902963
  entropy:            25.6738725
  heat_capacity:      41.7179038
  energy:             72.5328904

- temperature:       370.0000000
  free_energy:        63.0277571
  entropy:            26.8345688
  heat_capacity:      43.0094247
  energy:             72.9565476

- temperature:       380.0000000
  free_energy:        62.7535944
  entropy:            27.9984266
  heat_capacity:      44.2762317
  energy:             73.3929965

- temperature:       390.0000000
  free_energy:        62.4677807
  entropy:            29.1646365
  heat_capacity:      45.5180750
  energy:             73.8419890

- temperature:       400.0000000
  free_energy:        62.1702964
  entropy:            30.3324445
  heat_capacity:      46.7347561
  energy:             74.3032742

- temperature:       410.0000000
  free_energy:        61.8611289
  entropy:            31.5011484
  heat_capacity:      47.9261294
  energy:             74.7765997

- temperature:       420.0000000
  free_energy:        61.5402726
  entropy:            32.6700940
  heat_capacity:      49.0921033
  energy:             75.2617121

- temperature:       430.0000000
  free_energy:        61.2077282
  entropy:            33.8386716
  heat_capacity:      50.2326404
  energy:             75.7583570

- temperature:       440.0000000
  free_energy:        60.8635023
  entropy:            35.0063133
  heat_capacity:      51.3477562
  energy:             76.2662801

- temperature:       450.0000000
  free_energy:        60.5076069
  entropy:            36.1724906
  heat_capacity:      52.4375177
  energy:             76.7852276

- temperature:       460.0000000
  free_energy:        60.1400590
  entropy:            37.3367116
  heat_capacity:      53.5020415
  energy:             77.3149464

- temperature:       470.0000000
  free_energy:        59.7608807
  entropy:            38.4985195
  heat_capacity:      54.5414904
  energy:             77.8551848

- temperature:       480.0000000
  free_energy:        59.3700981
  entropy:            39.6574900
  heat_capacity:      55.5560713
  energy:             78.4056933

- temperature:       490.0000000
  free_energy:        58.9677416
  entropy:            40.8132297
  heat_capacity:      56.5460311
  energy:             78.9662242

- temperature:       500.0000000
  free_energy:        58.5538455
  entropy:            41.9653746
  heat_capacity:      57.5116536
  energy:             79.5365328

- temperature:       510.0000000
  free_energy:        58.1284473
  entropy:            43.1135881
  heat_capacity:      58.4532557
  energy:             80.1163772

- temperature:       520.0000000
  free_energy:        57.6915879
  entropy:            44.2575598
  heat_capacity:      59.3711843
  energy:             80.7055190

- temperature:       530.0000000
  free_energy:        57.2433112
  entropy:            45.3970039
  heat_capacity:      60.2658122
  energy:             81.3037232

- temperature:       540.0000000
  free_energy:        56.7836637
  entropy:            46.5316576
  heat_capacity:      61.1375352
  energy:             81.9107589

- temperature:       550.0000000
  free_energy:        56.3126948
  entropy:            47.6612803
  heat_capacity:      61.9867686
  energy:             82.5263989

- temperature:       560.0000000
  free_energy:        55.8304556
  entropy:            48.7856519
  heat_capacity:      62.8139442
  energy:             83.1504207

- temperature:       570.0000000
  free_energy:        55.3369999
  entropy:            49.9045717
  heat_capacity:      63.6195072
  energy:             83.7826058

- temperature:       580.0000000
  free_energy:        54.8323830
  entropy:            51.0178575
  heat_capacity:      64.4039139
  energy:             84.4227403

- temperature:       590.0000000
  free_energy:        54.3166621
  entropy:            52.1253441
  heat_capacity:      65.1676288
  energy:             85.0706151

- temperature:       600.0000000
  free_energy:        53.7898959
  entropy:            53.2268826
  heat_capacity:      65.9111223
  energy:             85.7260255

- temperature:       610.0000000
  free_energy:        53.2521447
  entropy:            54.3223393
  heat_capacity:      66.6348689
  energy:             86.3887717

- temperature:       620.0000000
  free_energy:        52.7034698
  entropy:            55.4115949
  heat_capacity:      67.3393452
  energy:             87.0586586

- temperature:       630.0000000
  free_energy:        52.1439338
  entropy:            56.4945431
  heat_capacity:      68.0250278
  energy:             87.7354960

- temperature:       640.0000000
  free_energy:        51.5736003
  entropy:            57.5710904
  heat_capacity:      68.6923924
  energy:             88.4190981

- temperature:       650.0000000
  free_energy:        50.9925336
  entropy:            58.6411549
  heat_capacity:      69.3419119
  energy:             89.1092843

- temperature:       660.0000000
  free_energy:        50.4007991
  entropy:            59.7046658
  heat_capacity:      69.9740553
  energy:             89.8058785

- temperature:       670.0000000
  free_energy:        49.7984624
  entropy:            60.7615622
  heat_capacity:      70.5892869
  energy:             90.5087091

- temperature:       680.0000000
  free_energy:        49.1855900
  entropy:            61.8117931
  heat_capacity:      71.1880651
  energy:             91.2176094

- temperature:       690.0000000
  free_energy:        48.5622489
  entropy:            62.8553162
  heat_capacity:      71.7708417
  energy:             91.9324170

- temperature:       700.0000000
  free_energy:        47.9285062
  entropy:            63.8920974
  heat_capacity:      72.3380612
  energy:             92.6529743

- temperature:       710.0000000
  free_energy:        47.2844295
  entropy:            64.9221104
  heat_capacity:      72.8901603
  energy:             93.3791279

- temperature:       720.0000000
  free_energy:        46.6300866
  entropy:            65.9453361
  heat_capacity:      73.4275673
  energy:             94.1107286

- temperature:       730.0000000
  free_energy:        45.9655454
  entropy:            66.9617619
  heat_capacity:      73.9507017
  energy:             94.8476316

- temperature:       740.0000000
  free_energy:        45.2908740
  entropy:            67.9713816
  heat_capacity:      74.4599741
  energy:             95.5896964

- temperature:       750.0000000
  free_energy:        44.6061405
  entropy:            68.9741943
  heat_capacity:      74.9557858
  energy:             96.3367862

- temperature:       760.0000000
  free_energy:        43.9114128
  entropy:            69.9702049
  heat_capacity:      75.4385285
  energy:             97.0887685

- temperature:       770.0000000
  free_energy:        43.2067590
  entropy:            70.9594227
  heat_capacity:      75.9085844
  energy:             97.8455145

- temperature:       780.0000000
  free_energy:        42.4922470
  entropy:            71.9418618
  heat_capacity:      76.3663261
  energy:             98.6068992

- temperature:       790.0000000
  free_energy:        41.7679443
  entropy:            72.9175403
  heat_capacity:      76.8121163
  energy:             99.3728012

- temperature:       800.0000000
  free_energy:        41.0339186
  entropy:            73.8864803
  heat_capacity:      77.2463082
  energy:            100.1431029

- temperature:       810.0000000
  free_energy:        40.2902371
  entropy:            74.8487071
  heat_capacity:      77.6692453
  energy:            100.9176899

- temperature:       820.0000000
  free_energy:        39.5369668
  entropy:            75.8042495
  heat_capacity:      78.0812616
  energy:            101.6964514

- temperature:       830.0000000
  free_energy:        38.7741743
  entropy:            76.7531391
  heat_capacity:      78.4826815
  energy:            102.4792798

- temperature:       840.0000000
  free_energy:        38.0019260
  entropy:            77.6954103
  heat_capacity:      78.8738201
  energy:            103.2660707

- temperature:       850.0000000
  free_energy:        37.2202880
  entropy:            78.6310999
  heat_capacity:      79.2549835
  energy:            104.0567229

- temperature:       860.0000000
  free_energy:        36.4293259
  entropy:            79.5602468
  heat_capacity:      79.6264683
  energy:            104.8511381

- temperature:       870.0000000
  free_energy:        35.6291048
  entropy:            80.4828922
  heat_capacity:      79.9885627
  energy:            105.6492210

- temperature:       880.0000000
  free_energy:        34.8196895
  entropy:            81.3990789
  heat_capacity:      80.3415459
  energy:            106.4508790

- temperature:       890.0000000
  free_energy:        34.0011446
  entropy:            82.3088515
  heat_capacity:      80.6856885
  energy:            107.2560224

- temperature:       900.0000000
  free_energy:        33.1735337
  entropy:            83.2122561
  heat_capacity:      81.0212531
  energy:            108.0645642

- temperature:       910.0000000
  free_energy:        32.3369205
  entropy:            84.1093398
  heat_capacity:      81.3484940
  energy:            108.8764198

- temperature:       920.0000000
  free_energy:        31.4913679
  entropy:            85.0001514
  heat_capacity:      81.6676574
  energy:            109.6915071

- temperature:       930.0000000
  free_energy:        30.6369382
  entropy:            85.8847404
  heat_capacity:      81.9789819
  energy:            110.5097468

- temperature:       940.0000000
  free_energy:        29.7736936
  entropy:            86.7631572
  heat_capacity:      82.2826989
  energy:            111.3310614

- temperature:       950.0000000
  free_energy:        28.9016955
  entropy:            87.6354533
  heat_capacity:      82.5790319
  energy:            112.1553761

- temperature:       960.0000000
  free_energy:        28.0210048
  entropy:            88.5016806
  heat_capacity:      82.8681978
  energy:            112.9826182

- temperature:       970.0000000
  free_energy:        27.1316819
  entropy:            89.3618917
  heat_capacity:      83.1504062
  energy:            113.8127169

- temperature:       980.0000000
  free_energy:        26.2337868
  entropy:            90.2161398
  heat_capacity:      83.4258604
  energy:            114.6456038

- temperature:       990.0000000
  free_energy:        25.3273788
  entropy:            91.0644782
  heat_capacity:      83.6947570
  energy:            115.4812123

- temperature:      1000.0000000
  free_energy:        24.4125168
  entropy:            91.9069609
  heat_capacity:      83.9572861
  energy:            116.3194777
