# Thermal properties / unit cell (natom)

unit:
  temperature:   K
  free_energy:   kJ/mol
  entropy:       J/K/mol
  heat_capacity: J/K/mol

natom:     4
num_modes: 3888
num_integrated_modes: 3876

zero_point_energy:      65.7001752
high_T_entropy:        227.1027513

thermal_properties:
- temperature:         0.0000000
  free_energy:        65.7001752
  entropy:             0.0000000
  heat_capacity:       0.0000000
  energy:             65.7001752

- temperature:        10.0000000
  free_energy:        65.7001657
  entropy:             0.0048971
  heat_capacity:       0.0172001
  energy:             65.7002147

- temperature:        20.0000000
  free_energy:        65.6999892
  entropy:             0.0342463
  heat_capacity:       0.0808710
  energy:             65.7006741

- temperature:        30.0000000
  free_energy:        65.6994100
  entropy:             0.0850130
  heat_capacity:       0.1831346
  energy:             65.7019604

- temperature:        40.0000000
  free_energy:        65.6982193
  entropy:             0.1567589
  heat_capacity:       0.3313440
  energy:             65.7044896

- temperature:        50.0000000
  free_energy:        65.6961979
  entropy:             0.2516005
  heat_capacity:       0.5367749
  energy:             65.7087779

- temperature:        60.0000000
  free_energy:        65.6931001
  entropy:             0.3726230
  heat_capacity:       0.8121378
  energy:             65.7154575

- temperature:        70.0000000
  free_energy:        65.6886449
  entropy:             0.5238544
  heat_capacity:       1.1758403
  energy:             65.7253147

- temperature:        80.0000000
  free_energy:        65.6825051
  entropy:             0.7104701
  heat_capacity:       1.6500123
  energy:             65.7393428

- temperature:        90.0000000
  free_energy:        65.6742979
  entropy:             0.9383677
  heat_capacity:       2.2547495
  energy:             65.7587509

- temperature:       100.0000000
  free_energy:        65.6635807
  entropy:             1.2133739
  heat_capacity:       3.0032716
  energy:             65.7849181

- temperature:       110.0000000
  free_energy:        65.6498565
  entropy:             1.5404937
  heat_capacity:       3.8998368
  energy:             65.8193108

- temperature:       120.0000000
  free_energy:        65.6325846
  entropy:             1.9234170
  heat_capacity:       4.9401330
  energy:             65.8633946

- temperature:       130.0000000
  free_energy:        65.6111947
  entropy:             2.3643195
  heat_capacity:       6.1131223
  energy:             65.9185563

- temperature:       140.0000000
  free_energy:        65.5851025
  entropy:             2.8638982
  heat_capacity:       7.4033841
  energy:             65.9860482

- temperature:       150.0000000
  free_energy:        65.5537231
  entropy:             3.4215547
  heat_capacity:       8.7933286
  energy:             66.0669563

- temperature:       160.0000000
  free_energy:        65.5164832
  entropy:             4.0356491
  heat_capacity:      10.2649682
  energy:             66.1621870

- temperature:       170.0000000
  free_energy:        65.4728299
  entropy:             4.7037687
  heat_capacity:      11.8011564
  energy:             66.2724706

- temperature:       180.0000000
  free_energy:        65.4222375
  entropy:             5.4229765
  heat_capacity:      13.3863363
  energy:             66.3983732

- temperature:       190.0000000
  free_energy:        65.3642109
  entropy:             6.1900216
  heat_capacity:      15.0068955
  energy:             66.5403151

- temperature:       200.0000000
  free_energy:        65.2982889
  entropy:             7.0015066
  heat_capacity:      16.6512407
  energy:             66.6985902

- temperature:       210.0000000
  free_energy:        65.2240441
  entropy:             7.8540125
  heat_capacity:      18.3096934
  energy:             66.8733867

- temperature:       220.0000000
  free_energy:        65.1410831
  entropy:             8.7441877
  heat_capacity:      19.9742855
  energy:             67.0648044

- temperature:       230.0000000
  free_energy:        65.0490455
  entropy:             9.6688067
  heat_capacity:      21.6385148
  energy:             67.2728711

- temperature:       240.0000000
  free_energy:        64.9476024
  entropy:            10.6248057
  heat_capacity:      23.2970970
  energy:             67.4975558

- temperature:       250.0000000
  free_energy:        64.8364545
  entropy:            11.6093013
  heat_capacity:      24.9457371
  energy:             67.7387798

- temperature:       260.0000000
  free_energy:        64.7153304
  entropy:            12.6195970
  heat_capacity:      26.5809308
  energy:             67.9964256

- temperature:       270.0000000
  free_energy:        64.5839849
  entropy:            13.6531816
  heat_capacity:      28.1998002
  energy:             68.2703439

- temperature:       280.0000000
  free_energy:        64.4421969
  entropy:            14.7077225
  heat_capacity:      29.7999616
  energy:             68.5603592

- temperature:       290.0000000
  free_energy:        64.2897678
  entropy:            15.7810562
  heat_capacity:      31.3794233
  energy:             68.8662741

- temperature:       300.0000000
  free_energy:        64.1265199
  entropy:            16.8711773
  heat_capacity:      32.9365070
  energy:             69.1878731

- temperature:       310.0000000
  free_energy:        63.9522945
  entropy:            17.9762270
  heat_capacity:      34.4697901
  energy:             69.5249249

- temperature:       320.0000000
  free_energy:        63.7669513
  entropy:            19.0944817
  heat_capacity:      35.9780625
  energy:             69.8771855

- temperature:       330.0000000
  free_energy:        63.5703662
  entropy:            20.2243428
  heat_capacity:      37.4602954
  energy:             70.2443993

- temperature:       340.0000000
  free_energy:        63.3624307
  entropy:            21.3643263
  heat_capacity:      38.9156189
  energy:             70.6263017

- temperature:       350.0000000
  free_energy:        63.1430506
  entropy:            22.5130543
  heat_capacity:      40.3433051
  energy:             71.0226196

- temperature:       360.0000000
  free_energy:        62.9121448
  entropy:            23.6692468
  heat_capacity:      41.7427551
  energy:             71.4330736

- temperature:       370.0000000
  free_energy:        62.6696447
  entropy:            24.8317141
  heat_capacity:      43.1134896
  energy:             71.8573790

- temperature:       380.0000000
  free_energy:        62.4154933
  entropy:            25.9993505
  heat_capacity:      44.4551402
  energy:             72.2952465

- temperature:       390.0000000
  free_energy:        62.1496439
  entropy:            27.1711282
  heat_capacity:      45.7674421
  energy:             72.7463839

- temperature:       400.0000000
  free_energy:        61.8720601
  entropy:            28.3460920
  heat_capacity:      47.0502274
  energy:             73.2104969

- temperature:       410.0000000
  free_energy:        61.5827144
  entropy:            29.5233546
  heat_capacity:      48.3034186
  energy:             73.6872898

- temperature:       420.0000000
  free_energy:        61.2815881
  entropy:            30.7020918
  heat_capacity:      49.5270222
  energy:             74.1764666

- temperature:       430.0000000
  free_energy:        60.9686702
  entropy:            31.8815388
  heat_capacity:      50.7211219
  energy:             74.6777319

- temperature:       440.0000000
  free_energy:        60.6439573
  entropy:            33.0609862
  heat_capacity:      51.8858730
  energy:             75.1907912

- temperature:       450.0000000
  free_energy:        60.3074527
  entropy:            34.2397768
  heat_capacity:      53.0214953
  energy:             75.7153523

- temperature:       460.0000000
  free_energy:        59.9591660
  entropy:            35.4173021
  heat_capacity:      54.1282676
  energy:             76.2511250

- temperature:       470.0000000
  free_energy:        59.5991128
  entropy:            36.5929995
  heat_capacity:      55.2065210
  energy:             76.7978225

- temperature:       480.0000000
  free_energy:        59.2273138
  entropy:            37.7663495
  heat_capacity:      56.2566338
  energy:             77.3551616

- temperature:       490.0000000
  free_energy:        58.8437952
  entropy:            38.9368727
  heat_capacity:      57.2790248
  energy:             77.9228628

- temperature:       500.0000000
  free_energy:        58.4485873
  entropy:            40.1041278
  heat_capacity:      58.2741490
  energy:             78.5006512

- temperature:       510.0000000
  free_energy:        58.0417249
  entropy:            41.2677091
  heat_capacity:      59.2424919
  energy:             79.0882565

- temperature:       520.0000000
  free_energy:        57.6232466
  entropy:            42.4272440
  heat_capacity:      60.1845648
  energy:             79.6854135

- temperature:       530.0000000
  free_energy:        57.1931946
  entropy:            43.5823913
  heat_capacity:      61.1009006
  energy:             80.2918620

- temperature:       540.0000000
  free_energy:        56.7516144
  entropy:            44.7328390
  heat_capacity:      61.9920493
  energy:             80.9073475

- temperature:       550.0000000
  free_energy:        56.2985545
  entropy:            45.8783026
  heat_capacity:      62.8585748
  energy:             81.5316209

- temperature:       560.0000000
  free_energy:        55.8340659
  entropy:            47.0185232
  heat_capacity:      63.7010508
  energy:             82.1644389

- temperature:       570.0000000
  free_energy:        55.3582023
  entropy:            48.1532657
  heat_capacity:      64.5200582
  energy:             82.8055637

- temperature:       580.0000000
  free_energy:        54.8710195
  entropy:            49.2823176
  heat_capacity:      65.3161820
  energy:             83.4547637

- temperature:       590.0000000
  free_energy:        54.3725755
  entropy:            50.4054873
  heat_capacity:      66.0900091
  energy:             84.1118130

- temperature:       600.0000000
  free_energy:        53.8629300
  entropy:            51.5226026
  heat_capacity:      66.8421255
  energy:             84.7764915

- temperature:       610.0000000
  free_energy:        53.3421442
  entropy:            52.6335098
  heat_capacity:      67.5731148
  energy:             85.4485851

- temperature:       620.0000000
  free_energy:        52.8102809
  entropy:            53.7380717
  heat_capacity:      68.2835563
  energy:             86.1278854

- temperature:       630.0000000
  free_energy:        52.2674043
  entropy:            54.8361673
  heat_capacity:      68.9740233
  energy:             86.8141897

- temperature:       640.0000000
  free_energy:        51.7135795
  entropy:            55.9276901
  heat_capacity:      69.6450823
  energy:             87.5073011

- temperature:       650.0000000
  free_energy:        51.1488727
  entropy:            57.0125473
  heat_capacity:      70.2972911
  energy:             88.2070285

- temperature:       660.0000000
  free_energy:        50.5733510
  entropy:            58.0906590
  heat_capacity:      70.9311986
  energy:             88.9131859

- temperature:       670.0000000
  free_energy:        49.9870822
  entropy:            59.1619567
  heat_capacity:      71.5473433
  energy:             89.6255932

- temperature:       680.0000000
  free_energy:        49.3901348
  entropy:            60.2263832
  heat_capacity:      72.1462532
  energy:             90.3440754

- temperature:       690.0000000
  free_energy:        48.7825776
  entropy:            61.2838912
  heat_capacity:      72.7284450
  energy:             91.0684626

- temperature:       700.0000000
  free_energy:        48.1644802
  entropy:            62.3344429
  heat_capacity:      73.2944236
  energy:             91.7985902

- temperature:       710.0000000
  free_energy:        47.5359121
  entropy:            63.3780093
  heat_capacity:      73.8446822
  energy:             92.5342986

- temperature:       720.0000000
  free_energy:        46.8969433
  entropy:            64.4145691
  heat_capacity:      74.3797013
  energy:             93.2754331

- temperature:       730.0000000
  free_energy:        46.2476441
  entropy:            65.4441087
  heat_capacity:      74.8999493
  energy:             94.0218434

- temperature:       740.0000000
  free_energy:        45.5880846
  entropy:            66.4666213
  heat_capacity:      75.4058820
  energy:             94.7733843

- temperature:       750.0000000
  free_energy:        44.9183351
  entropy:            67.4821063
  heat_capacity:      75.8979427
  energy:             95.5299148

- temperature:       760.0000000
  free_energy:        44.2384659
  entropy:            68.4905691
  heat_capacity:      76.3765622
  energy:             96.2912984

- temperature:       770.0000000
  free_energy:        43.5485471
  entropy:            69.4920203
  heat_capacity:      76.8421588
  energy:             97.0574027

- temperature:       780.0000000
  free_energy:        42.8486488
  entropy:            70.4864753
  heat_capacity:      77.2951385
  energy:             97.8280995

- temperature:       790.0000000
  free_energy:        42.1388408
  entropy:            71.4739543
  heat_capacity:      77.7358953
  energy:             98.6032647

- temperature:       800.0000000
  free_energy:        41.4191929
  entropy:            72.4544814
  heat_capacity:      78.1648111
  energy:             99.3827779

- temperature:       810.0000000
  free_energy:        40.6897743
  entropy:            73.4280845
  heat_capacity:      78.5822558
  energy:            100.1665227

- temperature:       820.0000000
  free_energy:        39.9506542
  entropy:            74.3947950
  heat_capacity:      78.9885880
  energy:            100.9543860

- temperature:       830.0000000
  free_energy:        39.2019012
  entropy:            75.3546474
  heat_capacity:      79.3841549
  energy:            101.7462586

- temperature:       840.0000000
  free_energy:        38.4435839
  entropy:            76.3076791
  heat_capacity:      79.7692926
  energy:            102.5420344

- temperature:       850.0000000
  free_energy:        37.6757703
  entropy:            77.2539300
  heat_capacity:      80.1443263
  energy:            103.3416107

- temperature:       860.0000000
  free_energy:        36.8985278
  entropy:            78.1934424
  heat_capacity:      80.5095707
  energy:            104.1448883

- temperature:       870.0000000
  free_energy:        36.1119237
  entropy:            79.1262607
  heat_capacity:      80.8653302
  energy:            104.9517705

- temperature:       880.0000000
  free_energy:        35.3160247
  entropy:            80.0524312
  heat_capacity:      81.2118993
  energy:            105.7621642

- temperature:       890.0000000
  free_energy:        34.5108971
  entropy:            80.9720020
  heat_capacity:      81.5495626
  energy:            106.5759788

- temperature:       900.0000000
  free_energy:        33.6966065
  entropy:            81.8850224
  heat_capacity:      81.8785953
  energy:            107.3931267

- temperature:       910.0000000
  free_energy:        32.8732183
  entropy:            82.7915435
  heat_capacity:      82.1992634
  energy:            108.2135229

- temperature:       920.0000000
  free_energy:        32.0407972
  entropy:            83.6916172
  heat_capacity:      82.5118242
  energy:            109.0370850

- temperature:       930.0000000
  free_energy:        31.1994073
  entropy:            84.5852966
  heat_capacity:      82.8165261
  energy:            109.8637332

- temperature:       940.0000000
  free_energy:        30.3491124
  entropy:            85.4726359
  heat_capacity:      83.1136093
  energy:            110.6933901

- temperature:       950.0000000
  free_energy:        29.4899755
  entropy:            86.3536897
  heat_capacity:      83.4033060
  energy:            111.5259807

- temperature:       960.0000000
  free_energy:        28.6220593
  entropy:            87.2285135
  heat_capacity:      83.6858403
  energy:            112.3614323

- temperature:       970.0000000
  free_energy:        27.7454258
  entropy:            88.0971634
  heat_capacity:      83.9614291
  energy:            113.1996744

- temperature:       980.0000000
  free_energy:        26.8601365
  entropy:            88.9596959
  heat_capacity:      84.2302818
  energy:            114.0406385

- temperature:       990.0000000
  free_energy:        25.9662521
  entropy:            89.8161678
  heat_capacity:      84.4926006
  energy:            114.8842582

- temperature:      1000.0000000
  free_energy:        25.0638331
  entropy:            90.6666362
  heat_capacity:      84.7485812
  energy:            115.7304693
