# Thermal properties / unit cell (natom)

unit:
  temperature:   K
  free_energy:   kJ/mol
  entropy:       J/K/mol
  heat_capacity: J/K/mol

natom:     4
num_modes: 3888
num_integrated_modes: 2600

zero_point_energy:      22.2477816
high_T_entropy:        194.5037280

thermal_properties:
- temperature:         0.0000000
  free_energy:        22.2477816
  entropy:             0.0000000
  heat_capacity:       0.0000000
  energy:             22.2477816

- temperature:        10.0000000
  free_energy:        22.2477814
  entropy:             0.0002295
  heat_capacity:       0.0020645
  energy:             22.2477837

- temperature:        20.0000000
  free_energy:        22.2477168
  entropy:             0.0202887
  heat_capacity:       0.0928301
  energy:             22.2481225

- temperature:        30.0000000
  free_energy:        22.2471713
  entropy:             0.1001996
  heat_capacity:       0.3439197
  energy:             22.2501773

- temperature:        40.0000000
  free_energy:        22.2454743
  entropy:             0.2516662
  heat_capacity:       0.7579591
  energy:             22.2555410

- temperature:        50.0000000
  free_energy:        22.2418758
  entropy:             0.4818070
  heat_capacity:       1.3606456
  energy:             22.2659662

- temperature:        60.0000000
  free_energy:        22.2355496
  entropy:             0.7984887
  heat_capacity:       2.1746874
  energy:             22.2834589

- temperature:        70.0000000
  free_energy:        22.2255932
  entropy:             1.2089884
  heat_capacity:       3.2173240
  energy:             22.3102224

- temperature:        80.0000000
  free_energy:        22.2110358
  entropy:             1.7196491
  heat_capacity:       4.5002767
  energy:             22.3486078

- temperature:        90.0000000
  free_energy:        22.1908498
  entropy:             2.3353621
  heat_capacity:       6.0240173
  energy:             22.4010324

- temperature:       100.0000000
  free_energy:        22.1639694
  entropy:             3.0587237
  heat_capacity:       7.7733489
  energy:             22.4698418

- temperature:       110.0000000
  free_energy:        22.1293173
  entropy:             3.8894055
  heat_capacity:       9.7180761
  energy:             22.5571519

- temperature:       120.0000000
  free_energy:        22.0858345
  entropy:             4.8240434
  heat_capacity:      11.8175693
  energy:             22.6647197

- temperature:       130.0000000
  free_energy:        22.0325098
  entropy:             5.8566033
  heat_capacity:      14.0265642
  energy:             22.7938682

- temperature:       140.0000000
  free_energy:        21.9684027
  entropy:             6.9790243
  heat_capacity:      16.3002458
  energy:             22.9454661

- temperature:       150.0000000
  free_energy:        21.8926609
  entropy:             8.1819406
  heat_capacity:      18.5977913
  energy:             23.1199520

- temperature:       160.0000000
  free_energy:        21.8045290
  entropy:             9.4553474
  heat_capacity:      20.8843317
  energy:             23.3173845

- temperature:       170.0000000
  free_energy:        21.7033527
  entropy:            10.7891440
  heat_capacity:      23.1316567
  energy:             23.5375072

- temperature:       180.0000000
  free_energy:        21.5885775
  entropy:            12.1735361
  heat_capacity:      25.3180747
  energy:             23.7798140

- temperature:       190.0000000
  free_energy:        21.4597441
  entropy:            13.5993068
  heat_capacity:      27.4277844
  energy:             24.0436124

- temperature:       200.0000000
  free_energy:        21.3164818
  entropy:            15.0579794
  heat_capacity:      29.4500236
  energy:             24.3280777

- temperature:       210.0000000
  free_energy:        21.1585005
  entropy:            16.5418971
  heat_capacity:      31.3781657
  energy:             24.6322988

- temperature:       220.0000000
  free_energy:        20.9855825
  entropy:            18.0442426
  heat_capacity:      33.2088656
  energy:             24.9553159

- temperature:       230.0000000
  free_energy:        20.7975743
  entropy:            19.5590181
  heat_capacity:      34.9413043
  energy:             25.2961484

- temperature:       240.0000000
  free_energy:        20.5943782
  entropy:            21.0809985
  heat_capacity:      36.5765494
  energy:             25.6538178

- temperature:       250.0000000
  free_energy:        20.3759454
  entropy:            22.6056722
  heat_capacity:      38.1170322
  energy:             26.0273634

- temperature:       260.0000000
  free_energy:        20.1422687
  entropy:            24.1291733
  heat_capacity:      39.5661305
  energy:             26.4158538

- temperature:       270.0000000
  free_energy:        19.8933768
  entropy:            25.6482143
  heat_capacity:      40.9278425
  energy:             26.8183947

- temperature:       280.0000000
  free_energy:        19.6293286
  entropy:            27.1600189
  heat_capacity:      42.2065372
  energy:             27.2341339

- temperature:       290.0000000
  free_energy:        19.3502084
  entropy:            28.6622604
  heat_capacity:      43.4067666
  energy:             27.6622639

- temperature:       300.0000000
  free_energy:        19.0561218
  entropy:            30.1530042
  heat_capacity:      44.5331275
  energy:             28.1020230

- temperature:       310.0000000
  free_energy:        18.7471920
  entropy:            31.6306561
  heat_capacity:      45.5901615
  energy:             28.5526954

- temperature:       320.0000000
  free_energy:        18.4235566
  entropy:            33.0939164
  heat_capacity:      46.5822851
  energy:             29.0136099

- temperature:       330.0000000
  free_energy:        18.0853651
  entropy:            34.5417386
  heat_capacity:      47.5137432
  energy:             29.4841389

- temperature:       340.0000000
  free_energy:        17.7327761
  entropy:            35.9732939
  heat_capacity:      48.3885788
  energy:             29.9636960

- temperature:       350.0000000
  free_energy:        17.3659556
  entropy:            37.3879396
  heat_capacity:      49.2106163
  energy:             30.4517345

- temperature:       360.0000000
  free_energy:        16.9850753
  entropy:            38.7851919
  heat_capacity:      49.9834538
  energy:             30.9477444

- temperature:       370.0000000
  free_energy:        16.5903110
  entropy:            40.1647024
  heat_capacity:      50.7104628
  energy:             31.4512508

- temperature:       380.0000000
  free_energy:        16.1818412
  entropy:            41.5262374
  heat_capacity:      51.3947914
  energy:             31.9618114

- temperature:       390.0000000
  free_energy:        15.7598466
  entropy:            42.8696605
  heat_capacity:      52.0393725
  energy:             32.4790142

- temperature:       400.0000000
  free_energy:        15.3245086
  entropy:            44.1949173
  heat_capacity:      52.6469327
  energy:             33.0024755

- temperature:       410.0000000
  free_energy:        14.8760088
  entropy:            45.5020223
  heat_capacity:      53.2200030
  energy:             33.5318379

- temperature:       420.0000000
  free_energy:        14.4145284
  entropy:            46.7910477
  heat_capacity:      53.7609307
  energy:             34.0667684

- temperature:       430.0000000
  free_energy:        13.9402477
  entropy:            48.0621139
  heat_capacity:      54.2718905
  energy:             34.6069566

- temperature:       440.0000000
  free_energy:        13.4533454
  entropy:            49.3153810
  heat_capacity:      54.7548967
  energy:             35.1521131

- temperature:       450.0000000
  free_energy:        12.9539987
  entropy:            50.5510419
  heat_capacity:      55.2118138
  energy:             35.7019676

- temperature:       460.0000000
  free_energy:        12.4423826
  entropy:            51.7693165
  heat_capacity:      55.6443682
  energy:             36.2562681

- temperature:       470.0000000
  free_energy:        11.9186696
  entropy:            52.9704458
  heat_capacity:      56.0541575
  energy:             36.8147791

- temperature:       480.0000000
  free_energy:        11.3830299
  entropy:            54.1546884
  heat_capacity:      56.4426613
  energy:             37.3772804

- temperature:       490.0000000
  free_energy:        10.8356312
  entropy:            55.3223159
  heat_capacity:      56.8112494
  energy:             37.9435660

- temperature:       500.0000000
  free_energy:        10.2766381
  entropy:            56.4736103
  heat_capacity:      57.1611910
  energy:             38.5134432

- temperature:       510.0000000
  free_energy:         9.7062125
  entropy:            57.6088610
  heat_capacity:      57.4936622
  energy:             39.0867316

- temperature:       520.0000000
  free_energy:         9.1245133
  entropy:            58.7283625
  heat_capacity:      57.8097534
  energy:             39.6632618

- temperature:       530.0000000
  free_energy:         8.5316967
  entropy:            59.8324126
  heat_capacity:      58.1104760
  energy:             40.2428754

- temperature:       540.0000000
  free_energy:         7.9279156
  entropy:            60.9213105
  heat_capacity:      58.3967689
  energy:             40.8254233

- temperature:       550.0000000
  free_energy:         7.3133200
  entropy:            61.9953556
  heat_capacity:      58.6695038
  energy:             41.4107656

- temperature:       560.0000000
  free_energy:         6.6880570
  entropy:            63.0548462
  heat_capacity:      58.9294908
  energy:             41.9987709

- temperature:       570.0000000
  free_energy:         6.0522706
  entropy:            64.1000786
  heat_capacity:      59.1774832
  energy:             42.5893154

- temperature:       580.0000000
  free_energy:         5.4061020
  entropy:            65.1313464
  heat_capacity:      59.4141819
  energy:             43.1822829

- temperature:       590.0000000
  free_energy:         4.7496893
  entropy:            66.1489396
  heat_capacity:      59.6402392
  energy:             43.7775636

- temperature:       600.0000000
  free_energy:         4.0831678
  entropy:            67.1531441
  heat_capacity:      59.8562630
  energy:             44.3750542

- temperature:       610.0000000
  free_energy:         3.4066701
  entropy:            68.1442414
  heat_capacity:      60.0628201
  energy:             44.9746573

- temperature:       620.0000000
  free_energy:         2.7203257
  entropy:            69.1225082
  heat_capacity:      60.2604392
  energy:             45.5762808

- temperature:       630.0000000
  free_energy:         2.0242618
  entropy:            70.0882162
  heat_capacity:      60.4496136
  energy:             46.1798379

- temperature:       640.0000000
  free_energy:         1.3186024
  entropy:            71.0416314
  heat_capacity:      60.6308046
  energy:             46.7852465

- temperature:       650.0000000
  free_energy:         0.6034692
  entropy:            71.9830148
  heat_capacity:      60.8044431
  energy:             47.3924289

- temperature:       660.0000000
  free_energy:        -0.1210186
  entropy:            72.9126215
  heat_capacity:      60.9709322
  energy:             48.0013115

- temperature:       670.0000000
  free_energy:        -0.8547448
  entropy:            73.8307011
  heat_capacity:      61.1306494
  energy:             48.6118249

- temperature:       680.0000000
  free_energy:        -1.5975951
  entropy:            74.7374973
  heat_capacity:      61.2839482
  energy:             49.2239031

- temperature:       690.0000000
  free_energy:        -2.3494579
  entropy:            75.6332486
  heat_capacity:      61.4311599
  energy:             49.8374836

- temperature:       700.0000000
  free_energy:        -3.1102240
  entropy:            76.5181872
  heat_capacity:      61.5725954
  energy:             50.4525071

- temperature:       710.0000000
  free_energy:        -3.8797864
  entropy:            77.3925403
  heat_capacity:      61.7085463
  energy:             51.0689172

- temperature:       720.0000000
  free_energy:        -4.6580402
  entropy:            78.2565290
  heat_capacity:      61.8392867
  energy:             51.6866606

- temperature:       730.0000000
  free_energy:        -5.4448831
  entropy:            79.1103693
  heat_capacity:      61.9650740
  energy:             52.3056865

- temperature:       740.0000000
  free_energy:        -6.2402145
  entropy:            79.9542715
  heat_capacity:      62.0861502
  energy:             52.9259464

- temperature:       750.0000000
  free_energy:        -7.0439361
  entropy:            80.7884408
  heat_capacity:      62.2027433
  energy:             53.5473945

- temperature:       760.0000000
  free_energy:        -7.8559515
  entropy:            81.6130771
  heat_capacity:      62.3150676
  energy:             54.1699871

- temperature:       770.0000000
  free_energy:        -8.6761665
  entropy:            82.4283751
  heat_capacity:      62.4233254
  energy:             54.7936823

- temperature:       780.0000000
  free_energy:        -9.5044886
  entropy:            83.2345246
  heat_capacity:      62.5277070
  energy:             55.4184406

- temperature:       790.0000000
  free_energy:       -10.3408271
  entropy:            84.0317105
  heat_capacity:      62.6283923
  energy:             56.0442242

- temperature:       800.0000000
  free_energy:       -11.1850935
  entropy:            84.8201128
  heat_capacity:      62.7255507
  energy:             56.6709967

- temperature:       810.0000000
  free_energy:       -12.0372007
  entropy:            85.5999070
  heat_capacity:      62.8193423
  energy:             57.2987239

- temperature:       820.0000000
  free_energy:       -12.8970635
  entropy:            86.3712639
  heat_capacity:      62.9099187
  energy:             57.9273729

- temperature:       830.0000000
  free_energy:       -13.7645984
  entropy:            87.1343500
  heat_capacity:      62.9974226
  energy:             58.5569121

- temperature:       840.0000000
  free_energy:       -14.6397235
  entropy:            87.8893274
  heat_capacity:      63.0819896
  energy:             59.1873115

- temperature:       850.0000000
  free_energy:       -15.5223584
  entropy:            88.6363541
  heat_capacity:      63.1637476
  energy:             59.8185425

- temperature:       860.0000000
  free_energy:       -16.4124246
  entropy:            89.3755838
  heat_capacity:      63.2428179
  energy:             60.4505775

- temperature:       870.0000000
  free_energy:       -17.3098446
  entropy:            90.1071666
  heat_capacity:      63.3193155
  energy:             61.0833903

- temperature:       880.0000000
  free_energy:       -18.2145429
  entropy:            90.8312483
  heat_capacity:      63.3933491
  energy:             61.7169556

- temperature:       890.0000000
  free_energy:       -19.1264451
  entropy:            91.5479713
  heat_capacity:      63.4650221
  energy:             62.3512494

- temperature:       900.0000000
  free_energy:       -20.0454783
  entropy:            92.2574742
  heat_capacity:      63.5344326
  energy:             62.9862485

- temperature:       910.0000000
  free_energy:       -20.9715709
  entropy:            92.9598920
  heat_capacity:      63.6016735
  energy:             63.6219308

- temperature:       920.0000000
  free_energy:       -21.9046529
  entropy:            93.6553565
  heat_capacity:      63.6668332
  energy:             64.2582751

- temperature:       930.0000000
  free_energy:       -22.8446553
  entropy:            94.3439959
  heat_capacity:      63.7299958
  energy:             64.8952608

- temperature:       940.0000000
  free_energy:       -23.7915105
  entropy:            95.0259352
  heat_capacity:      63.7912409
  energy:             65.5328686

- temperature:       950.0000000
  free_energy:       -24.7451521
  entropy:            95.7012964
  heat_capacity:      63.8506447
  energy:             66.1710795

- temperature:       960.0000000
  free_energy:       -25.7055149
  entropy:            96.3701984
  heat_capacity:      63.9082792
  energy:             66.8098756

- temperature:       970.0000000
  free_energy:       -26.6725349
  entropy:            97.0327571
  heat_capacity:      63.9642134
  energy:             67.4492394

- temperature:       980.0000000
  free_energy:       -27.6461493
  entropy:            97.6890854
  heat_capacity:      64.0185127
  energy:             68.0891544

- temperature:       990.0000000
  free_energy:       -28.6262962
  entropy:            98.3392936
  heat_capacity:      64.0712396
  energy:             68.7296044

- temperature:      1000.0000000
  free_energy:       -29.6129151
  entropy:            98.9834892
  heat_capacity:      64.1224536
  energy:             69.3705741
