<?xml version="1.0" encoding="ISO-8859-1"?>
<modeling>
 <generator>
  <i name="program" type="string">vasp </i>
  <i name="version" type="string">5.3.5  </i>
  <i name="subversion" type="string">31Mar14 (build Nov 02 2014 15:17:37) complex                          parallel </i>
  <i name="platform" type="string">ion-Intel-MKL </i>
  <i name="date" type="string">2016 08 12 </i>
  <i name="time" type="string">22:15:09 </i>
 </generator>
 <incar>
  <i type="string" name="SYSTEM">graphite</i>
  <i type="string" name="PREC">accurate</i>
  <i type="int" name="NELM">   200</i>
  <i type="int" name="IBRION">     2</i>
  <i name="EDIFF">      0.00000100</i>
  <i name="EDIFFG">      0.00100000</i>
  <i type="int" name="NSW">   200</i>
  <i type="int" name="ISIF">     2</i>
  <i name="ENCUT">    600.00000000</i>
  <i type="int" name="ISMEAR">    -5</i>
  <i type="logical" name="LWAVE"> F  </i>
  <i type="logical" name="LCHARG"> F  </i>
  <i type="int" name="NELM">   200</i>
  <i type="string" name="GGA">PE</i>
 </incar>
 <kpoints>
  <generation param="Gamma">
   <v type="int" name="divisions">      18       18        8 </v>
   <v name="usershift">      0.00000000       0.00000000       0.00000000 </v>
   <v name="genvec1">      0.05555556       0.00000000       0.00000000 </v>
   <v name="genvec2">      0.00000000       0.05555556       0.00000000 </v>
   <v name="genvec3">      0.00000000       0.00000000       0.12500000 </v>
   <v name="shift">      0.00000000       0.00000000       0.00000000 </v>
  </generation>
  <varray name="kpointlist" >
   <v>       0.00000000       0.00000000       0.00000000 </v>
   <v>       0.05555556      -0.00000000       0.00000000 </v>
   <v>       0.11111111      -0.00000000       0.00000000 </v>
   <v>       0.16666667      -0.00000000       0.00000000 </v>
   <v>       0.22222222      -0.00000000       0.00000000 </v>
   <v>       0.27777778       0.00000000       0.00000000 </v>
   <v>       0.33333333      -0.00000000       0.00000000 </v>
   <v>       0.38888889      -0.00000000       0.00000000 </v>
   <v>       0.44444444      -0.00000000       0.00000000 </v>
   <v>       0.50000000       0.00000000       0.00000000 </v>
   <v>       0.05555556       0.05555556       0.00000000 </v>
   <v>       0.11111111       0.05555556       0.00000000 </v>
   <v>       0.16666667       0.05555556       0.00000000 </v>
   <v>       0.22222222       0.05555556       0.00000000 </v>
   <v>       0.27777778       0.05555556       0.00000000 </v>
   <v>       0.33333333       0.05555556       0.00000000 </v>
   <v>       0.38888889       0.05555556       0.00000000 </v>
   <v>       0.44444444       0.05555556       0.00000000 </v>
   <v>       0.50000000       0.05555556       0.00000000 </v>
   <v>      -0.44444444       0.05555556       0.00000000 </v>
   <v>      -0.38888889       0.05555556       0.00000000 </v>
   <v>      -0.33333333       0.05555556       0.00000000 </v>
   <v>      -0.27777778       0.05555556       0.00000000 </v>
   <v>      -0.22222222       0.05555556       0.00000000 </v>
   <v>      -0.16666667       0.05555556       0.00000000 </v>
   <v>      -0.11111111       0.05555556       0.00000000 </v>
   <v>      -0.05555556       0.05555556       0.00000000 </v>
   <v>       0.11111111       0.11111111       0.00000000 </v>
   <v>       0.16666667       0.11111111       0.00000000 </v>
   <v>       0.22222222       0.11111111       0.00000000 </v>
   <v>       0.27777778       0.11111111       0.00000000 </v>
   <v>       0.33333333       0.11111111       0.00000000 </v>
   <v>       0.38888889       0.11111111       0.00000000 </v>
   <v>       0.44444444       0.11111111       0.00000000 </v>
   <v>       0.50000000       0.11111111       0.00000000 </v>
   <v>      -0.44444444       0.11111111       0.00000000 </v>
   <v>      -0.38888889       0.11111111       0.00000000 </v>
   <v>      -0.33333333       0.11111111       0.00000000 </v>
   <v>      -0.27777778       0.11111111       0.00000000 </v>
   <v>      -0.22222222       0.11111111       0.00000000 </v>
   <v>      -0.16666667       0.11111111       0.00000000 </v>
   <v>      -0.11111111       0.11111111       0.00000000 </v>
   <v>       0.16666667       0.16666667       0.00000000 </v>
   <v>       0.22222222       0.16666667       0.00000000 </v>
   <v>       0.27777778       0.16666667       0.00000000 </v>
   <v>       0.33333333       0.16666667       0.00000000 </v>
   <v>       0.38888889       0.16666667       0.00000000 </v>
   <v>       0.44444444       0.16666667       0.00000000 </v>
   <v>       0.50000000       0.16666667       0.00000000 </v>
   <v>      -0.44444444       0.16666667       0.00000000 </v>
   <v>      -0.38888889       0.16666667       0.00000000 </v>
   <v>      -0.33333333       0.16666667       0.00000000 </v>
   <v>      -0.27777778       0.16666667       0.00000000 </v>
   <v>      -0.22222222       0.16666667       0.00000000 </v>
   <v>      -0.16666667       0.16666667       0.00000000 </v>
   <v>       0.22222222       0.22222222       0.00000000 </v>
   <v>       0.27777778       0.22222222       0.00000000 </v>
   <v>       0.33333333       0.22222222       0.00000000 </v>
   <v>       0.38888889       0.22222222       0.00000000 </v>
   <v>       0.44444444       0.22222222       0.00000000 </v>
   <v>       0.50000000       0.22222222       0.00000000 </v>
   <v>      -0.44444444       0.22222222       0.00000000 </v>
   <v>      -0.38888889       0.22222222       0.00000000 </v>
   <v>      -0.33333333       0.22222222       0.00000000 </v>
   <v>      -0.27777778       0.22222222       0.00000000 </v>
   <v>      -0.22222222       0.22222222       0.00000000 </v>
   <v>       0.27777778       0.27777778       0.00000000 </v>
   <v>       0.33333333       0.27777778       0.00000000 </v>
   <v>       0.38888889       0.27777778       0.00000000 </v>
   <v>       0.44444444       0.27777778       0.00000000 </v>
   <v>       0.50000000       0.27777778       0.00000000 </v>
   <v>      -0.44444444       0.27777778       0.00000000 </v>
   <v>      -0.38888889       0.27777778       0.00000000 </v>
   <v>      -0.33333333       0.27777778       0.00000000 </v>
   <v>      -0.27777778       0.27777778       0.00000000 </v>
   <v>       0.33333333       0.33333333       0.00000000 </v>
   <v>       0.38888889       0.33333333       0.00000000 </v>
   <v>       0.44444444       0.33333333       0.00000000 </v>
   <v>       0.50000000       0.33333333       0.00000000 </v>
   <v>      -0.44444444       0.33333333       0.00000000 </v>
   <v>      -0.38888889       0.33333333       0.00000000 </v>
   <v>      -0.33333333       0.33333333       0.00000000 </v>
   <v>       0.38888889       0.38888889       0.00000000 </v>
   <v>       0.44444444       0.38888889       0.00000000 </v>
   <v>       0.50000000       0.38888889       0.00000000 </v>
   <v>      -0.44444444       0.38888889       0.00000000 </v>
   <v>      -0.38888889       0.38888889       0.00000000 </v>
   <v>       0.44444444       0.44444444       0.00000000 </v>
   <v>       0.50000000       0.44444444       0.00000000 </v>
   <v>      -0.44444444       0.44444444       0.00000000 </v>
   <v>       0.50000000       0.50000000       0.00000000 </v>
   <v>       0.00000000       0.00000000       0.12500000 </v>
   <v>       0.05555556      -0.00000000       0.12500000 </v>
   <v>       0.11111111      -0.00000000       0.12500000 </v>
   <v>       0.16666667      -0.00000000       0.12500000 </v>
   <v>       0.22222222      -0.00000000       0.12500000 </v>
   <v>       0.27777778       0.00000000       0.12500000 </v>
   <v>       0.33333333      -0.00000000       0.12500000 </v>
   <v>       0.38888889      -0.00000000       0.12500000 </v>
   <v>       0.44444444      -0.00000000       0.12500000 </v>
   <v>       0.50000000       0.00000000       0.12500000 </v>
   <v>       0.05555556       0.05555556       0.12500000 </v>
   <v>       0.11111111       0.05555556       0.12500000 </v>
   <v>       0.16666667       0.05555556       0.12500000 </v>
   <v>       0.22222222       0.05555556       0.12500000 </v>
   <v>       0.27777778       0.05555556       0.12500000 </v>
   <v>       0.33333333       0.05555556       0.12500000 </v>
   <v>       0.38888889       0.05555556       0.12500000 </v>
   <v>       0.44444444       0.05555556       0.12500000 </v>
   <v>       0.50000000       0.05555556       0.12500000 </v>
   <v>      -0.44444444       0.05555556       0.12500000 </v>
   <v>      -0.38888889       0.05555556       0.12500000 </v>
   <v>      -0.33333333       0.05555556       0.12500000 </v>
   <v>      -0.27777778       0.05555556       0.12500000 </v>
   <v>      -0.22222222       0.05555556       0.12500000 </v>
   <v>      -0.16666667       0.05555556       0.12500000 </v>
   <v>      -0.11111111       0.05555556       0.12500000 </v>
   <v>      -0.05555556       0.05555556       0.12500000 </v>
   <v>       0.11111111       0.11111111       0.12500000 </v>
   <v>       0.16666667       0.11111111       0.12500000 </v>
   <v>       0.22222222       0.11111111       0.12500000 </v>
   <v>       0.27777778       0.11111111       0.12500000 </v>
   <v>       0.33333333       0.11111111       0.12500000 </v>
   <v>       0.38888889       0.11111111       0.12500000 </v>
   <v>       0.44444444       0.11111111       0.12500000 </v>
   <v>       0.50000000       0.11111111       0.12500000 </v>
   <v>      -0.44444444       0.11111111       0.12500000 </v>
   <v>      -0.38888889       0.11111111       0.12500000 </v>
   <v>      -0.33333333       0.11111111       0.12500000 </v>
   <v>      -0.27777778       0.11111111       0.12500000 </v>
   <v>      -0.22222222       0.11111111       0.12500000 </v>
   <v>      -0.16666667       0.11111111       0.12500000 </v>
   <v>      -0.11111111       0.11111111       0.12500000 </v>
   <v>       0.16666667       0.16666667       0.12500000 </v>
   <v>       0.22222222       0.16666667       0.12500000 </v>
   <v>       0.27777778       0.16666667       0.12500000 </v>
   <v>       0.33333333       0.16666667       0.12500000 </v>
   <v>       0.38888889       0.16666667       0.12500000 </v>
   <v>       0.44444444       0.16666667       0.12500000 </v>
   <v>       0.50000000       0.16666667       0.12500000 </v>
   <v>      -0.44444444       0.16666667       0.12500000 </v>
   <v>      -0.38888889       0.16666667       0.12500000 </v>
   <v>      -0.33333333       0.16666667       0.12500000 </v>
   <v>      -0.27777778       0.16666667       0.12500000 </v>
   <v>      -0.22222222       0.16666667       0.12500000 </v>
   <v>      -0.16666667       0.16666667       0.12500000 </v>
   <v>       0.22222222       0.22222222       0.12500000 </v>
   <v>       0.27777778       0.22222222       0.12500000 </v>
   <v>       0.33333333       0.22222222       0.12500000 </v>
   <v>       0.38888889       0.22222222       0.12500000 </v>
   <v>       0.44444444       0.22222222       0.12500000 </v>
   <v>       0.50000000       0.22222222       0.12500000 </v>
   <v>      -0.44444444       0.22222222       0.12500000 </v>
   <v>      -0.38888889       0.22222222       0.12500000 </v>
   <v>      -0.33333333       0.22222222       0.12500000 </v>
   <v>      -0.27777778       0.22222222       0.12500000 </v>
   <v>      -0.22222222       0.22222222       0.12500000 </v>
   <v>       0.27777778       0.27777778       0.12500000 </v>
   <v>       0.33333333       0.27777778       0.12500000 </v>
   <v>       0.38888889       0.27777778       0.12500000 </v>
   <v>       0.44444444       0.27777778       0.12500000 </v>
   <v>       0.50000000       0.27777778       0.12500000 </v>
   <v>      -0.44444444       0.27777778       0.12500000 </v>
   <v>      -0.38888889       0.27777778       0.12500000 </v>
   <v>      -0.33333333       0.27777778       0.12500000 </v>
   <v>      -0.27777778       0.27777778       0.12500000 </v>
   <v>       0.33333333       0.33333333       0.12500000 </v>
   <v>       0.38888889       0.33333333       0.12500000 </v>
   <v>       0.44444444       0.33333333       0.12500000 </v>
   <v>       0.50000000       0.33333333       0.12500000 </v>
   <v>      -0.44444444       0.33333333       0.12500000 </v>
   <v>      -0.38888889       0.33333333       0.12500000 </v>
   <v>      -0.33333333       0.33333333       0.12500000 </v>
   <v>       0.38888889       0.38888889       0.12500000 </v>
   <v>       0.44444444       0.38888889       0.12500000 </v>
   <v>       0.50000000       0.38888889       0.12500000 </v>
   <v>      -0.44444444       0.38888889       0.12500000 </v>
   <v>      -0.38888889       0.38888889       0.12500000 </v>
   <v>       0.44444444       0.44444444       0.12500000 </v>
   <v>       0.50000000       0.44444444       0.12500000 </v>
   <v>      -0.44444444       0.44444444       0.12500000 </v>
   <v>       0.50000000       0.50000000       0.12500000 </v>
   <v>       0.00000000       0.00000000       0.25000000 </v>
   <v>       0.05555556      -0.00000000       0.25000000 </v>
   <v>       0.11111111      -0.00000000       0.25000000 </v>
   <v>       0.16666667      -0.00000000       0.25000000 </v>
   <v>       0.22222222      -0.00000000       0.25000000 </v>
   <v>       0.27777778       0.00000000       0.25000000 </v>
   <v>       0.33333333      -0.00000000       0.25000000 </v>
   <v>       0.38888889      -0.00000000       0.25000000 </v>
   <v>       0.44444444      -0.00000000       0.25000000 </v>
   <v>       0.50000000       0.00000000       0.25000000 </v>
   <v>       0.05555556       0.05555556       0.25000000 </v>
   <v>       0.11111111       0.05555556       0.25000000 </v>
   <v>       0.16666667       0.05555556       0.25000000 </v>
   <v>       0.22222222       0.05555556       0.25000000 </v>
   <v>       0.27777778       0.05555556       0.25000000 </v>
   <v>       0.33333333       0.05555556       0.25000000 </v>
   <v>       0.38888889       0.05555556       0.25000000 </v>
   <v>       0.44444444       0.05555556       0.25000000 </v>
   <v>       0.50000000       0.05555556       0.25000000 </v>
   <v>      -0.44444444       0.05555556       0.25000000 </v>
   <v>      -0.38888889       0.05555556       0.25000000 </v>
   <v>      -0.33333333       0.05555556       0.25000000 </v>
   <v>      -0.27777778       0.05555556       0.25000000 </v>
   <v>      -0.22222222       0.05555556       0.25000000 </v>
   <v>      -0.16666667       0.05555556       0.25000000 </v>
   <v>      -0.11111111       0.05555556       0.25000000 </v>
   <v>      -0.05555556       0.05555556       0.25000000 </v>
   <v>       0.11111111       0.11111111       0.25000000 </v>
   <v>       0.16666667       0.11111111       0.25000000 </v>
   <v>       0.22222222       0.11111111       0.25000000 </v>
   <v>       0.27777778       0.11111111       0.25000000 </v>
   <v>       0.33333333       0.11111111       0.25000000 </v>
   <v>       0.38888889       0.11111111       0.25000000 </v>
   <v>       0.44444444       0.11111111       0.25000000 </v>
   <v>       0.50000000       0.11111111       0.25000000 </v>
   <v>      -0.44444444       0.11111111       0.25000000 </v>
   <v>      -0.38888889       0.11111111       0.25000000 </v>
   <v>      -0.33333333       0.11111111       0.25000000 </v>
   <v>      -0.27777778       0.11111111       0.25000000 </v>
   <v>      -0.22222222       0.11111111       0.25000000 </v>
   <v>      -0.16666667       0.11111111       0.25000000 </v>
   <v>      -0.11111111       0.11111111       0.25000000 </v>
   <v>       0.16666667       0.16666667       0.25000000 </v>
   <v>       0.22222222       0.16666667       0.25000000 </v>
   <v>       0.27777778       0.16666667       0.25000000 </v>
   <v>       0.33333333       0.16666667       0.25000000 </v>
   <v>       0.38888889       0.16666667       0.25000000 </v>
   <v>       0.44444444       0.16666667       0.25000000 </v>
   <v>       0.50000000       0.16666667       0.25000000 </v>
   <v>      -0.44444444       0.16666667       0.25000000 </v>
   <v>      -0.38888889       0.16666667       0.25000000 </v>
   <v>      -0.33333333       0.16666667       0.25000000 </v>
   <v>      -0.27777778       0.16666667       0.25000000 </v>
   <v>      -0.22222222       0.16666667       0.25000000 </v>
   <v>      -0.16666667       0.16666667       0.25000000 </v>
   <v>       0.22222222       0.22222222       0.25000000 </v>
   <v>       0.27777778       0.22222222       0.25000000 </v>
   <v>       0.33333333       0.22222222       0.25000000 </v>
   <v>       0.38888889       0.22222222       0.25000000 </v>
   <v>       0.44444444       0.22222222       0.25000000 </v>
   <v>       0.50000000       0.22222222       0.25000000 </v>
   <v>      -0.44444444       0.22222222       0.25000000 </v>
   <v>      -0.38888889       0.22222222       0.25000000 </v>
   <v>      -0.33333333       0.22222222       0.25000000 </v>
   <v>      -0.27777778       0.22222222       0.25000000 </v>
   <v>      -0.22222222       0.22222222       0.25000000 </v>
   <v>       0.27777778       0.27777778       0.25000000 </v>
   <v>       0.33333333       0.27777778       0.25000000 </v>
   <v>       0.38888889       0.27777778       0.25000000 </v>
   <v>       0.44444444       0.27777778       0.25000000 </v>
   <v>       0.50000000       0.27777778       0.25000000 </v>
   <v>      -0.44444444       0.27777778       0.25000000 </v>
   <v>      -0.38888889       0.27777778       0.25000000 </v>
   <v>      -0.33333333       0.27777778       0.25000000 </v>
   <v>      -0.27777778       0.27777778       0.25000000 </v>
   <v>       0.33333333       0.33333333       0.25000000 </v>
   <v>       0.38888889       0.33333333       0.25000000 </v>
   <v>       0.44444444       0.33333333       0.25000000 </v>
   <v>       0.50000000       0.33333333       0.25000000 </v>
   <v>      -0.44444444       0.33333333       0.25000000 </v>
   <v>      -0.38888889       0.33333333       0.25000000 </v>
   <v>      -0.33333333       0.33333333       0.25000000 </v>
   <v>       0.38888889       0.38888889       0.25000000 </v>
   <v>       0.44444444       0.38888889       0.25000000 </v>
   <v>       0.50000000       0.38888889       0.25000000 </v>
   <v>      -0.44444444       0.38888889       0.25000000 </v>
   <v>      -0.38888889       0.38888889       0.25000000 </v>
   <v>       0.44444444       0.44444444       0.25000000 </v>
   <v>       0.50000000       0.44444444       0.25000000 </v>
   <v>      -0.44444444       0.44444444       0.25000000 </v>
   <v>       0.50000000       0.50000000       0.25000000 </v>
   <v>       0.00000000       0.00000000       0.37500000 </v>
   <v>       0.05555556      -0.00000000       0.37500000 </v>
   <v>       0.11111111      -0.00000000       0.37500000 </v>
   <v>       0.16666667      -0.00000000       0.37500000 </v>
   <v>       0.22222222      -0.00000000       0.37500000 </v>
   <v>       0.27777778       0.00000000       0.37500000 </v>
   <v>       0.33333333      -0.00000000       0.37500000 </v>
   <v>       0.38888889      -0.00000000       0.37500000 </v>
   <v>       0.44444444      -0.00000000       0.37500000 </v>
   <v>       0.50000000       0.00000000       0.37500000 </v>
   <v>       0.05555556       0.05555556       0.37500000 </v>
   <v>       0.11111111       0.05555556       0.37500000 </v>
   <v>       0.16666667       0.05555556       0.37500000 </v>
   <v>       0.22222222       0.05555556       0.37500000 </v>
   <v>       0.27777778       0.05555556       0.37500000 </v>
   <v>       0.33333333       0.05555556       0.37500000 </v>
   <v>       0.38888889       0.05555556       0.37500000 </v>
   <v>       0.44444444       0.05555556       0.37500000 </v>
   <v>       0.50000000       0.05555556       0.37500000 </v>
   <v>      -0.44444444       0.05555556       0.37500000 </v>
   <v>      -0.38888889       0.05555556       0.37500000 </v>
   <v>      -0.33333333       0.05555556       0.37500000 </v>
   <v>      -0.27777778       0.05555556       0.37500000 </v>
   <v>      -0.22222222       0.05555556       0.37500000 </v>
   <v>      -0.16666667       0.05555556       0.37500000 </v>
   <v>      -0.11111111       0.05555556       0.37500000 </v>
   <v>      -0.05555556       0.05555556       0.37500000 </v>
   <v>       0.11111111       0.11111111       0.37500000 </v>
   <v>       0.16666667       0.11111111       0.37500000 </v>
   <v>       0.22222222       0.11111111       0.37500000 </v>
   <v>       0.27777778       0.11111111       0.37500000 </v>
   <v>       0.33333333       0.11111111       0.37500000 </v>
   <v>       0.38888889       0.11111111       0.37500000 </v>
   <v>       0.44444444       0.11111111       0.37500000 </v>
   <v>       0.50000000       0.11111111       0.37500000 </v>
   <v>      -0.44444444       0.11111111       0.37500000 </v>
   <v>      -0.38888889       0.11111111       0.37500000 </v>
   <v>      -0.33333333       0.11111111       0.37500000 </v>
   <v>      -0.27777778       0.11111111       0.37500000 </v>
   <v>      -0.22222222       0.11111111       0.37500000 </v>
   <v>      -0.16666667       0.11111111       0.37500000 </v>
   <v>      -0.11111111       0.11111111       0.37500000 </v>
   <v>       0.16666667       0.16666667       0.37500000 </v>
   <v>       0.22222222       0.16666667       0.37500000 </v>
   <v>       0.27777778       0.16666667       0.37500000 </v>
   <v>       0.33333333       0.16666667       0.37500000 </v>
   <v>       0.38888889       0.16666667       0.37500000 </v>
   <v>       0.44444444       0.16666667       0.37500000 </v>
   <v>       0.50000000       0.16666667       0.37500000 </v>
   <v>      -0.44444444       0.16666667       0.37500000 </v>
   <v>      -0.38888889       0.16666667       0.37500000 </v>
   <v>      -0.33333333       0.16666667       0.37500000 </v>
   <v>      -0.27777778       0.16666667       0.37500000 </v>
   <v>      -0.22222222       0.16666667       0.37500000 </v>
   <v>      -0.16666667       0.16666667       0.37500000 </v>
   <v>       0.22222222       0.22222222       0.37500000 </v>
   <v>       0.27777778       0.22222222       0.37500000 </v>
   <v>       0.33333333       0.22222222       0.37500000 </v>
   <v>       0.38888889       0.22222222       0.37500000 </v>
   <v>       0.44444444       0.22222222       0.37500000 </v>
   <v>       0.50000000       0.22222222       0.37500000 </v>
   <v>      -0.44444444       0.22222222       0.37500000 </v>
   <v>      -0.38888889       0.22222222       0.37500000 </v>
   <v>      -0.33333333       0.22222222       0.37500000 </v>
   <v>      -0.27777778       0.22222222       0.37500000 </v>
   <v>      -0.22222222       0.22222222       0.37500000 </v>
   <v>       0.27777778       0.27777778       0.37500000 </v>
   <v>       0.33333333       0.27777778       0.37500000 </v>
   <v>       0.38888889       0.27777778       0.37500000 </v>
   <v>       0.44444444       0.27777778       0.37500000 </v>
   <v>       0.50000000       0.27777778       0.37500000 </v>
   <v>      -0.44444444       0.27777778       0.37500000 </v>
   <v>      -0.38888889       0.27777778       0.37500000 </v>
   <v>      -0.33333333       0.27777778       0.37500000 </v>
   <v>      -0.27777778       0.27777778       0.37500000 </v>
   <v>       0.33333333       0.33333333       0.37500000 </v>
   <v>       0.38888889       0.33333333       0.37500000 </v>
   <v>       0.44444444       0.33333333       0.37500000 </v>
   <v>       0.50000000       0.33333333       0.37500000 </v>
   <v>      -0.44444444       0.33333333       0.37500000 </v>
   <v>      -0.38888889       0.33333333       0.37500000 </v>
   <v>      -0.33333333       0.33333333       0.37500000 </v>
   <v>       0.38888889       0.38888889       0.37500000 </v>
   <v>       0.44444444       0.38888889       0.37500000 </v>
   <v>       0.50000000       0.38888889       0.37500000 </v>
   <v>      -0.44444444       0.38888889       0.37500000 </v>
   <v>      -0.38888889       0.38888889       0.37500000 </v>
   <v>       0.44444444       0.44444444       0.37500000 </v>
   <v>       0.50000000       0.44444444       0.37500000 </v>
   <v>      -0.44444444       0.44444444       0.37500000 </v>
   <v>       0.50000000       0.50000000       0.37500000 </v>
   <v>       0.00000000       0.00000000       0.50000000 </v>
   <v>       0.05555556      -0.00000000       0.50000000 </v>
   <v>       0.11111111      -0.00000000       0.50000000 </v>
   <v>       0.16666667      -0.00000000       0.50000000 </v>
   <v>       0.22222222      -0.00000000       0.50000000 </v>
   <v>       0.27777778       0.00000000       0.50000000 </v>
   <v>       0.33333333      -0.00000000       0.50000000 </v>
   <v>       0.38888889      -0.00000000       0.50000000 </v>
   <v>       0.44444444      -0.00000000       0.50000000 </v>
   <v>       0.50000000       0.00000000       0.50000000 </v>
   <v>       0.05555556       0.05555556       0.50000000 </v>
   <v>       0.11111111       0.05555556       0.50000000 </v>
   <v>       0.16666667       0.05555556       0.50000000 </v>
   <v>       0.22222222       0.05555556       0.50000000 </v>
   <v>       0.27777778       0.05555556       0.50000000 </v>
   <v>       0.33333333       0.05555556       0.50000000 </v>
   <v>       0.38888889       0.05555556       0.50000000 </v>
   <v>       0.44444444       0.05555556       0.50000000 </v>
   <v>       0.50000000       0.05555556       0.50000000 </v>
   <v>      -0.44444444       0.05555556       0.50000000 </v>
   <v>      -0.38888889       0.05555556       0.50000000 </v>
   <v>      -0.33333333       0.05555556       0.50000000 </v>
   <v>      -0.27777778       0.05555556       0.50000000 </v>
   <v>      -0.22222222       0.05555556       0.50000000 </v>
   <v>      -0.16666667       0.05555556       0.50000000 </v>
   <v>      -0.11111111       0.05555556       0.50000000 </v>
   <v>      -0.05555556       0.05555556       0.50000000 </v>
   <v>       0.11111111       0.11111111       0.50000000 </v>
   <v>       0.16666667       0.11111111       0.50000000 </v>
   <v>       0.22222222       0.11111111       0.50000000 </v>
   <v>       0.27777778       0.11111111       0.50000000 </v>
   <v>       0.33333333       0.11111111       0.50000000 </v>
   <v>       0.38888889       0.11111111       0.50000000 </v>
   <v>       0.44444444       0.11111111       0.50000000 </v>
   <v>       0.50000000       0.11111111       0.50000000 </v>
   <v>      -0.44444444       0.11111111       0.50000000 </v>
   <v>      -0.38888889       0.11111111       0.50000000 </v>
   <v>      -0.33333333       0.11111111       0.50000000 </v>
   <v>      -0.27777778       0.11111111       0.50000000 </v>
   <v>      -0.22222222       0.11111111       0.50000000 </v>
   <v>      -0.16666667       0.11111111       0.50000000 </v>
   <v>      -0.11111111       0.11111111       0.50000000 </v>
   <v>       0.16666667       0.16666667       0.50000000 </v>
   <v>       0.22222222       0.16666667       0.50000000 </v>
   <v>       0.27777778       0.16666667       0.50000000 </v>
   <v>       0.33333333       0.16666667       0.50000000 </v>
   <v>       0.38888889       0.16666667       0.50000000 </v>
   <v>       0.44444444       0.16666667       0.50000000 </v>
   <v>       0.50000000       0.16666667       0.50000000 </v>
   <v>      -0.44444444       0.16666667       0.50000000 </v>
   <v>      -0.38888889       0.16666667       0.50000000 </v>
   <v>      -0.33333333       0.16666667       0.50000000 </v>
   <v>      -0.27777778       0.16666667       0.50000000 </v>
   <v>      -0.22222222       0.16666667       0.50000000 </v>
   <v>      -0.16666667       0.16666667       0.50000000 </v>
   <v>       0.22222222       0.22222222       0.50000000 </v>
   <v>       0.27777778       0.22222222       0.50000000 </v>
   <v>       0.33333333       0.22222222       0.50000000 </v>
   <v>       0.38888889       0.22222222       0.50000000 </v>
   <v>       0.44444444       0.22222222       0.50000000 </v>
   <v>       0.50000000       0.22222222       0.50000000 </v>
   <v>      -0.44444444       0.22222222       0.50000000 </v>
   <v>      -0.38888889       0.22222222       0.50000000 </v>
   <v>      -0.33333333       0.22222222       0.50000000 </v>
   <v>      -0.27777778       0.22222222       0.50000000 </v>
   <v>      -0.22222222       0.22222222       0.50000000 </v>
   <v>       0.27777778       0.27777778       0.50000000 </v>
   <v>       0.33333333       0.27777778       0.50000000 </v>
   <v>       0.38888889       0.27777778       0.50000000 </v>
   <v>       0.44444444       0.27777778       0.50000000 </v>
   <v>       0.50000000       0.27777778       0.50000000 </v>
   <v>      -0.44444444       0.27777778       0.50000000 </v>
   <v>      -0.38888889       0.27777778       0.50000000 </v>
   <v>      -0.33333333       0.27777778       0.50000000 </v>
   <v>      -0.27777778       0.27777778       0.50000000 </v>
   <v>       0.33333333       0.33333333       0.50000000 </v>
   <v>       0.38888889       0.33333333       0.50000000 </v>
   <v>       0.44444444       0.33333333       0.50000000 </v>
   <v>       0.50000000       0.33333333       0.50000000 </v>
   <v>      -0.44444444       0.33333333       0.50000000 </v>
   <v>      -0.38888889       0.33333333       0.50000000 </v>
   <v>      -0.33333333       0.33333333       0.50000000 </v>
   <v>       0.38888889       0.38888889       0.50000000 </v>
   <v>       0.44444444       0.38888889       0.50000000 </v>
   <v>       0.50000000       0.38888889       0.50000000 </v>
   <v>      -0.44444444       0.38888889       0.50000000 </v>
   <v>      -0.38888889       0.38888889       0.50000000 </v>
   <v>       0.44444444       0.44444444       0.50000000 </v>
   <v>       0.50000000       0.44444444       0.50000000 </v>
   <v>      -0.44444444       0.44444444       0.50000000 </v>
   <v>       0.50000000       0.50000000       0.50000000 </v>
  </varray>
  <varray name="weights" >
   <v>       0.00038580 </v>
   <v>       0.00154321 </v>
   <v>       0.00154321 </v>
   <v>       0.00154321 </v>
   <v>       0.00154321 </v>
   <v>       0.00154321 </v>
   <v>       0.00154321 </v>
   <v>       0.00154321 </v>
   <v>       0.00154321 </v>
   <v>       0.00077160 </v>
   <v>       0.00077160 </v>
   <v>       0.00154321 </v>
   <v>       0.00154321 </v>
   <v>       0.00154321 </v>
   <v>       0.00154321 </v>
   <v>       0.00154321 </v>
   <v>       0.00154321 </v>
   <v>       0.00154321 </v>
   <v>       0.00154321 </v>
   <v>       0.00154321 </v>
   <v>       0.00154321 </v>
   <v>       0.00154321 </v>
   <v>       0.00154321 </v>
   <v>       0.00154321 </v>
   <v>       0.00154321 </v>
   <v>       0.00154321 </v>
   <v>       0.00077160 </v>
   <v>       0.00077160 </v>
   <v>       0.00154321 </v>
   <v>       0.00154321 </v>
   <v>       0.00154321 </v>
   <v>       0.00154321 </v>
   <v>       0.00154321 </v>
   <v>       0.00154321 </v>
   <v>       0.00154321 </v>
   <v>       0.00154321 </v>
   <v>       0.00154321 </v>
   <v>       0.00154321 </v>
   <v>       0.00154321 </v>
   <v>       0.00154321 </v>
   <v>       0.00154321 </v>
   <v>       0.00077160 </v>
   <v>       0.00077160 </v>
   <v>       0.00154321 </v>
   <v>       0.00154321 </v>
   <v>       0.00154321 </v>
   <v>       0.00154321 </v>
   <v>       0.00154321 </v>
   <v>       0.00154321 </v>
   <v>       0.00154321 </v>
   <v>       0.00154321 </v>
   <v>       0.00154321 </v>
   <v>       0.00154321 </v>
   <v>       0.00154321 </v>
   <v>       0.00077160 </v>
   <v>       0.00077160 </v>
   <v>       0.00154321 </v>
   <v>       0.00154321 </v>
   <v>       0.00154321 </v>
   <v>       0.00154321 </v>
   <v>       0.00154321 </v>
   <v>       0.00154321 </v>
   <v>       0.00154321 </v>
   <v>       0.00154321 </v>
   <v>       0.00154321 </v>
   <v>       0.00077160 </v>
   <v>       0.00077160 </v>
   <v>       0.00154321 </v>
   <v>       0.00154321 </v>
   <v>       0.00154321 </v>
   <v>       0.00154321 </v>
   <v>       0.00154321 </v>
   <v>       0.00154321 </v>
   <v>       0.00154321 </v>
   <v>       0.00077160 </v>
   <v>       0.00077160 </v>
   <v>       0.00154321 </v>
   <v>       0.00154321 </v>
   <v>       0.00154321 </v>
   <v>       0.00154321 </v>
   <v>       0.00154321 </v>
   <v>       0.00077160 </v>
   <v>       0.00077160 </v>
   <v>       0.00154321 </v>
   <v>       0.00154321 </v>
   <v>       0.00154321 </v>
   <v>       0.00077160 </v>
   <v>       0.00077160 </v>
   <v>       0.00154321 </v>
   <v>       0.00077160 </v>
   <v>       0.00038580 </v>
   <v>       0.00077160 </v>
   <v>       0.00308642 </v>
   <v>       0.00308642 </v>
   <v>       0.00308642 </v>
   <v>       0.00308642 </v>
   <v>       0.00308642 </v>
   <v>       0.00308642 </v>
   <v>       0.00308642 </v>
   <v>       0.00308642 </v>
   <v>       0.00154321 </v>
   <v>       0.00154321 </v>
   <v>       0.00308642 </v>
   <v>       0.00308642 </v>
   <v>       0.00308642 </v>
   <v>       0.00308642 </v>
   <v>       0.00308642 </v>
   <v>       0.00308642 </v>
   <v>       0.00308642 </v>
   <v>       0.00308642 </v>
   <v>       0.00308642 </v>
   <v>       0.00308642 </v>
   <v>       0.00308642 </v>
   <v>       0.00308642 </v>
   <v>       0.00308642 </v>
   <v>       0.00308642 </v>
   <v>       0.00308642 </v>
   <v>       0.00154321 </v>
   <v>       0.00154321 </v>
   <v>       0.00308642 </v>
   <v>       0.00308642 </v>
   <v>       0.00308642 </v>
   <v>       0.00308642 </v>
   <v>       0.00308642 </v>
   <v>       0.00308642 </v>
   <v>       0.00308642 </v>
   <v>       0.00308642 </v>
   <v>       0.00308642 </v>
   <v>       0.00308642 </v>
   <v>       0.00308642 </v>
   <v>       0.00308642 </v>
   <v>       0.00308642 </v>
   <v>       0.00154321 </v>
   <v>       0.00154321 </v>
   <v>       0.00308642 </v>
   <v>       0.00308642 </v>
   <v>       0.00308642 </v>
   <v>       0.00308642 </v>
   <v>       0.00308642 </v>
   <v>       0.00308642 </v>
   <v>       0.00308642 </v>
   <v>       0.00308642 </v>
   <v>       0.00308642 </v>
   <v>       0.00308642 </v>
   <v>       0.00308642 </v>
   <v>       0.00154321 </v>
   <v>       0.00154321 </v>
   <v>       0.00308642 </v>
   <v>       0.00308642 </v>
   <v>       0.00308642 </v>
   <v>       0.00308642 </v>
   <v>       0.00308642 </v>
   <v>       0.00308642 </v>
   <v>       0.00308642 </v>
   <v>       0.00308642 </v>
   <v>       0.00308642 </v>
   <v>       0.00154321 </v>
   <v>       0.00154321 </v>
   <v>       0.00308642 </v>
   <v>       0.00308642 </v>
   <v>       0.00308642 </v>
   <v>       0.00308642 </v>
   <v>       0.00308642 </v>
   <v>       0.00308642 </v>
   <v>       0.00308642 </v>
   <v>       0.00154321 </v>
   <v>       0.00154321 </v>
   <v>       0.00308642 </v>
   <v>       0.00308642 </v>
   <v>       0.00308642 </v>
   <v>       0.00308642 </v>
   <v>       0.00308642 </v>
   <v>       0.00154321 </v>
   <v>       0.00154321 </v>
   <v>       0.00308642 </v>
   <v>       0.00308642 </v>
   <v>       0.00308642 </v>
   <v>       0.00154321 </v>
   <v>       0.00154321 </v>
   <v>       0.00308642 </v>
   <v>       0.00154321 </v>
   <v>       0.00077160 </v>
   <v>       0.00077160 </v>
   <v>       0.00308642 </v>
   <v>       0.00308642 </v>
   <v>       0.00308642 </v>
   <v>       0.00308642 </v>
   <v>       0.00308642 </v>
   <v>       0.00308642 </v>
   <v>       0.00308642 </v>
   <v>       0.00308642 </v>
   <v>       0.00154321 </v>
   <v>       0.00154321 </v>
   <v>       0.00308642 </v>
   <v>       0.00308642 </v>
   <v>       0.00308642 </v>
   <v>       0.00308642 </v>
   <v>       0.00308642 </v>
   <v>       0.00308642 </v>
   <v>       0.00308642 </v>
   <v>       0.00308642 </v>
   <v>       0.00308642 </v>
   <v>       0.00308642 </v>
   <v>       0.00308642 </v>
   <v>       0.00308642 </v>
   <v>       0.00308642 </v>
   <v>       0.00308642 </v>
   <v>       0.00308642 </v>
   <v>       0.00154321 </v>
   <v>       0.00154321 </v>
   <v>       0.00308642 </v>
   <v>       0.00308642 </v>
   <v>       0.00308642 </v>
   <v>       0.00308642 </v>
   <v>       0.00308642 </v>
   <v>       0.00308642 </v>
   <v>       0.00308642 </v>
   <v>       0.00308642 </v>
   <v>       0.00308642 </v>
   <v>       0.00308642 </v>
   <v>       0.00308642 </v>
   <v>       0.00308642 </v>
   <v>       0.00308642 </v>
   <v>       0.00154321 </v>
   <v>       0.00154321 </v>
   <v>       0.00308642 </v>
   <v>       0.00308642 </v>
   <v>       0.00308642 </v>
   <v>       0.00308642 </v>
   <v>       0.00308642 </v>
   <v>       0.00308642 </v>
   <v>       0.00308642 </v>
   <v>       0.00308642 </v>
   <v>       0.00308642 </v>
   <v>       0.00308642 </v>
   <v>       0.00308642 </v>
   <v>       0.00154321 </v>
   <v>       0.00154321 </v>
   <v>       0.00308642 </v>
   <v>       0.00308642 </v>
   <v>       0.00308642 </v>
   <v>       0.00308642 </v>
   <v>       0.00308642 </v>
   <v>       0.00308642 </v>
   <v>       0.00308642 </v>
   <v>       0.00308642 </v>
   <v>       0.00308642 </v>
   <v>       0.00154321 </v>
   <v>       0.00154321 </v>
   <v>       0.00308642 </v>
   <v>       0.00308642 </v>
   <v>       0.00308642 </v>
   <v>       0.00308642 </v>
   <v>       0.00308642 </v>
   <v>       0.00308642 </v>
   <v>       0.00308642 </v>
   <v>       0.00154321 </v>
   <v>       0.00154321 </v>
   <v>       0.00308642 </v>
   <v>       0.00308642 </v>
   <v>       0.00308642 </v>
   <v>       0.00308642 </v>
   <v>       0.00308642 </v>
   <v>       0.00154321 </v>
   <v>       0.00154321 </v>
   <v>       0.00308642 </v>
   <v>       0.00308642 </v>
   <v>       0.00308642 </v>
   <v>       0.00154321 </v>
   <v>       0.00154321 </v>
   <v>       0.00308642 </v>
   <v>       0.00154321 </v>
   <v>       0.00077160 </v>
   <v>       0.00077160 </v>
   <v>       0.00308642 </v>
   <v>       0.00308642 </v>
   <v>       0.00308642 </v>
   <v>       0.00308642 </v>
   <v>       0.00308642 </v>
   <v>       0.00308642 </v>
   <v>       0.00308642 </v>
   <v>       0.00308642 </v>
   <v>       0.00154321 </v>
   <v>       0.00154321 </v>
   <v>       0.00308642 </v>
   <v>       0.00308642 </v>
   <v>       0.00308642 </v>
   <v>       0.00308642 </v>
   <v>       0.00308642 </v>
   <v>       0.00308642 </v>
   <v>       0.00308642 </v>
   <v>       0.00308642 </v>
   <v>       0.00308642 </v>
   <v>       0.00308642 </v>
   <v>       0.00308642 </v>
   <v>       0.00308642 </v>
   <v>       0.00308642 </v>
   <v>       0.00308642 </v>
   <v>       0.00308642 </v>
   <v>       0.00154321 </v>
   <v>       0.00154321 </v>
   <v>       0.00308642 </v>
   <v>       0.00308642 </v>
   <v>       0.00308642 </v>
   <v>       0.00308642 </v>
   <v>       0.00308642 </v>
   <v>       0.00308642 </v>
   <v>       0.00308642 </v>
   <v>       0.00308642 </v>
   <v>       0.00308642 </v>
   <v>       0.00308642 </v>
   <v>       0.00308642 </v>
   <v>       0.00308642 </v>
   <v>       0.00308642 </v>
   <v>       0.00154321 </v>
   <v>       0.00154321 </v>
   <v>       0.00308642 </v>
   <v>       0.00308642 </v>
   <v>       0.00308642 </v>
   <v>       0.00308642 </v>
   <v>       0.00308642 </v>
   <v>       0.00308642 </v>
   <v>       0.00308642 </v>
   <v>       0.00308642 </v>
   <v>       0.00308642 </v>
   <v>       0.00308642 </v>
   <v>       0.00308642 </v>
   <v>       0.00154321 </v>
   <v>       0.00154321 </v>
   <v>       0.00308642 </v>
   <v>       0.00308642 </v>
   <v>       0.00308642 </v>
   <v>       0.00308642 </v>
   <v>       0.00308642 </v>
   <v>       0.00308642 </v>
   <v>       0.00308642 </v>
   <v>       0.00308642 </v>
   <v>       0.00308642 </v>
   <v>       0.00154321 </v>
   <v>       0.00154321 </v>
   <v>       0.00308642 </v>
   <v>       0.00308642 </v>
   <v>       0.00308642 </v>
   <v>       0.00308642 </v>
   <v>       0.00308642 </v>
   <v>       0.00308642 </v>
   <v>       0.00308642 </v>
   <v>       0.00154321 </v>
   <v>       0.00154321 </v>
   <v>       0.00308642 </v>
   <v>       0.00308642 </v>
   <v>       0.00308642 </v>
   <v>       0.00308642 </v>
   <v>       0.00308642 </v>
   <v>       0.00154321 </v>
   <v>       0.00154321 </v>
   <v>       0.00308642 </v>
   <v>       0.00308642 </v>
   <v>       0.00308642 </v>
   <v>       0.00154321 </v>
   <v>       0.00154321 </v>
   <v>       0.00308642 </v>
   <v>       0.00154321 </v>
   <v>       0.00077160 </v>
   <v>       0.00038580 </v>
   <v>       0.00154321 </v>
   <v>       0.00154321 </v>
   <v>       0.00154321 </v>
   <v>       0.00154321 </v>
   <v>       0.00154321 </v>
   <v>       0.00154321 </v>
   <v>       0.00154321 </v>
   <v>       0.00154321 </v>
   <v>       0.00077160 </v>
   <v>       0.00077160 </v>
   <v>       0.00154321 </v>
   <v>       0.00154321 </v>
   <v>       0.00154321 </v>
   <v>       0.00154321 </v>
   <v>       0.00154321 </v>
   <v>       0.00154321 </v>
   <v>       0.00154321 </v>
   <v>       0.00154321 </v>
   <v>       0.00154321 </v>
   <v>       0.00154321 </v>
   <v>       0.00154321 </v>
   <v>       0.00154321 </v>
   <v>       0.00154321 </v>
   <v>       0.00154321 </v>
   <v>       0.00154321 </v>
   <v>       0.00077160 </v>
   <v>       0.00077160 </v>
   <v>       0.00154321 </v>
   <v>       0.00154321 </v>
   <v>       0.00154321 </v>
   <v>       0.00154321 </v>
   <v>       0.00154321 </v>
   <v>       0.00154321 </v>
   <v>       0.00154321 </v>
   <v>       0.00154321 </v>
   <v>       0.00154321 </v>
   <v>       0.00154321 </v>
   <v>       0.00154321 </v>
   <v>       0.00154321 </v>
   <v>       0.00154321 </v>
   <v>       0.00077160 </v>
   <v>       0.00077160 </v>
   <v>       0.00154321 </v>
   <v>       0.00154321 </v>
   <v>       0.00154321 </v>
   <v>       0.00154321 </v>
   <v>       0.00154321 </v>
   <v>       0.00154321 </v>
   <v>       0.00154321 </v>
   <v>       0.00154321 </v>
   <v>       0.00154321 </v>
   <v>       0.00154321 </v>
   <v>       0.00154321 </v>
   <v>       0.00077160 </v>
   <v>       0.00077160 </v>
   <v>       0.00154321 </v>
   <v>       0.00154321 </v>
   <v>       0.00154321 </v>
   <v>       0.00154321 </v>
   <v>       0.00154321 </v>
   <v>       0.00154321 </v>
   <v>       0.00154321 </v>
   <v>       0.00154321 </v>
   <v>       0.00154321 </v>
   <v>       0.00077160 </v>
   <v>       0.00077160 </v>
   <v>       0.00154321 </v>
   <v>       0.00154321 </v>
   <v>       0.00154321 </v>
   <v>       0.00154321 </v>
   <v>       0.00154321 </v>
   <v>       0.00154321 </v>
   <v>       0.00154321 </v>
   <v>       0.00077160 </v>
   <v>       0.00077160 </v>
   <v>       0.00154321 </v>
   <v>       0.00154321 </v>
   <v>       0.00154321 </v>
   <v>       0.00154321 </v>
   <v>       0.00154321 </v>
   <v>       0.00077160 </v>
   <v>       0.00077160 </v>
   <v>       0.00154321 </v>
   <v>       0.00154321 </v>
   <v>       0.00154321 </v>
   <v>       0.00077160 </v>
   <v>       0.00077160 </v>
   <v>       0.00154321 </v>
   <v>       0.00077160 </v>
   <v>       0.00038580 </v>
  </varray>
  <varray name="tetrahedronlist"  type="int" >
   <v type="int" >        4        2        2       11       93 </v>
   <v type="int" >        4        1        2        2       93 </v>
   <v type="int" >        4        1        2       92       93 </v>
   <v type="int" >        4        2       11       93      102 </v>
   <v type="int" >        4        2       93       93      102 </v>
   <v type="int" >        4        2       92       93       93 </v>
   <v type="int" >        4        3       11       12      102 </v>
   <v type="int" >        4        2        3       11      102 </v>
   <v type="int" >        4        2        3       93      102 </v>
   <v type="int" >        4        3       12      102      103 </v>
   <v type="int" >        4        3       94      102      103 </v>
   <v type="int" >        4        3       93       94      102 </v>
   <v type="int" >        4        4       12       13      103 </v>
   <v type="int" >        4        3        4       12      103 </v>
   <v type="int" >        4        3        4       94      103 </v>
   <v type="int" >        4        4       13      103      104 </v>
   <v type="int" >        4        4       95      103      104 </v>
   <v type="int" >        4        4       94       95      103 </v>
   <v type="int" >        4        5       13       14      104 </v>
   <v type="int" >        4        4        5       13      104 </v>
   <v type="int" >        4        4        5       95      104 </v>
   <v type="int" >        4        5       14      104      105 </v>
   <v type="int" >        4        5       96      104      105 </v>
   <v type="int" >        4        5       95       96      104 </v>
   <v type="int" >        4        6       14       15      105 </v>
   <v type="int" >        4        5        6       14      105 </v>
   <v type="int" >        4        5        6       96      105 </v>
   <v type="int" >        4        6       15      105      106 </v>
   <v type="int" >        4        6       97      105      106 </v>
   <v type="int" >        4        6       96       97      105 </v>
   <v type="int" >        4        7       15       16      106 </v>
   <v type="int" >        4        6        7       15      106 </v>
   <v type="int" >        4        6        7       97      106 </v>
   <v type="int" >        4        7       16      106      107 </v>
   <v type="int" >        4        7       98      106      107 </v>
   <v type="int" >        4        7       97       98      106 </v>
   <v type="int" >        4        8       16       17      107 </v>
   <v type="int" >        4        7        8       16      107 </v>
   <v type="int" >        4        7        8       98      107 </v>
   <v type="int" >        4        8       17      107      108 </v>
   <v type="int" >        4        8       99      107      108 </v>
   <v type="int" >        4        8       98       99      107 </v>
   <v type="int" >        4        9       17       18      108 </v>
   <v type="int" >        4        8        9       17      108 </v>
   <v type="int" >        4        8        9       99      108 </v>
   <v type="int" >        4        9       18      108      109 </v>
   <v type="int" >        4        9      100      108      109 </v>
   <v type="int" >        4        9       99      100      108 </v>
   <v type="int" >        4       10       18       19      109 </v>
   <v type="int" >        4        9       10       18      109 </v>
   <v type="int" >        4        9       10      100      109 </v>
   <v type="int" >        4       10       19      109      110 </v>
   <v type="int" >        4       10      101      109      110 </v>
   <v type="int" >        4       10      100      101      109 </v>
   <v type="int" >        4        9       19       20      110 </v>
   <v type="int" >        4        9       10       19      110 </v>
   <v type="int" >        4        9       10      101      110 </v>
   <v type="int" >        4        9       20      110      111 </v>
   <v type="int" >        4        9      100      110      111 </v>
   <v type="int" >        4        9      100      101      110 </v>
   <v type="int" >        4        8       20       21      111 </v>
   <v type="int" >        4        8        9       20      111 </v>
   <v type="int" >        4        8        9      100      111 </v>
   <v type="int" >        4        8       21      111      112 </v>
   <v type="int" >        4        8       99      111      112 </v>
   <v type="int" >        4        8       99      100      111 </v>
   <v type="int" >        4        7       21       22      112 </v>
   <v type="int" >        4        7        8       21      112 </v>
   <v type="int" >        4        7        8       99      112 </v>
   <v type="int" >        4        7       22      112      113 </v>
   <v type="int" >        4        7       98      112      113 </v>
   <v type="int" >        4        7       98       99      112 </v>
   <v type="int" >        4        6       22       23      113 </v>
   <v type="int" >        4        6        7       22      113 </v>
   <v type="int" >        4        6        7       98      113 </v>
   <v type="int" >        4        6       23      113      114 </v>
   <v type="int" >        4        6       97      113      114 </v>
   <v type="int" >        4        6       97       98      113 </v>
   <v type="int" >        4        5       23       24      114 </v>
   <v type="int" >        4        5        6       23      114 </v>
   <v type="int" >        4        5        6       97      114 </v>
   <v type="int" >        4        5       24      114      115 </v>
   <v type="int" >        4        5       96      114      115 </v>
   <v type="int" >        4        5       96       97      114 </v>
   <v type="int" >        4        4       24       25      115 </v>
   <v type="int" >        4        4        5       24      115 </v>
   <v type="int" >        4        4        5       96      115 </v>
   <v type="int" >        4        4       25      115      116 </v>
   <v type="int" >        4        4       95      115      116 </v>
   <v type="int" >        4        4       95       96      115 </v>
   <v type="int" >        4        3       25       26      116 </v>
   <v type="int" >        4        3        4       25      116 </v>
   <v type="int" >        4        3        4       95      116 </v>
   <v type="int" >        4        3       26      116      117 </v>
   <v type="int" >        4        3       94      116      117 </v>
   <v type="int" >        4        3       94       95      116 </v>
   <v type="int" >        4        2       26       27      117 </v>
   <v type="int" >        4        2        3       26      117 </v>
   <v type="int" >        4        2        3       94      117 </v>
   <v type="int" >        4        2       27      117      118 </v>
   <v type="int" >        4        2       93      117      118 </v>
   <v type="int" >        4        2       93       94      117 </v>
   <v type="int" >        4        1        2       27      118 </v>
   <v type="int" >        4        1        2       93      118 </v>
   <v type="int" >        4        1       92       93      118 </v>
   <v type="int" >        4        3       11       12       94 </v>
   <v type="int" >        4        2        3       11       94 </v>
   <v type="int" >        4        2       11       93       94 </v>
   <v type="int" >        4       11       12       94      103 </v>
   <v type="int" >        4       11       94      102      103 </v>
   <v type="int" >        4       11       93       94      102 </v>
   <v type="int" >        4       12       12       28      103 </v>
   <v type="int" >        4       11       12       12      103 </v>
   <v type="int" >        4       11       12      102      103 </v>
   <v type="int" >        4       12       28      103      119 </v>
   <v type="int" >        4       12      103      103      119 </v>
   <v type="int" >        4       12      102      103      103 </v>
   <v type="int" >        4       13       28       29      119 </v>
   <v type="int" >        4       12       13       28      119 </v>
   <v type="int" >        4       12       13      103      119 </v>
   <v type="int" >        4       13       29      119      120 </v>
   <v type="int" >        4       13      104      119      120 </v>
   <v type="int" >        4       13      103      104      119 </v>
   <v type="int" >        4       14       29       30      120 </v>
   <v type="int" >        4       13       14       29      120 </v>
   <v type="int" >        4       13       14      104      120 </v>
   <v type="int" >        4       14       30      120      121 </v>
   <v type="int" >        4       14      105      120      121 </v>
   <v type="int" >        4       14      104      105      120 </v>
   <v type="int" >        4       15       30       31      121 </v>
   <v type="int" >        4       14       15       30      121 </v>
   <v type="int" >        4       14       15      105      121 </v>
   <v type="int" >        4       15       31      121      122 </v>
   <v type="int" >        4       15      106      121      122 </v>
   <v type="int" >        4       15      105      106      121 </v>
   <v type="int" >        4       16       31       32      122 </v>
   <v type="int" >        4       15       16       31      122 </v>
   <v type="int" >        4       15       16      106      122 </v>
   <v type="int" >        4       16       32      122      123 </v>
   <v type="int" >        4       16      107      122      123 </v>
   <v type="int" >        4       16      106      107      122 </v>
   <v type="int" >        4       17       32       33      123 </v>
   <v type="int" >        4       16       17       32      123 </v>
   <v type="int" >        4       16       17      107      123 </v>
   <v type="int" >        4       17       33      123      124 </v>
   <v type="int" >        4       17      108      123      124 </v>
   <v type="int" >        4       17      107      108      123 </v>
   <v type="int" >        4       18       33       34      124 </v>
   <v type="int" >        4       17       18       33      124 </v>
   <v type="int" >        4       17       18      108      124 </v>
   <v type="int" >        4       18       34      124      125 </v>
   <v type="int" >        4       18      109      124      125 </v>
   <v type="int" >        4       18      108      109      124 </v>
   <v type="int" >        4       19       34       35      125 </v>
   <v type="int" >        4       18       19       34      125 </v>
   <v type="int" >        4       18       19      109      125 </v>
   <v type="int" >        4       19       35      125      126 </v>
   <v type="int" >        4       19      110      125      126 </v>
   <v type="int" >        4       19      109      110      125 </v>
   <v type="int" >        4       20       35       36      126 </v>
   <v type="int" >        4       19       20       35      126 </v>
   <v type="int" >        4       19       20      110      126 </v>
   <v type="int" >        4       20       36      126      127 </v>
   <v type="int" >        4       20      111      126      127 </v>
   <v type="int" >        4       20      110      111      126 </v>
   <v type="int" >        4       21       36       37      127 </v>
   <v type="int" >        4       20       21       36      127 </v>
   <v type="int" >        4       20       21      111      127 </v>
   <v type="int" >        4       21       37      127      128 </v>
   <v type="int" >        4       21      112      127      128 </v>
   <v type="int" >        4       21      111      112      127 </v>
   <v type="int" >        4       22       37       38      128 </v>
   <v type="int" >        4       21       22       37      128 </v>
   <v type="int" >        4       21       22      112      128 </v>
   <v type="int" >        4       22       38      128      129 </v>
   <v type="int" >        4       22      113      128      129 </v>
   <v type="int" >        4       22      112      113      128 </v>
   <v type="int" >        4       23       38       39      129 </v>
   <v type="int" >        4       22       23       38      129 </v>
   <v type="int" >        4       22       23      113      129 </v>
   <v type="int" >        4       23       39      129      130 </v>
   <v type="int" >        4       23      114      129      130 </v>
   <v type="int" >        4       23      113      114      129 </v>
   <v type="int" >        4       24       39       40      130 </v>
   <v type="int" >        4       23       24       39      130 </v>
   <v type="int" >        4       23       24      114      130 </v>
   <v type="int" >        4       24       40      130      131 </v>
   <v type="int" >        4       24      115      130      131 </v>
   <v type="int" >        4       24      114      115      130 </v>
   <v type="int" >        4       25       40       41      131 </v>
   <v type="int" >        4       24       25       40      131 </v>
   <v type="int" >        4       24       25      115      131 </v>
   <v type="int" >        4       25       41      131      132 </v>
   <v type="int" >        4       25      116      131      132 </v>
   <v type="int" >        4       25      115      116      131 </v>
   <v type="int" >        4       26       41       42      132 </v>
   <v type="int" >        4       25       26       41      132 </v>
   <v type="int" >        4       25       26      116      132 </v>
   <v type="int" >        4       26       42      132      133 </v>
   <v type="int" >        4       26      117      132      133 </v>
   <v type="int" >        4       26      116      117      132 </v>
   <v type="int" >        4       26       27       42      133 </v>
   <v type="int" >        4       26       27      117      133 </v>
   <v type="int" >        4       27      117      118      133 </v>
   <v type="int" >        4        4       12       13       95 </v>
   <v type="int" >        4        3        4       12       95 </v>
   <v type="int" >        4        3       12       94       95 </v>
   <v type="int" >        4       12       13       95      104 </v>
   <v type="int" >        4       12       95      103      104 </v>
   <v type="int" >        4       12       94       95      103 </v>
   <v type="int" >        4       13       28       29      104 </v>
   <v type="int" >        4       12       13       28      104 </v>
   <v type="int" >        4       12       28      103      104 </v>
   <v type="int" >        4       28       29      104      120 </v>
   <v type="int" >        4       28      104      119      120 </v>
   <v type="int" >        4       28      103      104      119 </v>
   <v type="int" >        4       29       29       43      120 </v>
   <v type="int" >        4       28       29       29      120 </v>
   <v type="int" >        4       28       29      119      120 </v>
   <v type="int" >        4       29       43      120      134 </v>
   <v type="int" >        4       29      120      120      134 </v>
   <v type="int" >        4       29      119      120      120 </v>
   <v type="int" >        4       30       43       44      134 </v>
   <v type="int" >        4       29       30       43      134 </v>
   <v type="int" >        4       29       30      120      134 </v>
   <v type="int" >        4       30       44      134      135 </v>
   <v type="int" >        4       30      121      134      135 </v>
   <v type="int" >        4       30      120      121      134 </v>
   <v type="int" >        4       31       44       45      135 </v>
   <v type="int" >        4       30       31       44      135 </v>
   <v type="int" >        4       30       31      121      135 </v>
   <v type="int" >        4       31       45      135      136 </v>
   <v type="int" >        4       31      122      135      136 </v>
   <v type="int" >        4       31      121      122      135 </v>
   <v type="int" >        4       32       45       46      136 </v>
   <v type="int" >        4       31       32       45      136 </v>
   <v type="int" >        4       31       32      122      136 </v>
   <v type="int" >        4       32       46      136      137 </v>
   <v type="int" >        4       32      123      136      137 </v>
   <v type="int" >        4       32      122      123      136 </v>
   <v type="int" >        4       33       46       47      137 </v>
   <v type="int" >        4       32       33       46      137 </v>
   <v type="int" >        4       32       33      123      137 </v>
   <v type="int" >        4       33       47      137      138 </v>
   <v type="int" >        4       33      124      137      138 </v>
   <v type="int" >        4       33      123      124      137 </v>
   <v type="int" >        4       34       47       48      138 </v>
   <v type="int" >        4       33       34       47      138 </v>
   <v type="int" >        4       33       34      124      138 </v>
   <v type="int" >        4       34       48      138      139 </v>
   <v type="int" >        4       34      125      138      139 </v>
   <v type="int" >        4       34      124      125      138 </v>
   <v type="int" >        4       35       48       49      139 </v>
   <v type="int" >        4       34       35       48      139 </v>
   <v type="int" >        4       34       35      125      139 </v>
   <v type="int" >        4       35       49      139      140 </v>
   <v type="int" >        4       35      126      139      140 </v>
   <v type="int" >        4       35      125      126      139 </v>
   <v type="int" >        4       36       49       50      140 </v>
   <v type="int" >        4       35       36       49      140 </v>
   <v type="int" >        4       35       36      126      140 </v>
   <v type="int" >        4       36       50      140      141 </v>
   <v type="int" >        4       36      127      140      141 </v>
   <v type="int" >        4       36      126      127      140 </v>
   <v type="int" >        4       37       50       51      141 </v>
   <v type="int" >        4       36       37       50      141 </v>
   <v type="int" >        4       36       37      127      141 </v>
   <v type="int" >        4       37       51      141      142 </v>
   <v type="int" >        4       37      128      141      142 </v>
   <v type="int" >        4       37      127      128      141 </v>
   <v type="int" >        4       38       51       52      142 </v>
   <v type="int" >        4       37       38       51      142 </v>
   <v type="int" >        4       37       38      128      142 </v>
   <v type="int" >        4       38       52      142      143 </v>
   <v type="int" >        4       38      129      142      143 </v>
   <v type="int" >        4       38      128      129      142 </v>
   <v type="int" >        4       39       52       53      143 </v>
   <v type="int" >        4       38       39       52      143 </v>
   <v type="int" >        4       38       39      129      143 </v>
   <v type="int" >        4       39       53      143      144 </v>
   <v type="int" >        4       39      130      143      144 </v>
   <v type="int" >        4       39      129      130      143 </v>
   <v type="int" >        4       40       53       54      144 </v>
   <v type="int" >        4       39       40       53      144 </v>
   <v type="int" >        4       39       40      130      144 </v>
   <v type="int" >        4       40       54      144      145 </v>
   <v type="int" >        4       40      131      144      145 </v>
   <v type="int" >        4       40      130      131      144 </v>
   <v type="int" >        4       41       54       55      145 </v>
   <v type="int" >        4       40       41       54      145 </v>
   <v type="int" >        4       40       41      131      145 </v>
   <v type="int" >        4       41       55      145      146 </v>
   <v type="int" >        4       41      132      145      146 </v>
   <v type="int" >        4       41      131      132      145 </v>
   <v type="int" >        4       41       42       55      146 </v>
   <v type="int" >        4       41       42      132      146 </v>
   <v type="int" >        4       42      132      133      146 </v>
   <v type="int" >        4        5       13       14       96 </v>
   <v type="int" >        4        4        5       13       96 </v>
   <v type="int" >        4        4       13       95       96 </v>
   <v type="int" >        4       13       14       96      105 </v>
   <v type="int" >        4       13       96      104      105 </v>
   <v type="int" >        4       13       95       96      104 </v>
   <v type="int" >        4       14       29       30      105 </v>
   <v type="int" >        4       13       14       29      105 </v>
   <v type="int" >        4       13       29      104      105 </v>
   <v type="int" >        4       29       30      105      121 </v>
   <v type="int" >        4       29      105      120      121 </v>
   <v type="int" >        4       29      104      105      120 </v>
   <v type="int" >        4       30       43       44      121 </v>
   <v type="int" >        4       29       30       43      121 </v>
   <v type="int" >        4       29       43      120      121 </v>
   <v type="int" >        4       43       44      121      135 </v>
   <v type="int" >        4       43      121      134      135 </v>
   <v type="int" >        4       43      120      121      134 </v>
   <v type="int" >        4       44       44       56      135 </v>
   <v type="int" >        4       43       44       44      135 </v>
   <v type="int" >        4       43       44      134      135 </v>
   <v type="int" >        4       44       56      135      147 </v>
   <v type="int" >        4       44      135      135      147 </v>
   <v type="int" >        4       44      134      135      135 </v>
   <v type="int" >        4       45       56       57      147 </v>
   <v type="int" >        4       44       45       56      147 </v>
   <v type="int" >        4       44       45      135      147 </v>
   <v type="int" >        4       45       57      147      148 </v>
   <v type="int" >        4       45      136      147      148 </v>
   <v type="int" >        4       45      135      136      147 </v>
   <v type="int" >        4       46       57       58      148 </v>
   <v type="int" >        4       45       46       57      148 </v>
   <v type="int" >        4       45       46      136      148 </v>
   <v type="int" >        4       46       58      148      149 </v>
   <v type="int" >        4       46      137      148      149 </v>
   <v type="int" >        4       46      136      137      148 </v>
   <v type="int" >        4       47       58       59      149 </v>
   <v type="int" >        4       46       47       58      149 </v>
   <v type="int" >        4       46       47      137      149 </v>
   <v type="int" >        4       47       59      149      150 </v>
   <v type="int" >        4       47      138      149      150 </v>
   <v type="int" >        4       47      137      138      149 </v>
   <v type="int" >        4       48       59       60      150 </v>
   <v type="int" >        4       47       48       59      150 </v>
   <v type="int" >        4       47       48      138      150 </v>
   <v type="int" >        4       48       60      150      151 </v>
   <v type="int" >        4       48      139      150      151 </v>
   <v type="int" >        4       48      138      139      150 </v>
   <v type="int" >        4       49       60       61      151 </v>
   <v type="int" >        4       48       49       60      151 </v>
   <v type="int" >        4       48       49      139      151 </v>
   <v type="int" >        4       49       61      151      152 </v>
   <v type="int" >        4       49      140      151      152 </v>
   <v type="int" >        4       49      139      140      151 </v>
   <v type="int" >        4       50       61       62      152 </v>
   <v type="int" >        4       49       50       61      152 </v>
   <v type="int" >        4       49       50      140      152 </v>
   <v type="int" >        4       50       62      152      153 </v>
   <v type="int" >        4       50      141      152      153 </v>
   <v type="int" >        4       50      140      141      152 </v>
   <v type="int" >        4       51       62       63      153 </v>
   <v type="int" >        4       50       51       62      153 </v>
   <v type="int" >        4       50       51      141      153 </v>
   <v type="int" >        4       51       63      153      154 </v>
   <v type="int" >        4       51      142      153      154 </v>
   <v type="int" >        4       51      141      142      153 </v>
   <v type="int" >        4       52       63       64      154 </v>
   <v type="int" >        4       51       52       63      154 </v>
   <v type="int" >        4       51       52      142      154 </v>
   <v type="int" >        4       52       64      154      155 </v>
   <v type="int" >        4       52      143      154      155 </v>
   <v type="int" >        4       52      142      143      154 </v>
   <v type="int" >        4       53       64       65      155 </v>
   <v type="int" >        4       52       53       64      155 </v>
   <v type="int" >        4       52       53      143      155 </v>
   <v type="int" >        4       53       65      155      156 </v>
   <v type="int" >        4       53      144      155      156 </v>
   <v type="int" >        4       53      143      144      155 </v>
   <v type="int" >        4       54       65       66      156 </v>
   <v type="int" >        4       53       54       65      156 </v>
   <v type="int" >        4       53       54      144      156 </v>
   <v type="int" >        4       54       66      156      157 </v>
   <v type="int" >        4       54      145      156      157 </v>
   <v type="int" >        4       54      144      145      156 </v>
   <v type="int" >        4       54       55       66      157 </v>
   <v type="int" >        4       54       55      145      157 </v>
   <v type="int" >        4       55      145      146      157 </v>
   <v type="int" >        4        6       14       15       97 </v>
   <v type="int" >        4        5        6       14       97 </v>
   <v type="int" >        4        5       14       96       97 </v>
   <v type="int" >        4       14       15       97      106 </v>
   <v type="int" >        4       14       97      105      106 </v>
   <v type="int" >        4       14       96       97      105 </v>
   <v type="int" >        4       15       30       31      106 </v>
   <v type="int" >        4       14       15       30      106 </v>
   <v type="int" >        4       14       30      105      106 </v>
   <v type="int" >        4       30       31      106      122 </v>
   <v type="int" >        4       30      106      121      122 </v>
   <v type="int" >        4       30      105      106      121 </v>
   <v type="int" >        4       31       44       45      122 </v>
   <v type="int" >        4       30       31       44      122 </v>
   <v type="int" >        4       30       44      121      122 </v>
   <v type="int" >        4       44       45      122      136 </v>
   <v type="int" >        4       44      122      135      136 </v>
   <v type="int" >        4       44      121      122      135 </v>
   <v type="int" >        4       45       56       57      136 </v>
   <v type="int" >        4       44       45       56      136 </v>
   <v type="int" >        4       44       56      135      136 </v>
   <v type="int" >        4       56       57      136      148 </v>
   <v type="int" >        4       56      136      147      148 </v>
   <v type="int" >        4       56      135      136      147 </v>
   <v type="int" >        4       57       57       67      148 </v>
   <v type="int" >        4       56       57       57      148 </v>
   <v type="int" >        4       56       57      147      148 </v>
   <v type="int" >        4       57       67      148      158 </v>
   <v type="int" >        4       57      148      148      158 </v>
   <v type="int" >        4       57      147      148      148 </v>
   <v type="int" >        4       58       67       68      158 </v>
   <v type="int" >        4       57       58       67      158 </v>
   <v type="int" >        4       57       58      148      158 </v>
   <v type="int" >        4       58       68      158      159 </v>
   <v type="int" >        4       58      149      158      159 </v>
   <v type="int" >        4       58      148      149      158 </v>
   <v type="int" >        4       59       68       69      159 </v>
   <v type="int" >        4       58       59       68      159 </v>
   <v type="int" >        4       58       59      149      159 </v>
   <v type="int" >        4       59       69      159      160 </v>
   <v type="int" >        4       59      150      159      160 </v>
   <v type="int" >        4       59      149      150      159 </v>
   <v type="int" >        4       60       69       70      160 </v>
   <v type="int" >        4       59       60       69      160 </v>
   <v type="int" >        4       59       60      150      160 </v>
   <v type="int" >        4       60       70      160      161 </v>
   <v type="int" >        4       60      151      160      161 </v>
   <v type="int" >        4       60      150      151      160 </v>
   <v type="int" >        4       61       70       71      161 </v>
   <v type="int" >        4       60       61       70      161 </v>
   <v type="int" >        4       60       61      151      161 </v>
   <v type="int" >        4       61       71      161      162 </v>
   <v type="int" >        4       61      152      161      162 </v>
   <v type="int" >        4       61      151      152      161 </v>
   <v type="int" >        4       62       71       72      162 </v>
   <v type="int" >        4       61       62       71      162 </v>
   <v type="int" >        4       61       62      152      162 </v>
   <v type="int" >        4       62       72      162      163 </v>
   <v type="int" >        4       62      153      162      163 </v>
   <v type="int" >        4       62      152      153      162 </v>
   <v type="int" >        4       63       72       73      163 </v>
   <v type="int" >        4       62       63       72      163 </v>
   <v type="int" >        4       62       63      153      163 </v>
   <v type="int" >        4       63       73      163      164 </v>
   <v type="int" >        4       63      154      163      164 </v>
   <v type="int" >        4       63      153      154      163 </v>
   <v type="int" >        4       64       73       74      164 </v>
   <v type="int" >        4       63       64       73      164 </v>
   <v type="int" >        4       63       64      154      164 </v>
   <v type="int" >        4       64       74      164      165 </v>
   <v type="int" >        4       64      155      164      165 </v>
   <v type="int" >        4       64      154      155      164 </v>
   <v type="int" >        4       65       74       75      165 </v>
   <v type="int" >        4       64       65       74      165 </v>
   <v type="int" >        4       64       65      155      165 </v>
   <v type="int" >        4       65       75      165      166 </v>
   <v type="int" >        4       65      156      165      166 </v>
   <v type="int" >        4       65      155      156      165 </v>
   <v type="int" >        4       65       66       75      166 </v>
   <v type="int" >        4       65       66      156      166 </v>
   <v type="int" >        4       66      156      157      166 </v>
   <v type="int" >        4        7       15       16       98 </v>
   <v type="int" >        4        6        7       15       98 </v>
   <v type="int" >        4        6       15       97       98 </v>
   <v type="int" >        4       15       16       98      107 </v>
   <v type="int" >        4       15       98      106      107 </v>
   <v type="int" >        4       15       97       98      106 </v>
   <v type="int" >        4       16       31       32      107 </v>
   <v type="int" >        4       15       16       31      107 </v>
   <v type="int" >        4       15       31      106      107 </v>
   <v type="int" >        4       31       32      107      123 </v>
   <v type="int" >        4       31      107      122      123 </v>
   <v type="int" >        4       31      106      107      122 </v>
   <v type="int" >        4       32       45       46      123 </v>
   <v type="int" >        4       31       32       45      123 </v>
   <v type="int" >        4       31       45      122      123 </v>
   <v type="int" >        4       45       46      123      137 </v>
   <v type="int" >        4       45      123      136      137 </v>
   <v type="int" >        4       45      122      123      136 </v>
   <v type="int" >        4       46       57       58      137 </v>
   <v type="int" >        4       45       46       57      137 </v>
   <v type="int" >        4       45       57      136      137 </v>
   <v type="int" >        4       57       58      137      149 </v>
   <v type="int" >        4       57      137      148      149 </v>
   <v type="int" >        4       57      136      137      148 </v>
   <v type="int" >        4       58       67       68      149 </v>
   <v type="int" >        4       57       58       67      149 </v>
   <v type="int" >        4       57       67      148      149 </v>
   <v type="int" >        4       67       68      149      159 </v>
   <v type="int" >        4       67      149      158      159 </v>
   <v type="int" >        4       67      148      149      158 </v>
   <v type="int" >        4       68       68       76      159 </v>
   <v type="int" >        4       67       68       68      159 </v>
   <v type="int" >        4       67       68      158      159 </v>
   <v type="int" >        4       68       76      159      167 </v>
   <v type="int" >        4       68      159      159      167 </v>
   <v type="int" >        4       68      158      159      159 </v>
   <v type="int" >        4       69       76       77      167 </v>
   <v type="int" >        4       68       69       76      167 </v>
   <v type="int" >        4       68       69      159      167 </v>
   <v type="int" >        4       69       77      167      168 </v>
   <v type="int" >        4       69      160      167      168 </v>
   <v type="int" >        4       69      159      160      167 </v>
   <v type="int" >        4       70       77       78      168 </v>
   <v type="int" >        4       69       70       77      168 </v>
   <v type="int" >        4       69       70      160      168 </v>
   <v type="int" >        4       70       78      168      169 </v>
   <v type="int" >        4       70      161      168      169 </v>
   <v type="int" >        4       70      160      161      168 </v>
   <v type="int" >        4       71       78       79      169 </v>
   <v type="int" >        4       70       71       78      169 </v>
   <v type="int" >        4       70       71      161      169 </v>
   <v type="int" >        4       71       79      169      170 </v>
   <v type="int" >        4       71      162      169      170 </v>
   <v type="int" >        4       71      161      162      169 </v>
   <v type="int" >        4       72       79       80      170 </v>
   <v type="int" >        4       71       72       79      170 </v>
   <v type="int" >        4       71       72      162      170 </v>
   <v type="int" >        4       72       80      170      171 </v>
   <v type="int" >        4       72      163      170      171 </v>
   <v type="int" >        4       72      162      163      170 </v>
   <v type="int" >        4       73       80       81      171 </v>
   <v type="int" >        4       72       73       80      171 </v>
   <v type="int" >        4       72       73      163      171 </v>
[...]
       <r>   -5.0803    1.0000 </r>
       <r>   -5.0803    1.0000 </r>
       <r>   -3.4767    1.0000 </r>
       <r>   -3.4767    1.0000 </r>
       <r>    1.0227    1.0000 </r>
       <r>    1.0227    1.0000 </r>
       <r>    8.0997    1.0000 </r>
       <r>    8.0997    1.0000 </r>
       <r>   11.1966    0.0000 </r>
       <r>   11.1966    0.0000 </r>
       <r>   19.0600    0.0000 </r>
       <r>   19.0600    0.0000 </r>
      </set>
      <set comment="kpoint 449">
       <r>   -5.8245    1.0000 </r>
       <r>   -5.8245    1.0000 </r>
       <r>   -3.1227    1.0000 </r>
       <r>   -3.1227    1.0000 </r>
       <r>    2.0561    1.0000 </r>
       <r>    2.0561    1.0000 </r>
       <r>    7.5339    1.0000 </r>
       <r>    7.5339    1.0000 </r>
       <r>   11.6258    0.0000 </r>
       <r>   11.6258    0.0000 </r>
       <r>   17.9397    0.0000 </r>
       <r>   17.9397    0.0000 </r>
      </set>
      <set comment="kpoint 450">
       <r>   -6.5003    1.0000 </r>
       <r>   -6.5003    1.0000 </r>
       <r>   -2.5955    1.0000 </r>
       <r>   -2.5955    1.0000 </r>
       <r>    2.8514    1.0000 </r>
       <r>    2.8514    1.0000 </r>
       <r>    6.9921    1.0000 </r>
       <r>    6.9921    1.0000 </r>
       <r>   12.0876    0.0000 </r>
       <r>   12.0876    0.0000 </r>
       <r>   17.2086    0.0000 </r>
       <r>   17.2086    0.0000 </r>
      </set>
      <set comment="kpoint 451">
       <r>   -7.0606    1.0000 </r>
       <r>   -7.0606    1.0000 </r>
       <r>   -1.9385    1.0000 </r>
       <r>   -1.9385    1.0000 </r>
       <r>    3.2381    1.0000 </r>
       <r>    3.2381    1.0000 </r>
       <r>    6.5203    1.0000 </r>
       <r>    6.5203    1.0000 </r>
       <r>   12.5960    0.0000 </r>
       <r>   12.5960    0.0000 </r>
       <r>   17.0667    0.0000 </r>
       <r>   17.0667    0.0000 </r>
      </set>
      <set comment="kpoint 452">
       <r>   -5.0481    1.0000 </r>
       <r>   -5.0481    1.0000 </r>
       <r>   -4.0038    1.0000 </r>
       <r>   -4.0038    1.0000 </r>
       <r>    1.9802    1.0000 </r>
       <r>    1.9802    1.0000 </r>
       <r>    7.9142    1.0000 </r>
       <r>    7.9142    1.0000 </r>
       <r>   11.1819    0.0000 </r>
       <r>   11.1819    0.0000 </r>
       <r>   17.8589    0.0000 </r>
       <r>   17.8589    0.0000 </r>
      </set>
      <set comment="kpoint 453">
       <r>   -5.4750    1.0000 </r>
       <r>   -5.4750    1.0000 </r>
       <r>   -3.8386    1.0000 </r>
       <r>   -3.8386    1.0000 </r>
       <r>    2.7050    1.0000 </r>
       <r>    2.7050    1.0000 </r>
       <r>    7.6327    1.0000 </r>
       <r>    7.6327    1.0000 </r>
       <r>   11.3163    0.0000 </r>
       <r>   11.3163    0.0000 </r>
       <r>   17.0398    0.0000 </r>
       <r>   17.0398    0.0000 </r>
      </set>
      <set comment="kpoint 454">
       <r>   -6.0282    1.0000 </r>
       <r>   -6.0282    1.0000 </r>
       <r>   -3.2992    1.0000 </r>
       <r>   -3.2992    1.0000 </r>
       <r>    3.0220    1.0000 </r>
       <r>    3.0220    1.0000 </r>
       <r>    7.3038    1.0000 </r>
       <r>    7.3038    1.0000 </r>
       <r>   11.6270    0.0000 </r>
       <r>   11.6270    0.0000 </r>
       <r>   16.8035    0.0000 </r>
       <r>   16.8035    0.0000 </r>
      </set>
      <set comment="kpoint 455">
       <r>   -5.2416    1.0000 </r>
       <r>   -5.2416    1.0000 </r>
       <r>   -4.1964    1.0000 </r>
       <r>   -4.1964    1.0000 </r>
       <r>    2.9491    1.0000 </r>
       <r>    2.9491    1.0000 </r>
       <r>    7.6754    1.0000 </r>
       <r>    7.6754    1.0000 </r>
       <r>   11.1885    0.0000 </r>
       <r>   11.1885    0.0000 </r>
       <r>   16.7162    0.0000 </r>
       <r>   16.7162    0.0000 </r>
      </set>
     </set>
    </set>
   </array>
  </eigenvalues>
  <separator name="orbital magnetization" >
   <v name="MAGDIPOLOUT">      0.00000000      0.00000000      0.00000000</v>
  </separator>
  <dos>
   <i name="efermi">      9.74106640 </i>
   <total>
    <array>
     <dimension dim="1">gridpoints</dimension>
     <dimension dim="2">spin</dimension>
     <field>energy</field>
     <field>total</field>
     <field>integrated</field>
     <set>
      <set comment="spin 1">
       <r>   -14.0742     0.0000     0.0000 </r>
       <r>   -13.9440     0.0000     0.0000 </r>
       <r>   -13.8137     0.0000     0.0000 </r>
       <r>   -13.6835     0.0000     0.0000 </r>
       <r>   -13.5532     0.0000     0.0000 </r>
       <r>   -13.4230     0.0000     0.0000 </r>
       <r>   -13.2928     0.0000     0.0000 </r>
       <r>   -13.1625     0.0000     0.0000 </r>
       <r>   -13.0323     0.0000     0.0000 </r>
       <r>   -12.9020     0.0000     0.0000 </r>
       <r>   -12.7718     0.0000     0.0000 </r>
       <r>   -12.6416     0.0000     0.0000 </r>
       <r>   -12.5113     0.0000     0.0000 </r>
       <r>   -12.3811     0.0000     0.0000 </r>
       <r>   -12.2508     0.0000     0.0000 </r>
       <r>   -12.1206     0.0000     0.0000 </r>
       <r>   -11.9904     0.0552     0.0017 </r>
       <r>   -11.8601     0.0994     0.0121 </r>
       <r>   -11.7299     0.1338     0.0277 </r>
       <r>   -11.5996     0.1604     0.0469 </r>
       <r>   -11.4694     0.1829     0.0694 </r>
       <r>   -11.3392     0.2024     0.0945 </r>
       <r>   -11.2089     0.2242     0.1223 </r>
       <r>   -11.0787     0.2415     0.1527 </r>
       <r>   -10.9484     0.2556     0.1850 </r>
       <r>   -10.8182     0.2718     0.2193 </r>
       <r>   -10.6880     0.2893     0.2558 </r>
       <r>   -10.5577     0.3048     0.2946 </r>
       <r>   -10.4275     0.3169     0.3351 </r>
       <r>   -10.2972     0.3303     0.3772 </r>
       <r>   -10.1670     0.3447     0.4212 </r>
       <r>   -10.0368     0.3600     0.4670 </r>
       <r>    -9.9065     0.3739     0.5149 </r>
       <r>    -9.7763     0.3861     0.5644 </r>
       <r>    -9.6460     0.3989     0.6155 </r>
       <r>    -9.5158     0.4127     0.6683 </r>
       <r>    -9.3856     0.4268     0.7230 </r>
       <r>    -9.2553     0.4412     0.7795 </r>
       <r>    -9.1251     0.4543     0.8378 </r>
       <r>    -8.9948     0.4695     0.8980 </r>
       <r>    -8.8646     0.4852     0.9601 </r>
       <r>    -8.7344     0.5011     1.0243 </r>
       <r>    -8.6041     0.5176     1.0907 </r>
       <r>    -8.4739     0.5348     1.1592 </r>
       <r>    -8.3436     0.5659     1.2307 </r>
       <r>    -8.2134     0.6029     1.3067 </r>
       <r>    -8.0832     0.6234     1.3872 </r>
       <r>    -7.9529     0.6268     1.4687 </r>
       <r>    -7.8227     0.6291     1.5505 </r>
       <r>    -7.6924     0.6306     1.6325 </r>
       <r>    -7.5622     0.6346     1.7149 </r>
       <r>    -7.4319     0.6373     1.7978 </r>
       <r>    -7.3017     0.6384     1.8808 </r>
       <r>    -7.1715     0.6435     1.9643 </r>
       <r>    -7.0412     0.6492     2.0484 </r>
       <r>    -6.9110     0.6560     2.1334 </r>
       <r>    -6.7807     0.6656     2.2194 </r>
       <r>    -6.6505     0.6956     2.3072 </r>
       <r>    -6.5203     0.7214     2.4007 </r>
       <r>    -6.3900     0.7041     2.4937 </r>
       <r>    -6.2598     0.6991     2.5841 </r>
       <r>    -6.1295     0.6816     2.6775 </r>
       <r>    -5.9993     0.6621     2.7648 </r>
       <r>    -5.8691     0.6337     2.8493 </r>
       <r>    -5.7388     0.6156     2.9306 </r>
       <r>    -5.6086     0.5997     3.0098 </r>
       <r>    -5.4783     0.6323     3.0888 </r>
       <r>    -5.3481     0.6312     3.1704 </r>
       <r>    -5.2179     0.7284     3.2581 </r>
       <r>    -5.0876     0.8200     3.3594 </r>
       <r>    -4.9574     0.7968     3.4718 </r>
       <r>    -4.8271     0.6715     3.5647 </r>
       <r>    -4.6969     0.6547     3.6548 </r>
       <r>    -4.5667     0.5671     3.7322 </r>
       <r>    -4.4364     0.3824     3.7918 </r>
       <r>    -4.3062     0.3143     3.8366 </r>
       <r>    -4.1759     0.3257     3.8758 </r>
       <r>    -4.0457     0.3841     3.9215 </r>
       <r>    -3.9155     0.5437     3.9829 </r>
       <r>    -3.7852     0.5149     4.0531 </r>
       <r>    -3.6550     0.5163     4.1182 </r>
       <r>    -3.5247     0.6604     4.1939 </r>
       <r>    -3.3945     0.6469     4.2780 </r>
       <r>    -3.2643     0.8183     4.3722 </r>
       <r>    -3.1340     1.0135     4.4914 </r>
       <r>    -3.0038     0.9138     4.6238 </r>
       <r>    -2.8735     0.7078     4.7247 </r>
       <r>    -2.7433     0.6491     4.8124 </r>
       <r>    -2.6131     0.6462     4.8963 </r>
       <r>    -2.4828     0.6712     4.9819 </r>
       <r>    -2.3526     0.6948     5.0707 </r>
       <r>    -2.2223     0.7081     5.1623 </r>
       <r>    -2.0921     0.7472     5.2557 </r>
       <r>    -1.9619     0.7564     5.3549 </r>
       <r>    -1.8316     0.6720     5.4463 </r>
       <r>    -1.7014     0.6397     5.5315 </r>
       <r>    -1.5711     0.6262     5.6137 </r>
       <r>    -1.4409     0.6228     5.6950 </r>
       <r>    -1.3106     0.6381     5.7768 </r>
       <r>    -1.1804     0.6967     5.8631 </r>
       <r>    -1.0502     0.7421     5.9573 </r>
       <r>    -0.9199     0.7519     6.0538 </r>
       <r>    -0.7897     0.7950     6.1544 </r>
       <r>    -0.6594     0.9241     6.2693 </r>
       <r>    -0.5292     0.8662     6.3833 </r>
       <r>    -0.3990     0.8832     6.4973 </r>
       <r>    -0.2687     0.9022     6.6134 </r>
       <r>    -0.1385     0.9233     6.7324 </r>
       <r>    -0.0082     0.9325     6.8534 </r>
       <r>     0.1220     0.9357     6.9752 </r>
       <r>     0.2522     0.9107     7.0963 </r>
       <r>     0.3825     0.9023     7.2138 </r>
       <r>     0.5127     0.9463     7.3335 </r>
       <r>     0.6430     1.0620     7.4639 </r>
       <r>     0.7732     1.1168     7.6158 </r>
       <r>     0.9034     0.9615     7.7471 </r>
       <r>     1.0337     0.9113     7.8690 </r>
       <r>     1.1639     0.9476     7.9878 </r>
       <r>     1.2942     1.0268     8.1175 </r>
       <r>     1.4244     1.0621     8.2538 </r>
       <r>     1.5546     1.1412     8.3964 </r>
       <r>     1.6849     1.1741     8.5483 </r>
       <r>     1.8151     1.1547     8.7007 </r>
       <r>     1.9454     1.1939     8.8505 </r>
       <r>     2.0756     1.2531     9.0059 </r>
       <r>     2.2058     1.4472     9.1911 </r>
       <r>     2.3361     1.4077     9.3793 </r>
       <r>     2.4663     1.3316     9.5563 </r>
       <r>     2.5966     1.4310     9.7357 </r>
       <r>     2.7268     1.4276     9.9214 </r>
       <r>     2.8570     1.4959    10.1113 </r>
       <r>     2.9873     1.4752    10.3062 </r>
       <r>     3.1175     1.4407    10.4978 </r>
       <r>     3.2478     1.4375    10.6845 </r>
       <r>     3.3780     1.4528    10.8733 </r>
       <r>     3.5082     1.4175    11.0612 </r>
       <r>     3.6385     1.2512    11.2323 </r>
       <r>     3.7687     1.4133    11.4066 </r>
       <r>     3.8990     1.3665    11.5879 </r>
       <r>     4.0292     1.2691    11.7595 </r>
       <r>     4.1594     1.2160    11.9208 </r>
       <r>     4.2897     1.1366    12.0742 </r>
       <r>     4.4199     1.1019    12.2193 </r>
       <r>     4.5502     1.0953    12.3622 </r>
       <r>     4.6804     1.0957    12.5047 </r>
       <r>     4.8107     1.0332    12.6438 </r>
       <r>     4.9409     1.0079    12.7760 </r>
       <r>     5.0711     0.9684    12.9048 </r>
       <r>     5.2014     0.9378    13.0287 </r>
       <r>     5.3316     0.9175    13.1497 </r>
       <r>     5.4619     0.9392    13.2708 </r>
       <r>     5.5921     0.8969    13.3914 </r>
       <r>     5.7223     0.8338    13.5035 </r>
       <r>     5.8526     0.7960    13.6087 </r>
       <r>     5.9828     0.7529    13.7108 </r>
       <r>     6.1131     0.6719    13.8029 </r>
       <r>     6.2433     0.6368    13.8871 </r>
       <r>     6.3735     0.5818    13.9669 </r>
       <r>     6.5038     0.5215    14.0382 </r>
       <r>     6.6340     0.4267    14.1018 </r>
       <r>     6.7643     0.3775    14.1513 </r>
       <r>     6.8945     0.4186    14.2043 </r>
       <r>     7.0247     0.4284    14.2602 </r>
       <r>     7.1550     0.4530    14.3175 </r>
       <r>     7.2852     0.4854    14.3784 </r>
       <r>     7.4155     0.5218    14.4441 </r>
       <r>     7.5457     0.5503    14.5140 </r>
       <r>     7.6759     0.6037    14.5886 </r>
       <r>     7.8062     0.6580    14.6707 </r>
       <r>     7.9364     0.7187    14.7602 </r>
       <r>     8.0667     0.7936    14.8593 </r>
       <r>     8.1969     0.8266    14.9640 </r>
       <r>     8.3271     0.8129    15.0709 </r>
       <r>     8.4574     0.7895    15.1748 </r>
       <r>     8.5876     0.7671    15.2765 </r>
       <r>     8.7179     0.7535    15.3763 </r>
       <r>     8.8481     0.7523    15.4743 </r>
       <r>     8.9783     0.6868    15.5682 </r>
       <r>     9.1086     0.6473    15.6547 </r>
       <r>     9.2388     0.6259    15.7377 </r>
       <r>     9.3691     0.6160    15.8187 </r>
       <r>     9.4993     0.5659    15.8947 </r>
       <r>     9.6295     0.4346    15.9607 </r>
       <r>     9.7598     0.2770    16.0053 </r>
       <r>     9.8900     0.2194    16.0377 </r>
       <r>    10.0203     0.1751    16.0632 </r>
       <r>    10.1505     0.1470    16.0839 </r>
       <r>    10.2807     0.1606    16.1038 </r>
       <r>    10.4110     0.1793    16.1259 </r>
       <r>    10.5412     0.2034    16.1508 </r>
       <r>    10.6715     0.2262    16.1785 </r>
       <r>    10.8017     0.2570    16.2099 </r>
       <r>    10.9320     0.2904    16.2455 </r>
       <r>    11.0622     0.3214    16.2854 </r>
       <r>    11.1924     0.5554    16.3298 </r>
       <r>    11.3227     0.6347    16.3951 </r>
       <r>    11.4529     0.7018    16.4852 </r>
       <r>    11.5832     0.6906    16.5767 </r>
       <r>    11.7134     0.6947    16.6662 </r>
       <r>    11.8436     0.7075    16.7583 </r>
       <r>    11.9739     0.6768    16.8481 </r>
       <r>    12.1041     0.6876    16.9366 </r>
       <r>    12.2344     0.7205    17.0281 </r>
       <r>    12.3646     0.6975    17.1196 </r>
       <r>    12.4948     0.6870    17.2100 </r>
       <r>    12.6251     0.6422    17.2972 </r>
       <r>    12.7553     0.5843    17.3762 </r>
       <r>    12.8856     0.5560    17.4504 </r>
       <r>    13.0158     0.5347    17.5213 </r>
       <r>    13.1460     0.5212    17.5900 </r>
       <r>    13.2763     0.5007    17.6567 </r>
       <r>    13.4065     0.4790    17.7203 </r>
       <r>    13.5368     0.4726    17.7821 </r>
       <r>    13.6670     0.4778    17.8440 </r>
       <r>    13.7972     0.4861    17.9067 </r>
       <r>    13.9275     0.4954    17.9707 </r>
       <r>    14.0577     0.5068    18.0359 </r>
       <r>    14.1880     0.5274    18.1029 </r>
       <r>    14.3182     0.5560    18.1734 </r>
       <r>    14.4484     0.6288    18.2494 </r>
       <r>    14.5787     0.6928    18.3360 </r>
       <r>    14.7089     0.7320    18.4288 </r>
       <r>    14.8392     0.7527    18.5262 </r>
       <r>    14.9694     0.7285    18.6238 </r>
       <r>    15.0996     0.6619    18.7120 </r>
       <r>    15.2299     0.6629    18.7980 </r>
       <r>    15.3601     0.6679    18.8845 </r>
       <r>    15.4904     0.6705    18.9717 </r>
       <r>    15.6206     0.6762    19.0594 </r>
       <r>    15.7508     0.6894    19.1481 </r>
       <r>    15.8811     0.7149    19.2395 </r>
       <r>    16.0113     0.7378    19.3342 </r>
       <r>    16.1416     0.7481    19.4311 </r>
       <r>    16.2718     0.7625    19.5291 </r>
       <r>    16.4020     0.7970    19.6306 </r>
       <r>    16.5323     0.8034    19.7348 </r>
       <r>    16.6625     0.8202    19.8403 </r>
       <r>    16.7928     0.8585    19.9494 </r>
       <r>    16.9230     0.9201    20.0651 </r>
       <r>    17.0533     0.9460    20.1872 </r>
       <r>    17.1835     1.0208    20.3221 </r>
       <r>    17.3137     0.8538    20.4404 </r>
       <r>    17.4440     0.8686    20.5497 </r>
       <r>    17.5742     0.9009    20.6649 </r>
       <r>    17.7045     0.8023    20.7766 </r>
       <r>    17.8347     0.7192    20.8756 </r>
       <r>    17.9649     0.7935    20.9704 </r>
       <r>    18.0952     1.0291    21.0924 </r>
       <r>    18.2254     1.4078    21.2559 </r>
       <r>    18.3557     1.2211    21.4347 </r>
       <r>    18.4859     1.1745    21.5914 </r>
       <r>    18.6161     0.9183    21.7195 </r>
       <r>    18.7464     0.8926    21.8372 </r>
       <r>    18.8766     0.8956    21.9531 </r>
       <r>    19.0069     1.0753    22.0785 </r>
       <r>    19.1371     1.2134    22.2311 </r>
       <r>    19.2673     1.2139    22.3908 </r>
       <r>    19.3976     1.1535    22.5417 </r>
       <r>    19.5278     1.1650    22.6929 </r>
       <r>    19.6581     1.1331    22.8440 </r>
       <r>    19.7883     0.9299    22.9822 </r>
       <r>    19.9185     0.7510    23.0870 </r>
       <r>    20.0488     0.7049    23.1832 </r>
       <r>    20.1790     0.5299    23.2622 </r>
       <r>    20.3093     0.5074    23.3296 </r>
       <r>    20.4395     0.5010    23.3951 </r>
       <r>    20.5697     0.5271    23.4614 </r>
       <r>    20.7000     0.6088    23.5302 </r>
       <r>    20.8302     0.5055    23.6046 </r>
       <r>    20.9605     0.5778    23.6689 </r>
       <r>    21.0907     0.3243    23.7223 </r>
       <r>    21.2209     0.3360    23.7642 </r>
       <r>    21.3512     0.3473    23.8126 </r>
       <r>    21.4814     0.1992    23.8473 </r>
       <r>    21.6117     0.1668    23.8710 </r>
       <r>    21.7419     0.1415    23.8910 </r>
       <r>    21.8721     0.1266    23.9084 </r>
       <r>    22.0024     0.1131    23.9240 </r>
       <r>    22.1326     0.1004    23.9379 </r>
       <r>    22.2629     0.0888    23.9502 </r>
       <r>    22.3931     0.0786    23.9611 </r>
       <r>    22.5233     0.1368    23.9735 </r>
       <r>    22.6536     0.0876    23.9899 </r>
       <r>    22.7838     0.0335    23.9976 </r>
       <r>    22.9141     0.0049    23.9999 </r>
       <r>    23.0443     0.0000    24.0000 </r>
       <r>    23.1746     0.0000    24.0000 </r>
       <r>    23.3048     0.0000    24.0000 </r>
       <r>    23.4350     0.0000    24.0000 </r>
       <r>    23.5653     0.0000    24.0000 </r>
       <r>    23.6955     0.0000    24.0000 </r>
       <r>    23.8258     0.0000    24.0000 </r>
       <r>    23.9560     0.0000    24.0000 </r>
       <r>    24.0862     0.0000    24.0000 </r>
       <r>    24.2165     0.0000    24.0000 </r>
       <r>    24.3467     0.0000    24.0000 </r>
       <r>    24.4770     0.0000    24.0000 </r>
       <r>    24.6072     0.0000    24.0000 </r>
       <r>    24.7374     0.0000    24.0000 </r>
       <r>    24.8677     0.0000    24.0000 </r>
       <r>    24.9979     0.0000    24.0000 </r>
      </set>
     </set>
    </array>
   </total>
  </dos>
 </calculation>
 <structure name="finalpos" >
  <crystal>
   <varray name="basis" >
    <v>       2.46715544      -0.00011120       0.00000000 </v>
    <v>      -1.23367402       2.13656369       0.00000000 </v>
    <v>       0.00000000       0.00000000       4.37173250 </v>
   </varray>
   <i name="volume">     23.04382847 </i>
   <varray name="rec_basis" >
    <v>       0.40533564       0.23404500       0.00000000 </v>
    <v>       0.00002110       0.46805346       0.00000000 </v>
    <v>       0.00000000       0.00000000       0.22874227 </v>
   </varray>
  </crystal>
  <varray name="positions" >
   <v>       0.99999970       0.00000035       0.25000000 </v>
   <v>       0.00000035       0.99999970       0.75000000 </v>
   <v>       0.33329893       0.66670105       0.25000000 </v>
   <v>       0.66670105       0.33329893       0.75000000 </v>
  </varray>
 </structure>
</modeling>
