  32  32   0   0
  0.3545204E+01  0.4934311E-09  0.4934311E-09  0.5380594E-09  0.5000000E-15
  1.000000000000000E-004
  CAR 
 graphite                                
     28.33206815    -13.14148571  301     19.57119745      1.00000000
    -13.141  0.0000E+00  0.0000E+00
    -13.003  0.0000E+00  0.0000E+00
    -12.865  0.0000E+00  0.0000E+00
    -12.727  0.0000E+00  0.0000E+00
    -12.589  0.0000E+00  0.0000E+00
    -12.450  0.0000E+00  0.0000E+00
    -12.312  0.0000E+00  0.0000E+00
    -12.174  0.0000E+00  0.0000E+00
    -12.036  0.0000E+00  0.0000E+00
    -11.897  0.0000E+00  0.0000E+00
    -11.759  0.0000E+00  0.0000E+00
    -11.621  0.0000E+00  0.0000E+00
    -11.483  0.0000E+00  0.0000E+00
    -11.344  0.0000E+00  0.0000E+00
    -11.206  0.0000E+00  0.0000E+00
    -11.068  0.1327E+00  0.3260E-02
    -10.930  0.4410E+00  0.4254E-01
    -10.791  0.6340E+00  0.1213E+00
    -10.653  0.7431E+00  0.2167E+00
    -10.515  0.8599E+00  0.3276E+00
    -10.377  0.9582E+00  0.4534E+00
    -10.238  0.1070E+01  0.5933E+00
    -10.100  0.1173E+01  0.7493E+00
     -9.962  0.1230E+01  0.9154E+00
     -9.824  0.1342E+01  0.1091E+01
     -9.685  0.1439E+01  0.1285E+01
     -9.547  0.1552E+01  0.1495E+01
     -9.409  0.1427E+01  0.1700E+01
     -9.271  0.1432E+01  0.1893E+01
     -9.132  0.1737E+01  0.2111E+01
     -8.994  0.2187E+01  0.2375E+01
     -8.856  0.2307E+01  0.2696E+01
     -8.718  0.2345E+01  0.3015E+01
     -8.579  0.1634E+01  0.3287E+01
     -8.441  0.1443E+01  0.3490E+01
     -8.303  0.1416E+01  0.3694E+01
     -8.165  0.1586E+01  0.3899E+01
     -8.026  0.2467E+01  0.4152E+01
     -7.888  0.2283E+01  0.4467E+01
     -7.750  0.2418E+01  0.4794E+01
     -7.612  0.2359E+01  0.5125E+01
     -7.473  0.2195E+01  0.5440E+01
     -7.335  0.1955E+01  0.5727E+01
     -7.197  0.2033E+01  0.6000E+01
     -7.059  0.2320E+01  0.6298E+01
     -6.920  0.2414E+01  0.6626E+01
     -6.782  0.2811E+01  0.6994E+01
     -6.644  0.2825E+01  0.7387E+01
     -6.506  0.3011E+01  0.7785E+01
     -6.367  0.3412E+01  0.8228E+01
     -6.229  0.3620E+01  0.8720E+01
     -6.091  0.3439E+01  0.9208E+01
     -5.953  0.3285E+01  0.9673E+01
     -5.814  0.3118E+01  0.1011E+02
     -5.676  0.3055E+01  0.1054E+02
     -5.538  0.2866E+01  0.1095E+02
     -5.400  0.2665E+01  0.1134E+02
     -5.262  0.2451E+01  0.1169E+02
     -5.123  0.2299E+01  0.1202E+02
     -4.985  0.2656E+01  0.1235E+02
     -4.847  0.2911E+01  0.1274E+02
     -4.709  0.3473E+01  0.1318E+02
     -4.570  0.3736E+01  0.1368E+02
     -4.432  0.3414E+01  0.1419E+02
     -4.294  0.3246E+01  0.1465E+02
     -4.156  0.2765E+01  0.1506E+02
     -4.017  0.2275E+01  0.1541E+02
     -3.879  0.2170E+01  0.1571E+02
     -3.741  0.2600E+01  0.1603E+02
     -3.603  0.2387E+01  0.1638E+02
     -3.464  0.2463E+01  0.1671E+02
     -3.326  0.3067E+01  0.1710E+02
     -3.188  0.3084E+01  0.1753E+02
     -3.050  0.3071E+01  0.1795E+02
     -2.911  0.2978E+01  0.1837E+02
     -2.773  0.3054E+01  0.1879E+02
     -2.635  0.3065E+01  0.1921E+02
     -2.497  0.2939E+01  0.1962E+02
     -2.358  0.3745E+01  0.2005E+02
     -2.220  0.3858E+01  0.2059E+02
     -2.082  0.4387E+01  0.2114E+02
     -1.944  0.4639E+01  0.2177E+02
     -1.805  0.4717E+01  0.2241E+02
     -1.667  0.4902E+01  0.2308E+02
     -1.529  0.4887E+01  0.2376E+02
     -1.391  0.4599E+01  0.2442E+02
     -1.252  0.3721E+01  0.2501E+02
     -1.114  0.3245E+01  0.2549E+02
     -0.976  0.3072E+01  0.2593E+02
     -0.838  0.3091E+01  0.2635E+02
     -0.699  0.2812E+01  0.2675E+02
     -0.561  0.3743E+01  0.2721E+02
     -0.423  0.3736E+01  0.2772E+02
     -0.285  0.3349E+01  0.2822E+02
     -0.146  0.3143E+01  0.2866E+02
     -0.008  0.3200E+01  0.2909E+02
      0.130  0.3612E+01  0.2955E+02
      0.268  0.4730E+01  0.3014E+02
      0.407  0.5147E+01  0.3083E+02
      0.545  0.5408E+01  0.3157E+02
      0.683  0.5508E+01  0.3231E+02
      0.821  0.5440E+01  0.3308E+02
      0.960  0.4765E+01  0.3380E+02
      1.098  0.4120E+01  0.3440E+02
      1.236  0.4098E+01  0.3496E+02
      1.374  0.4264E+01  0.3554E+02
      1.513  0.4413E+01  0.3614E+02
      1.651  0.4506E+01  0.3676E+02
      1.789  0.4438E+01  0.3737E+02
      1.927  0.5570E+01  0.3802E+02
      2.065  0.5652E+01  0.3878E+02
      2.204  0.5320E+01  0.3954E+02
      2.342  0.5118E+01  0.4026E+02
      2.480  0.5256E+01  0.4098E+02
      2.618  0.5780E+01  0.4175E+02
      2.757  0.5518E+01  0.4252E+02
      2.895  0.5959E+01  0.4332E+02
      3.033  0.5622E+01  0.4412E+02
      3.171  0.4795E+01  0.4485E+02
      3.310  0.5213E+01  0.4553E+02
      3.448  0.5157E+01  0.4625E+02
      3.586  0.4652E+01  0.4693E+02
      3.724  0.4310E+01  0.4755E+02
      3.863  0.4543E+01  0.4813E+02
      4.001  0.6146E+01  0.4884E+02
      4.139  0.7540E+01  0.4988E+02
      4.277  0.6641E+01  0.5084E+02
      4.416  0.4709E+01  0.5162E+02
      4.554  0.6990E+01  0.5245E+02
      4.692  0.6434E+01  0.5343E+02
      4.830  0.5935E+01  0.5428E+02
      4.969  0.5830E+01  0.5507E+02
      5.107  0.5730E+01  0.5588E+02
      5.245  0.4075E+01  0.5657E+02
      5.383  0.3394E+01  0.5708E+02
      5.522  0.3685E+01  0.5755E+02
      5.660  0.4809E+01  0.5813E+02
      5.798  0.5522E+01  0.5891E+02
      5.936  0.4943E+01  0.5963E+02
      6.075  0.4496E+01  0.6029E+02
      6.213  0.4231E+01  0.6089E+02
      6.351  0.3864E+01  0.6146E+02
      6.489  0.4175E+01  0.6200E+02
      6.628  0.4579E+01  0.6261E+02
      6.766  0.4783E+01  0.6326E+02
      6.904  0.4888E+01  0.6393E+02
      7.042  0.5438E+01  0.6465E+02
      7.181  0.4971E+01  0.6536E+02
      7.319  0.5188E+01  0.6607E+02
      7.457  0.4164E+01  0.6672E+02
      7.595  0.3540E+01  0.6725E+02
      7.734  0.3184E+01  0.6771E+02
      7.872  0.3221E+01  0.6816E+02
      8.010  0.3538E+01  0.6861E+02
      8.148  0.3940E+01  0.6914E+02
      8.287  0.3706E+01  0.6967E+02
      8.425  0.3534E+01  0.7017E+02
      8.563  0.3329E+01  0.7065E+02
      8.701  0.3932E+01  0.7116E+02
      8.839  0.4326E+01  0.7173E+02
      8.978  0.4811E+01  0.7235E+02
      9.116  0.5439E+01  0.7306E+02
      9.254  0.5709E+01  0.7383E+02
      9.392  0.4561E+01  0.7456E+02
      9.531  0.3433E+01  0.7511E+02
      9.669  0.3415E+01  0.7557E+02
      9.807  0.3509E+01  0.7604E+02
      9.945  0.3884E+01  0.7656E+02
     10.084  0.4793E+01  0.7715E+02
     10.222  0.5836E+01  0.7788E+02
     10.360  0.6011E+01  0.7871E+02
     10.498  0.5830E+01  0.7953E+02
     10.637  0.5745E+01  0.8030E+02
     10.775  0.6779E+01  0.8120E+02
     10.913  0.6349E+01  0.8213E+02
     11.051  0.4628E+01  0.8290E+02
     11.190  0.3755E+01  0.8346E+02
     11.328  0.3669E+01  0.8397E+02
     11.466  0.3582E+01  0.8448E+02
     11.604  0.3300E+01  0.8495E+02
     11.743  0.3018E+01  0.8539E+02
     11.881  0.2876E+01  0.8579E+02
     12.019  0.3024E+01  0.8620E+02
     12.157  0.2926E+01  0.8661E+02
     12.296  0.2605E+01  0.8699E+02
     12.434  0.2407E+01  0.8734E+02
     12.572  0.2264E+01  0.8766E+02
     12.710  0.2214E+01  0.8797E+02
     12.849  0.2175E+01  0.8827E+02
     12.987  0.2378E+01  0.8858E+02
     13.125  0.3775E+01  0.8900E+02
     13.263  0.4876E+01  0.8964E+02
     13.402  0.5095E+01  0.9030E+02
     13.540  0.5821E+01  0.9105E+02
     13.678  0.8256E+01  0.9195E+02
     13.816  0.6496E+01  0.9290E+02
     13.955  0.9088E+01  0.9393E+02
     14.093  0.8052E+01  0.9514E+02
     14.231  0.4434E+01  0.9601E+02
     14.369  0.3300E+01  0.9652E+02
     14.508  0.4524E+01  0.9704E+02
     14.646  0.6143E+01  0.9780E+02
     14.784  0.6897E+01  0.9871E+02
     14.922  0.6896E+01  0.9970E+02
     15.061  0.7308E+01  0.1007E+03
     15.199  0.8182E+01  0.1018E+03
     15.337  0.7630E+01  0.1029E+03
     15.475  0.7173E+01  0.1039E+03
     15.614  0.6608E+01  0.1049E+03
     15.752  0.4825E+01  0.1055E+03
     15.890  0.5303E+01  0.1063E+03
     16.028  0.5659E+01  0.1070E+03
     16.166  0.6042E+01  0.1078E+03
     16.305  0.5397E+01  0.1086E+03
     16.443  0.4846E+01  0.1093E+03
     16.581  0.5157E+01  0.1100E+03
     16.719  0.5470E+01  0.1107E+03
     16.858  0.5991E+01  0.1115E+03
     16.996  0.6600E+01  0.1124E+03
     17.134  0.7672E+01  0.1134E+03
     17.272  0.7378E+01  0.1144E+03
     17.411  0.6907E+01  0.1154E+03
     17.549  0.6364E+01  0.1163E+03
     17.687  0.6199E+01  0.1172E+03
     17.825  0.6831E+01  0.1181E+03
     17.964  0.6029E+01  0.1190E+03
     18.102  0.6086E+01  0.1198E+03
     18.240  0.5964E+01  0.1206E+03
     18.378  0.5841E+01  0.1214E+03
     18.517  0.5044E+01  0.1222E+03
     18.655  0.5258E+01  0.1229E+03
     18.793  0.5286E+01  0.1236E+03
     18.931  0.5187E+01  0.1244E+03
     19.070  0.4857E+01  0.1251E+03
     19.208  0.6498E+01  0.1258E+03
     19.346  0.6878E+01  0.1268E+03
     19.484  0.4799E+01  0.1276E+03
     19.623  0.4389E+01  0.1282E+03
     19.761  0.4781E+01  0.1289E+03
     19.899  0.5180E+01  0.1296E+03
     20.037  0.7623E+01  0.1304E+03
     20.176  0.9182E+01  0.1316E+03
     20.314  0.1118E+02  0.1329E+03
     20.452  0.9929E+01  0.1345E+03
     20.590  0.9058E+01  0.1358E+03
     20.729  0.8992E+01  0.1370E+03
     20.867  0.8219E+01  0.1383E+03
     21.005  0.8267E+01  0.1393E+03
     21.143  0.9156E+01  0.1406E+03
     21.282  0.6974E+01  0.1417E+03
     21.420  0.4654E+01  0.1426E+03
     21.558  0.4199E+01  0.1432E+03
     21.696  0.4001E+01  0.1438E+03
     21.835  0.3319E+01  0.1443E+03
     21.973  0.5353E+01  0.1448E+03
     22.111  0.4375E+01  0.1455E+03
     22.249  0.4438E+01  0.1461E+03
     22.388  0.4542E+01  0.1467E+03
     22.526  0.4880E+01  0.1473E+03
     22.664  0.5056E+01  0.1480E+03
     22.802  0.5321E+01  0.1487E+03
     22.941  0.5971E+01  0.1495E+03
     23.079  0.6497E+01  0.1503E+03
     23.217  0.7239E+01  0.1513E+03
     23.355  0.7749E+01  0.1523E+03
     23.493  0.7947E+01  0.1534E+03
     23.632  0.8064E+01  0.1545E+03
     23.770  0.9194E+01  0.1557E+03
     23.908  0.1018E+02  0.1570E+03
     24.046  0.1041E+02  0.1585E+03
     24.185  0.1054E+02  0.1599E+03
     24.323  0.9488E+01  0.1613E+03
     24.461  0.7602E+01  0.1625E+03
     24.599  0.6106E+01  0.1633E+03
     24.738  0.5770E+01  0.1642E+03
     24.876  0.4287E+01  0.1649E+03
     25.014  0.3234E+01  0.1654E+03
     25.152  0.3072E+01  0.1658E+03
     25.291  0.3096E+01  0.1662E+03
     25.429  0.3113E+01  0.1667E+03
     25.567  0.2290E+01  0.1671E+03
     25.705  0.2181E+01  0.1674E+03
     25.844  0.1860E+01  0.1677E+03
     25.982  0.1166E+01  0.1679E+03
     26.120  0.3492E+00  0.1680E+03
     26.258  0.3062E-01  0.1680E+03
     26.397  0.0000E+00  0.1680E+03
     26.535  0.0000E+00  0.1680E+03
     26.673  0.0000E+00  0.1680E+03
     26.811  0.0000E+00  0.1680E+03
     26.950  0.0000E+00  0.1680E+03
     27.088  0.0000E+00  0.1680E+03
     27.226  0.0000E+00  0.1680E+03
     27.364  0.0000E+00  0.1680E+03
     27.503  0.0000E+00  0.1680E+03
     27.641  0.0000E+00  0.1680E+03
     27.779  0.0000E+00  0.1680E+03
     27.917  0.0000E+00  0.1680E+03
     28.056  0.0000E+00  0.1680E+03
     28.194  0.0000E+00  0.1680E+03
     28.332  0.0000E+00  0.1680E+03
