 running on    6 total cores
 distrk:  each k-point on    6 cores,    1 groups
 distr:  one band on    1 cores,    6 groups
 using from now: INCAR     
 vasp.5.3.5 31Mar14 (build Nov 02 2014 15:17:37) complex                        
  
 POSCAR found :  1 types and      32 ions
 scaLAPACK will be used

 ----------------------------------------------------------------------------- 
|                                                                             |
|           W    W    AA    RRRRR   N    N  II  N    N   GGGG   !!!           |
|           W    W   A  A   R    R  NN   N  II  NN   N  G    G  !!!           |
|           W    W  A    A  R    R  N N  N  II  N N  N  G       !!!           |
|           W WW W  AAAAAA  RRRRR   N  N N  II  N  N N  G  GGG   !            |
|           WW  WW  A    A  R   R   N   NN  II  N   NN  G    G                |
|           W    W  A    A  R    R  N    N  II  N    N   GGGG   !!!           |
|                                                                             |
|      For optimal performance we recommend to set                            |
|        NCORE= 4 - approx SQRT( number of cores)                             |
|      NCORE specifies how many cores store one orbital (NPAR=cpu/NCORE).     |
|      This setting can  greatly improve the performance of VASP for DFT.     |
|      The default, NPAR=number of cores might be grossly inefficient         |
|      on modern multi-core architectures or massively parallel machines.     |
|      Do your own testing !!!!                                               |
|      Unfortunately you need to use the default for GW and RPA calculations. |
|      (for HF NCORE is supported but not extensively tested yet)             |
|                                                                             |
 ----------------------------------------------------------------------------- 


 ----------------------------------------------------------------------------- 
|                                                                             |
|  ADVICE TO THIS USER RUNNING 'VASP/VAMP'   (HEAR YOUR MASTER'S VOICE ...):  |
|                                                                             |
|      You have a (more or less) 'large supercell' and for larger cells       |
|      it might be more efficient to use real space projection operators      |
|      So try LREAL= Auto  in the INCAR   file.                               |
|      Mind: If you want to do a very accurate calculations keep the          |
|      reciprocal projection scheme          (i.e. LREAL=.FALSE.)             |
|                                                                             |
 ----------------------------------------------------------------------------- 

 LDA part: xc-table for Pade appr. of Perdew
 POSCAR, INCAR and KPOINTS ok, starting setup
 WARNING: small aliasing (wrap around) errors must be expected
 FFT: planning ...
 WAVECAR not read
 WARNING: random wavefunctions but no delay for mixing, default for NELMDL
 entering main loop
       N       E                     dE             d eps       ncg     rms          rms(c)
DAV:   1     0.598800627243E+03    0.59880E+03   -0.81222E+04 27384   0.177E+03
DAV:   2    -0.869922973653E+02   -0.68579E+03   -0.64506E+03 33792   0.333E+02
DAV:   3    -0.125191908729E+03   -0.38200E+02   -0.36794E+02 34680   0.651E+01
DAV:   4    -0.125950759522E+03   -0.75885E+00   -0.75151E+00 33084   0.860E+00
DAV:   5    -0.125966637337E+03   -0.15878E-01   -0.15856E-01 33060   0.105E+00    0.231E+01
DAV:   6    -0.114150488499E+03    0.11816E+02   -0.14190E+01 30348   0.134E+01    0.114E+01
DAV:   7    -0.111393561883E+03    0.27569E+01   -0.42266E+00 30816   0.777E+00    0.311E+00
DAV:   8    -0.111247624124E+03    0.14594E+00   -0.44580E-01 32064   0.236E+00    0.518E-01
DAV:   9    -0.111247126349E+03    0.49778E-03   -0.24446E-02 33840   0.543E-01    0.356E-01
DAV:  10    -0.111246289432E+03    0.83692E-03   -0.89498E-03 32940   0.314E-01    0.133E-01
DAV:  11    -0.111246104172E+03    0.18526E-03   -0.12746E-03 32328   0.133E-01    0.536E-02
DAV:  12    -0.111246172194E+03   -0.68022E-04   -0.37076E-04 31392   0.692E-02    0.128E-02
DAV:  13    -0.111246181892E+03   -0.96981E-05   -0.20222E-05 33012   0.178E-02    0.851E-03
DAV:  14    -0.111246170279E+03    0.11613E-04   -0.31228E-06 20628   0.664E-03    0.365E-03
DAV:  15    -0.111246165924E+03    0.43555E-05   -0.14830E-06 17724   0.447E-03    0.149E-03
DAV:  16    -0.111246164756E+03    0.11679E-05   -0.45931E-07 16788   0.250E-03    0.461E-04
DAV:  17    -0.111246164886E+03   -0.12988E-06   -0.86632E-08 16680   0.113E-03
   1 F= -.11693801E+03 E0= -.11693801E+03  d E =0.000000E+00
