   32   32    1    1
  0.3988355E+01  0.4934311E-09  0.4934311E-09  0.6053168E-09  0.5000000E-15
  1.000000000000000E-004
  CAR 
 graphite                                
    128    163     84
 
  0.0000000E+00  0.0000000E+00  0.0000000E+00  0.3086420E-02
    1      -11.228118
    2       -8.000566
    3       -7.990739
    4       -5.639455
    5       -5.634600
    6       -5.629550
    7       -4.116097
    8       -4.111967
    9       -4.107192
   10       -2.628604
   11       -2.622781
   12       -2.618091
   13       -2.617618
   14       -2.612969
   15       -2.607137
   16       -0.725463
   17       -0.718941
   18       -0.715080
   19       -0.713855
   20       -0.710673
   21       -0.703292
   22        0.054491
   23        3.319942
   24        4.145040
   25        4.147967
   26        4.149298
   27        4.710049
   28        4.714359
   29        4.718495
   30        7.044735
   31        7.047631
   32        7.050567
   33        7.256500
   34        7.261136
   35        7.265077
   36        7.266327
   37        7.270739
   38        7.274936
   39        7.878567
   40        7.883359
   41        7.889156
   42        8.750853
   43        8.759303
   44       10.873695
   45       10.878751
   46       10.884821
   47       10.899439
   48       10.905883
   49       10.910300
   50       10.917998
   51       12.208974
   52       12.213263
   53       12.216513
   54       12.282105
   55       12.284408
   56       15.333848
   57       15.336288
   58       15.337752
   59       15.340908
   60       15.342786
   61       15.344731
   62       15.601157
   63       15.608343
   64       15.613010
   65       15.702890
   66       15.710828
   67       19.160796
   68       19.163349
   69       19.166137
   70       19.167346
   71       19.170207
   72       19.172864
   73       19.272809
   74       19.274945
   75       19.274992
   76       20.188619
   77       20.434395
   78       20.443476
   79       20.761595
   80       21.398790
   81       21.411035
   82       21.417814
   83       21.429729
   84       22.122041
 
  0.1111111E+00  0.2081668E-16  0.0000000E+00  0.6172840E-02
    1      -11.149293
    2       -7.921632
    3       -7.911807
    4       -6.374881
    5       -5.832252
    6       -5.826513
    7       -3.777422
    8       -3.772568
    9       -3.258956
   10       -3.249204
   11       -3.236222
   12       -2.774741
   13       -2.770019
   14       -2.765820
   15       -2.758413
   16       -0.434639
   17       -0.432672
   18       -0.428673
   19       -0.419524
   20        0.042926
   21        0.052300
   22        0.139110
   23        3.373491
   24        3.761655
   25        3.764930
   26        4.230673
   27        4.418001
   28        4.674533
   29        4.680305
   30        6.564323
   31        6.902155
   32        6.909116
   33        6.914184
   34        6.916169
   35        6.983660
   36        6.987031
   37        7.337661
   38        7.347274
   39        8.099587
   40        8.106093
   41        8.212247
   42        8.405072
   43        8.445304
   44       10.490454
   45       10.499986
   46       10.729682
   47       10.739574
   48       11.052170
   49       11.059759
   50       11.302254
   51       12.089692
   52       12.094526
   53       12.265364
   54       12.322148
   55       12.494887
   56       15.384591
   57       15.388507
   58       15.697633
   59       15.701715
   60       15.704284
   61       15.706262
   62       15.716321
   63       15.819048
   64       15.826992
   65       16.067845
   66       16.076518
   67       18.918263
   68       18.921106
   69       19.090602
   70       19.097990
   71       19.154574
   72       19.157705
   73       19.160237
   74       19.164246
   75       19.353595
   76       19.750052
   77       19.753941
   78       19.949921
   79       20.889368
   80       21.741076
   81       21.758508
   82       21.851786
   83       22.129072
   84       22.262209
 
  0.2222222E+00  0.5551115E-16  0.0000000E+00  0.6172840E-02
    1      -10.913090
    2       -7.686630
    3       -7.676829
    4       -7.444656
    5       -6.161002
    6       -6.156465
    7       -4.271461
    8       -4.261629
    9       -3.052994
   10       -3.048280
   11       -3.043492
   12       -3.038333
   13       -3.026125
   14       -3.021299
   15       -1.764730
   16        0.246918
   17        0.249509
   18        0.253928
   19        0.261409
   20        0.390949
   21        1.431592
   22        1.440895
   23        2.831589
   24        2.835028
   25        3.532535
   26        3.712841
   27        4.476817
   28        4.587505
   29        4.593326
   30        5.874142
   31        6.020076
   32        6.026032
   33        6.031224
   34        6.033738
   35        6.835917
   36        6.838751
   37        6.904833
   38        7.562335
   39        7.571679
   40        7.730401
   41        8.618017
   42        8.623286
   43        9.207860
   44        9.423284
   45        9.432182
   46       10.265218
   47       10.274952
   48       11.541059
   49       11.548861
   50       11.749575
   51       11.754296
   52       12.258953
   53       12.380526
   54       12.409990
   55       12.868104
   56       15.525450
   57       15.529068
   58       16.027184
   59       16.057097
   60       16.065025
   61       16.573603
   62       16.576831
   63       16.578762
   64       16.581594
   65       17.334608
   66       17.342489
   67       18.026488
   68       18.030470
   69       18.892014
   70       18.899549
   71       18.953169
   72       18.959994
   73       19.136135
   74       19.139174
   75       19.142542
   76       19.145811
   77       19.268135
   78       19.589014
   79       20.329597
   80       22.275995
   81       22.350531
   82       22.571519
   83       22.694722
   84       22.710976
 
  0.3333333E+00  0.2775558E-16  0.0000000E+00  0.6172840E-02
    1      -10.520374
    2       -8.426368
    3       -7.296321
    4       -7.286479
    5       -6.420723
    6       -6.416717
    7       -5.227302
    8       -5.217473
    9       -3.284702
   10       -3.280690
   11       -3.275143
   12       -3.270244
   13       -2.088485
   14       -2.084609
   15       -0.123156
   16        0.805158
   17        1.121459
   18        1.124334
   19        1.128728
   20        1.135983
   21        1.680827
   22        1.684247
   23        2.880224
   24        2.999835
   25        3.009054
   26        3.786075
   27        4.494762
   28        4.500088
   29        4.881602
   30        4.921071
   31        4.926468
   32        4.931902
   33        4.934519
   34        5.231952
   35        5.255373
   36        6.691309
   37        6.694149
   38        6.907711
   39        7.928162
   40        7.937634
   41        7.972180
   42        7.980854
   43        9.258078
   44        9.262786
   45        9.651643
   46        9.661306
   47       10.019292
   48       11.238489
   49       11.243177
   50       11.953915
   51       12.233001
   52       12.241753
   53       12.625377
   54       13.080277
   55       13.800859
   56       15.743692
   57       15.747153
   58       16.231996
   59       16.240024
   60       16.555428
   61       16.942001
   62       16.947142
   63       17.536355
   64       17.538119
   65       17.541816
   66       17.544051
   67       18.213093
   68       18.421722
   69       18.430908
   70       18.622216
   71       18.630843
   72       19.116039
   73       19.118543
   74       19.122483
   75       19.125118
   76       19.160013
   77       19.167602
   78       19.265336
   79       19.978505
   80       21.905237
   81       23.049897
   82       23.451491
   83       24.110056
   84       24.125769
 
  0.4444444E+00  0.1110223E-15  0.0000000E+00  0.6172840E-02
    1       -9.972684
    2       -9.272675
    3       -6.753023
    4       -6.743152
    5       -6.557315
    6       -6.553548
    7       -6.060641
    8       -6.050816
    9       -3.410055
   10       -3.406170
   11       -3.400426
   12       -3.395860
   13       -1.125438
   14       -1.120978
   15        0.584807
   16        0.588428
   17        1.372821
   18        1.618236
   19        1.986761
   20        1.989490
   21        1.993289
   22        2.001499
   23        2.076563
   24        3.385176
   25        3.918404
   26        3.923080
   27        3.928713
   28        3.931374
   29        4.235981
   30        4.437487
   31        4.442810
   32        4.656253
   33        4.665390
   34        4.673386
   35        5.435749
   36        6.121619
   37        6.340930
   38        6.349773
   39        6.608408
   40        6.611313
   41        8.420039
   42        8.429488
   43        9.010301
   44        9.019959
   45        9.937584
   46        9.942294
   47       10.618781
   48       10.623358
   49       10.778576
   50       11.440009
   51       12.863488
   52       12.865410
   53       12.874220
   54       13.052569
   55       15.349928
   56       16.000529
   57       16.005190
   58       16.082192
   59       16.088976
   60       16.208429
   61       16.214550
   62       16.868459
   63       17.291196
   64       18.168662
   65       18.173430
   66       18.177428
   67       18.178386
   68       18.211955
   69       18.242379
   70       18.253020
   71       18.363597
   72       18.373413
   73       19.107274
   74       19.107701
   75       19.111451
   76       19.113154
   77       20.514946
   78       21.177397
   79       21.342792
   80       21.350232
   81       23.750988
   82       23.758300
   83       24.280590
   84       24.893567
 
  0.8470329E-21  0.1111111E+00  0.0000000E+00  0.6172840E-02
    1      -11.149291
    2       -7.921630
    3       -7.911805
    4       -6.375200
    5       -5.831332
    6       -5.826770
    7       -3.778230
    8       -3.773528
    9       -3.259265
   10       -3.249390
   11       -3.235211
   12       -2.774027
   13       -2.769679
   14       -2.764128
   15       -2.759575
   16       -0.437673
   17       -0.431746
   18       -0.428087
   19       -0.422124
   20        0.044739
   21        0.053896
   22        0.139082
   23        3.373499
   24        3.762506
   25        3.765720
   26        4.228885
   27        4.416505
   28        4.676449
   29        4.680128
   30        6.565713
   31        6.904392
   32        6.908781
   33        6.914083
   34        6.918429
   35        6.981494
   36        6.986770
   37        7.336051
   38        7.344780
   39        8.101158
   40        8.104691
   41        8.216990
   42        8.405703
   43        8.440946
   44       10.497827
   45       10.501444
   46       10.728265
   47       10.731815
   48       11.051652
   49       11.056150
   50       11.305974
   51       12.091994
   52       12.095015
   53       12.262386
   54       12.324296
   55       12.492573
   56       15.385144
   57       15.387964
   58       15.696659
   59       15.702193
   60       15.704281
   61       15.705902
   62       15.715652
   63       15.819302
   64       15.827243
   65       16.071770
   66       16.074239
   67       18.918671
   68       18.922903
   69       19.091581
   70       19.096178
   71       19.154814
   72       19.156641
   73       19.161906
   74       19.164234
   75       19.351611
   76       19.748630
   77       19.751421
   78       19.950129
   79       20.888856
   80       21.749577
   81       21.761650
   82       21.850635
   83       22.132001
   84       22.260493
 
  0.1111111E+00  0.1111111E+00  0.0000000E+00  0.6172840E-02
    1      -10.991771
    2       -7.764643
    3       -7.754821
    4       -6.861877
    5       -6.855248
    6       -5.430855
    7       -3.884387
    8       -3.713962
    9       -3.704752
   10       -3.702671
   11       -3.695352
   12       -2.482536
   13       -2.475328
   14       -2.425644
   15       -2.416289
   16       -0.497866
   17       -0.488399
   18        0.306944
   19        0.748427
   20        0.758787
   21        0.759920
   22        0.766784
   23        2.753533
   24        3.479797
   25        3.923098
   26        3.926031
   27        4.139914
   28        4.146054
   29        4.874900
   30        5.943881
   31        5.953380
   32        6.296768
   33        6.302124
   34        7.057639
   35        7.059908
   36        7.064697
   37        7.072208
   38        7.380701
   39        7.405995
   40        7.843843
   41        8.001125
   42        8.872326
   43        8.878288
   44        9.800234
   45        9.809193
   46       10.358361
   47       10.368010
   48       11.144474
   49       11.702408
   50       11.833354
   51       11.840641
   52       12.189056
   53       12.194880
   54       12.405332
   55       12.686444
   56       15.787937
   57       15.788646
   58       15.790244
   59       15.795745
   60       16.003600
   61       16.011511
   62       16.268511
   63       16.277079
   64       16.543581
   65       16.547585
   66       17.247998
   67       17.933131
   68       19.013974
   69       19.020124
   70       19.021633
   71       19.026297
   72       19.083903
   73       19.088862
   74       19.169092
   75       19.172790
   76       19.207562
   77       19.214086
   78       19.494500
   79       20.910542
   80       21.284075
   81       22.280913
   82       22.295608
   83       22.686721
   84       22.711413
 
  0.2222222E+00  0.1111111E+00  0.0000000E+00  0.6172840E-02
    1      -10.677263
    2       -7.894223
    3       -7.451990
    4       -7.442144
    5       -7.220157
    6       -5.413916
    7       -4.707093
    8       -4.697265
    9       -4.052163
   10       -4.042374
   11       -3.336889
   12       -2.373805
   13       -2.364012
   14       -1.574377
   15       -0.914863
   16       -0.007483
   17        0.001993
   18        0.640329
   19        1.514095
   20        1.609603
   21        1.618687
   22        2.241702
   23        2.250927
   24        3.072938
   25        3.352393
   26        3.688578
   27        3.908619
   28        4.240770
   29        4.749406
   30        4.758851
   31        4.989201
   32        5.626964
   33        6.010532
   34        6.118236
   35        6.261160
   36        6.269872
   37        6.977585
   38        7.361339
   39        7.370839
   40        7.442261
   41        8.407880
   42        8.621738
   43        8.631209
   44        9.486626
   45        9.715064
   46        9.725191
   47        9.735572
   48       11.145886
   49       11.566003
   50       11.892963
   51       12.293261
   52       12.376416
   53       12.559326
   54       12.892119
   55       13.099279
   56       15.954891
   57       15.958409
   58       16.252096
   59       16.260198
   60       16.666249
   61       16.668522
   62       16.680064
   63       16.701397
   64       17.520256
   65       17.523982
   66       17.614369
   67       18.318939
   68       18.630936
   69       18.636499
   70       18.649762
   71       18.777057
   72       18.785381
   73       18.947335
   74       18.952507
   75       18.996260
   76       19.251006
   77       19.256910
   78       19.420397
   79       20.107003
   80       21.468956
   81       22.108456
   82       23.192665
   83       23.205512
   84       23.840636
 
  0.3333333E+00  0.1111111E+00  0.0000000E+00  0.6172840E-02
    1      -10.207052
    2       -8.809607
    3       -7.441397
    4       -6.985083
    5       -6.975247
    6       -5.603898
    7       -5.594043
    8       -5.525467
    9       -4.263955
   10       -4.254161
   11       -2.446287
   12       -2.436561
   13       -2.424807
   14       -0.592574
   15        0.257216
   16        0.773081
   17        0.815859
   18        0.825236
   19        1.131927
   20        2.026452
   21        2.520766
   22        2.524002
   23        2.530820
   24        3.553320
   25        3.562874
   26        3.754203
   27        3.849775
   28        3.858796
   29        3.935046
   30        4.404246
   31        4.647872
   32        5.036974
   33        5.090770
   34        5.285759
   35        5.294444
   36        5.993967
   37        6.137961
   38        7.135435
   39        7.144543
   40        7.347820
   41        7.802592
   42        7.811923
   43        9.025873
   44        9.035501
   45        9.063970
   46       10.151706
   47       10.483812
   48       10.530764
   49       11.418002
   50       11.881647
   51       12.202378
   52       12.609982
   53       12.957722
   54       13.298883
   55       14.578791
   56       15.529644
   57       16.168265
   58       16.172256
   59       16.405895
   60       16.413327
   61       17.286643
   62       17.450763
   63       17.488034
   64       17.543284
   65       17.545989
   66       18.270616
   67       18.273675
   68       18.319797
   69       18.327820
   70       18.505120
   71       18.514263
   72       18.889786
   73       18.895585
   74       19.051691
   75       19.302030
   76       19.306496
   77       19.498812
   78       19.918070
   79       21.113187
   80       21.338119
   81       22.363758
   82       24.192513
   83       24.358301
   84       24.367935
 
  0.4444444E+00  0.1111111E+00  0.0000000E+00  0.6172840E-02
    1       -9.586416
    2       -9.579873
    3       -7.515639
    4       -6.371158
    5       -6.363512
    6       -6.361783
    7       -6.352508
    8       -5.574940
    9       -4.335462
   10       -4.325671
   11       -2.483504
   12       -2.473736
   13       -1.703617
   14       -0.574189
   15        0.087711
   16        1.310380
   17        1.426673
   18        1.435447
   19        1.764733
   20        1.772171
   21        2.525908
   22        2.529540
   23        2.823954
   24        2.832884
   25        3.090575
   26        3.099293
   27        3.700245
   28        4.439777
   29        4.445664
   30        4.679757
   31        4.688902
   32        5.048878
   33        5.402276
   34        5.411086
   35        5.502017
   36        5.510607
   37        5.515283
   38        5.515865
   39        5.949988
   40        7.309029
   41        8.364075
   42        8.368572
   43        8.369460
   44        8.385516
   45        9.770381
   46        9.776428
   47       10.732168
   48       10.899916
   49       11.267901
   50       11.273262
   51       12.611557
   52       12.829615
   53       12.838945
   54       13.668349
   55       14.936500
   56       16.088107
   57       16.094356
   58       16.354333
   59       16.361095
   60       16.363395
   61       16.367867
   62       17.023241
   63       17.923341
   64       17.928052
   65       18.084609
   66       18.091677
   67       18.303340
   68       18.304167
   69       18.308378
   70       18.319825
   71       18.538538
   72       18.540785
   73       18.862415
   74       18.866398
   75       19.340481
   76       19.344633
   77       20.566980
   78       20.575155
   79       21.671418
   80       21.801478
   81       23.372325
   82       23.552957
   83       23.727712
   84       23.738043
 
 -0.4444444E+00  0.1111111E+00  0.0000000E+00  0.6172840E-02
    1      -10.207139
    2       -8.809468
    3       -7.441649
    4       -6.985137
    5       -6.975328
    6       -5.603906
    7       -5.593951
    8       -5.524820
    9       -4.264198
   10       -4.254408
   11       -2.445617
   12       -2.435820
   13       -2.424798
   14       -0.593493
   15        0.256257
   16        0.772370
   17        0.816493
   18        0.825280
   19        1.131781
   20        2.027718
   21        2.519805
   22        2.523918
   23        2.530716
   24        3.552892
   25        3.561961
   26        3.753763
   27        3.849311
   28        3.858363
   29        3.935070
   30        4.404600
   31        4.649810
   32        5.037550
   33        5.089227
   34        5.286287
   35        5.295713
   36        5.993890
   37        6.137490
   38        7.136743
   39        7.144817
   40        7.347786
   41        7.803174
   42        7.812800
   43        9.025423
   44        9.033774
   45        9.063679
   46       10.152061
   47       10.483853
   48       10.530952
   49       11.417906
   50       11.881345
   51       12.202274
   52       12.610038
   53       12.957830
   54       13.298511
   55       14.578186
   56       15.528985
   57       16.167949
   58       16.171709
   59       16.406303
   60       16.413898
   61       17.285874
   62       17.451581
   63       17.488888
   64       17.544394
   65       17.548076
   66       18.269723
   67       18.271393
   68       18.319922
   69       18.328353
   70       18.505347
   71       18.513723
   72       18.889710
   73       18.894502
   74       19.052623
   75       19.302875
   76       19.307136
   77       19.501086
   78       19.918845
   79       21.109720
   80       21.337269
   81       22.366865
   82       24.189829
   83       24.363023
   84       24.369273
 
 -0.3333333E+00  0.1111111E+00  0.0000000E+00  0.6172840E-02
    1      -10.677324
    2       -7.894052
    3       -7.452095
    4       -7.442220
    5       -7.220560
    6       -5.412894
    7       -4.706907
    8       -4.697084
    9       -4.052677
   10       -4.042884
   11       -3.336885
   12       -2.372765
   13       -2.362886
   14       -1.575156
   15       -0.915231
   16       -0.007514
   17        0.001598
   18        0.640226
   19        1.512925
   20        1.608882
   21        1.618330
   22        2.241291
   23        2.250545
   24        3.074352
   25        3.352612
   26        3.688462
   27        3.907829
   28        4.241509
   29        4.748814
   30        4.757811
   31        4.990321
   32        5.626381
   33        6.011345
   34        6.118244
   35        6.261885
   36        6.271290
   37        6.976607
   38        7.361750
   39        7.371348
   40        7.441866
   41        8.408154
   42        8.624482
   43        8.630893
   44        9.486942
   45        9.714454
   46        9.725467
   47        9.733059
   48       11.145759
   49       11.565615
   50       11.892967
   51       12.293074
   52       12.376416
   53       12.559080
   54       12.892388
   55       13.098767
   56       15.954594
   57       15.958050
   58       16.252560
   59       16.260635
   60       16.668624
   61       16.670616
   62       16.679654
   63       16.700629
   64       17.519574
   65       17.519771
   66       17.616765
   67       18.320478
   68       18.631421
   69       18.636175
   70       18.650226
   71       18.777156
   72       18.785033
   73       18.945985
   74       18.951554
   75       18.993856
   76       19.252830
   77       19.256828
   78       19.420972
   79       20.108223
   80       21.471160
   81       22.107807
   82       23.199110
   83       23.205430
   84       23.838360
 
 -0.2222222E+00  0.1111111E+00  0.0000000E+00  0.6172840E-02
    1      -10.991808
    2       -7.764687
    3       -7.754861
    4       -6.859334
    5       -6.858314
    6       -5.429217
    7       -3.884955
    8       -3.711879
    9       -3.706885
   10       -3.702150
   11       -3.696976
   12       -2.479745
   13       -2.478621
   14       -2.424503
   15       -2.414562
   16       -0.498285
   17       -0.489199
   18        0.306877
   19        0.750544
   20        0.756403
   21        0.759815
   22        0.765896
   23        2.752328
   24        3.479771
   25        3.925037
   26        3.925779
   27        4.141212
   28        4.143789
   29        4.876377
   30        5.943289
   31        5.952184
   32        6.298381
   33        6.300424
   34        7.057453
   35        7.061454
   36        7.067084
   37        7.070943
   38        7.382120
   39        7.404624
   40        7.842311
   41        8.002276
   42        8.875212
   43        8.875986
   44        9.804318
   45        9.807979
   46       10.359743
   47       10.363007
   48       11.143879
   49       11.702268
   50       11.834830
   51       11.838862
   52       12.190587
   53       12.193475
   54       12.405545
   55       12.686440
   56       15.788142
   57       15.791832
   58       15.792194
   59       15.795856
   60       16.003925
   61       16.011938
   62       16.273233
   63       16.274458
   64       16.541772
   65       16.543479
   66       17.244882
   67       17.931722
   68       19.014291
   69       19.018787
   70       19.021538
   71       19.025690
   72       19.086984
   73       19.087828
   74       19.170208
   75       19.171022
   76       19.209861
   77       19.213861
   78       19.494715
   79       20.912924
   80       21.283719
   81       22.288492
   82       22.295842
   83       22.685915
   84       22.710994
 
 -0.1111111E+00  0.1111111E+00  0.0000000E+00  0.6172840E-02
    1      -11.149303
    2       -7.921644
    3       -7.911818
    4       -6.376203
    5       -5.830996
    6       -5.825549
    7       -3.778680
    8       -3.773527
    9       -3.260395
   10       -3.250643
   11       -3.235108
   12       -2.774891
   13       -2.767640
   14       -2.763112
   15       -2.758671
   16       -0.439541
   17       -0.430247
   18       -0.426785
   19       -0.424182
   20        0.044576
   21        0.053992
   22        0.139093
   23        3.373472
   24        3.761936
   25        3.765264
   26        4.230036
   27        4.415103
   28        4.676319
   29        4.681877
   30        6.566522
   31        6.905065
   32        6.907412
   33        6.912277
   34        6.919285
   35        6.981992
   36        6.984915
   37        7.336494
   38        7.346082
   39        8.100366
   40        8.106569
   41        8.218047
   42        8.405891
   43        8.439335
   44       10.496192
   45       10.505688
   46       10.723788
   47       10.733392
   48       11.049508
   49       11.057632
   50       11.306284
   51       12.090641
   52       12.096276
   53       12.262541
   54       12.324851
   55       12.492106
   56       15.387814
   57       15.391647
   58       15.697050
   59       15.699951
   60       15.701337
   61       15.706447
   62       15.716090
   63       15.819452
   64       15.827387
   65       16.067589
   66       16.075391
   67       18.918581
   68       18.921454
   69       19.089610
   70       19.096554
   71       19.154573
   72       19.158484
   73       19.161467
   74       19.164663
   75       19.353428
   76       19.747599
   77       19.751437
   78       19.950199
   79       20.889794
   80       21.751414
   81       21.768074
   82       21.847252
   83       22.135075
   84       22.256617
 
  0.0000000E+00  0.2222222E+00  0.0000000E+00  0.6172840E-02
    1      -10.913083
    2       -7.686616
    3       -7.676788
    4       -7.444774
    5       -6.161300
    6       -6.155853
    7       -4.271583
    8       -4.261751
    9       -3.053384
   10       -3.047358
   11       -3.042642
   12       -3.038453
   13       -3.027756
   14       -3.021610
   15       -1.763461
   16        0.243669
   17        0.250370
   18        0.253656
   19        0.260134
   20        0.390916
   21        1.433210
   22        1.442286
   23        2.831668
   24        2.836510
   25        3.532492
   26        3.711840
   27        4.474938
   28        4.589085
   29        4.593392
   30        5.875144
   31        6.021306
   32        6.026576
   33        6.031070
   34        6.036235
   35        6.833125
   36        6.839041
   37        6.908616
   38        7.560647
   39        7.569254
   40        7.726313
   41        8.618732
   42        8.623315
   43        9.209513
   44        9.428652
   45        9.434135
   46       10.263296
   47       10.268601
   48       11.540489
   49       11.544846
   50       11.751430
   51       11.755054
   52       12.261463
   53       12.383730
   54       12.407004
   55       12.864720
   56       15.526219
   57       15.528439
   58       16.025460
   59       16.057675
   60       16.065745
   61       16.573146
   62       16.575936
   63       16.579687
   64       16.582505
   65       17.337288
   66       17.341347
   67       18.026232
   68       18.033628
   69       18.892622
   70       18.898141
   71       18.950968
   72       18.957282
   73       19.136364
   74       19.138110
   75       19.144044
   76       19.146138
   77       19.268932
   78       19.586956
   79       20.327943
   80       22.275978
   81       22.355103
   82       22.570713
   83       22.702188
   84       22.714354
 
  0.1111111E+00  0.2222222E+00  0.0000000E+00  0.6172840E-02
    1      -10.677258
    2       -7.894204
    3       -7.452010
    4       -7.442213
    5       -7.220046
    6       -5.413902
    7       -4.707156
    8       -4.697322
    9       -4.052029
   10       -4.042237
   11       -3.337029
   12       -2.373737
   13       -2.363935
   14       -1.575804
   15       -0.913515
   16       -0.007668
   17        0.001811
   18        0.640293
   19        1.514162
   20        1.607810
   21        1.617060
   22        2.243472
   23        2.252427
   24        3.074540
   25        3.351548
   26        3.688505
   27        3.909657
   28        4.238933
   29        4.749579
   30        4.758961
   31        4.989380
   32        5.628083
   33        6.012694
   34        6.117087
   35        6.262917
   36        6.272316
   37        6.975350
   38        7.359470
   39        7.368003
   40        7.441267
   41        8.409081
   42        8.624801
   43        8.631735
   44        9.485923
   45        9.714648
   46        9.725238
   47        9.733045
   48       11.145846
   49       11.565460