 vasp.5.3.5 31Mar14 (build Nov 02 2014 15:17:37) complex                        
  
 executed on        ion-Intel-MKL date 2016.08.24  09:57:29
 running on    6 total cores
 distrk:  each k-point on    6 cores,    1 groups
 distr:  one band on NCORES_PER_BAND=   1 cores,    6 groups


--------------------------------------------------------------------------------------------------------


 INCAR:
 POTCAR:   PAW_PBE C 08Apr2002                    

 ----------------------------------------------------------------------------- 
|                                                                             |
|           W    W    AA    RRRRR   N    N  II  N    N   GGGG   !!!           |
|           W    W   A  A   R    R  NN   N  II  NN   N  G    G  !!!           |
|           W    W  A    A  R    R  N N  N  II  N N  N  G       !!!           |
|           W WW W  AAAAAA  RRRRR   N  N N  II  N  N N  G  GGG   !            |
|           WW  WW  A    A  R   R   N   NN  II  N   NN  G    G                |
|           W    W  A    A  R    R  N    N  II  N    N   GGGG   !!!           |
|                                                                             |
|      For optimal performance we recommend to set                            |
|        NCORE= 4 - approx SQRT( number of cores)                             |
|      NCORE specifies how many cores store one orbital (NPAR=cpu/NCORE).     |
|      This setting can  greatly improve the performance of VASP for DFT.     |
|      The default, NPAR=number of cores might be grossly inefficient         |
|      on modern multi-core architectures or massively parallel machines.     |
|      Do your own testing !!!!                                               |
|      Unfortunately you need to use the default for GW and RPA calculations. |
|      (for HF NCORE is supported but not extensively tested yet)             |
|                                                                             |
 ----------------------------------------------------------------------------- 

 POTCAR:   PAW_PBE C 08Apr2002                    
   VRHFIN =C: s2p2                                                              
   LEXCH  = PE                                                                  
   EATOM  =   147.1560 eV,   10.8157 Ry                                         
                                                                                
   TITEL  = PAW_PBE C 08Apr2002                                                 
   LULTRA =        F    use ultrasoft PP ?                                      
   IUNSCR =        0    unscreen: 0-lin 1-nonlin 2-no                           
   RPACOR =     .000    partial core radius                                     
   POMASS =   12.011; ZVAL   =    4.000    mass and valenz                      
   RCORE  =    1.500    outmost cutoff radius                                   
   RWIGS  =    1.630; RWIGS  =     .863    wigner-seitz radius (au A)           
   ENMAX  =  400.000; ENMIN  =  300.000 eV                                      
   ICORE  =        2    local potential                                         
   LCOR   =        T    correct aug charges                                     
   LPAW   =        T    paw PP                                                  
   EAUG   =  644.873                                                            
   DEXC   =     .000                                                            
   RMAX   =    2.266    core radius for proj-oper                               
   RAUG   =    1.300    factor for augmentation sphere                          
   RDEP   =    1.501    radius for radial grids                                 
   RDEPT  =    1.300    core radius for aug-charge                              
   QCUT   =   -5.516; QGAM   =   11.032    optimization parameters              
                                                                                
   Description                                                                  
     l     E      TYP  RCUT    TYP  RCUT                                        
     0   .000     23  1.200                                                     
     0   .000     23  1.200                                                     
     1   .000     23  1.500                                                     
     1  2.500     23  1.500                                                     
     2   .000      7  1.500                                                     
  local pseudopotential read in
  atomic valenz-charges read in
  non local Contribution for L=           0  read in
    real space projection operators read in
  non local Contribution for L=           0  read in
    real space projection operators read in
  non local Contribution for L=           1  read in
    real space projection operators read in
  non local Contribution for L=           1  read in
    real space projection operators read in
    PAW grid and wavefunctions read in
 
   number of l-projection  operators is LMAX  =           4
   number of lm-projection operators is LMMAX =           8
 

 ----------------------------------------------------------------------------- 
|                                                                             |
|  ADVICE TO THIS USER RUNNING 'VASP/VAMP'   (HEAR YOUR MASTER'S VOICE ...):  |
|                                                                             |
|      You have a (more or less) 'large supercell' and for larger cells       |
|      it might be more efficient to use real space projection operators      |
|      So try LREAL= Auto  in the INCAR   file.                               |
|      Mind: If you want to do a very accurate calculations keep the          |
|      reciprocal projection scheme          (i.e. LREAL=.FALSE.)             |
|                                                                             |
 ----------------------------------------------------------------------------- 

 PAW_PBE C 08Apr2002                    :
 energy of atom  1       EATOM= -147.1560
 kinetic energy error for atom=    0.0057 (will be added to EATOM!!)
 
 
 POSCAR: C                                       
  positions in direct lattice
  No initial velocities read in
 exchange correlation table for  LEXCH =        8
   RHO(1)=    0.500       N(1)  =     2000
   RHO(2)=  100.500       N(2)  =     4000
 


--------------------------------------------------------------------------------------------------------


 ion  position               nearest neighbor table
   1  0.500  0.000  0.125-  20 1.42  18 1.42  19 1.42  16 1.51  12 1.51
   2  1.000  0.000  0.125-  19 1.42  20 1.42  17 1.42  15 1.51  11 1.51
   3  0.500  0.500  0.125-  17 1.42  18 1.42  20 1.42  14 1.51  10 1.51
   4  1.000  0.500  0.125-  19 1.42  18 1.42  17 1.43  13 1.51   9 1.51
   5  0.500  0.000  0.625-  24 1.42  22 1.42  23 1.42  16 1.51  12 1.51
   6  1.000  0.000  0.625-  23 1.42  21 1.42  24 1.42  15 1.51  11 1.51
   7  0.500  0.500  0.625-  22 1.42  24 1.42  21 1.42  14 1.51  10 1.51
   8  1.000  0.500  0.625-  21 1.42  23 1.42  22 1.42  13 1.51   9 1.51
   9  0.000  0.500  0.375-  28 1.42  27 1.42  26 1.42   8 1.51   4 1.51
  10  0.500  0.500  0.375-  27 1.42  28 1.42  25 1.42   7 1.51   3 1.51  17 2.07
  11  0.000  1.000  0.375-  26 1.42  25 1.42  28 1.42   6 1.51   2 1.51
  12  0.500  1.000  0.375-  25 1.42  26 1.42  27 1.42   5 1.51   1 1.51
  13  0.000  0.500  0.875-  32 1.42  31 1.42  30 1.42   8 1.51   4 1.51
  14  0.500  0.500  0.875-  31 1.42  32 1.42  29 1.42   7 1.51   3 1.51
  15  0.000  1.000  0.875-  30 1.42  29 1.42  32 1.42   6 1.51   2 1.51
  16  0.500  1.000  0.875-  29 1.42  30 1.42  31 1.42   5 1.51   1 1.51
  17  0.168  0.333  0.126-   3 1.42   2 1.42   4 1.43  10 2.07  25 2.07
  18  0.667  0.333  0.125-   3 1.42   1 1.42   4 1.42
  19  0.167  0.833  0.125-   2 1.42   4 1.42   1 1.42
  20  0.667  0.833  0.125-   1 1.42   3 1.42   2 1.42
  21  0.167  0.333  0.625-   8 1.42   6 1.42   7 1.42
  22  0.667  0.333  0.625-   7 1.42   5 1.42   8 1.42
  23  0.167  0.833  0.625-   6 1.42   8 1.42   5 1.42
  24  0.667  0.833  0.625-   5 1.42   7 1.42   6 1.42
  25  0.333  0.167  0.375-  12 1.42  11 1.42  10 1.42  17 2.07
  26  0.833  0.167  0.375-  11 1.42  12 1.42   9 1.42
  27  0.333  0.667  0.375-  10 1.42   9 1.42  12 1.42
  28  0.833  0.667  0.375-   9 1.42  10 1.42  11 1.42
  29  0.333  0.167  0.875-  16 1.42  15 1.42  14 1.42
  30  0.833  0.167  0.875-  15 1.42  16 1.42  13 1.42
  31  0.333  0.667  0.875-  14 1.42  13 1.42  16 1.42
  32  0.833  0.667  0.875-  13 1.42  14 1.42  15 1.42
 
  LATTYP: Found a base centered orthorhombic cell.
 ALAT       =     4.9339256766
 B/A-ratio  =     1.7322311103
 C/A-ratio  =     1.2268462224
  
  Lattice vectors:
  
 A1 = (   4.9343108848,  -0.0002224000,   0.0000000000)
 A2 = (  -2.4673480464,   4.2731273763,   0.0000000000)
 A3 = (   0.0000000000,   0.0000000000,   6.0531680780)


Analysis of symmetry for initial positions (statically):
=====================================================================
 Subroutine PRICEL returns:
 Original cell was already a primitive cell.
 

 Routine SETGRP: Setting up the symmetry group for a 
 base centered orthorhombic supercell.


 Subroutine GETGRP returns: Found  1 space group operations
 (whereof  1 operations were pure point group operations)
 out of a pool of  8 trial point group operations.


The static configuration has the point symmetry C_1 .


Analysis of symmetry for dynamics (positions and initial velocities):
=====================================================================
 Subroutine PRICEL returns:
 Original cell was already a primitive cell.
 

 Routine SETGRP: Setting up the symmetry group for a 
 base centered orthorhombic supercell.


 Subroutine GETGRP returns: Found  1 space group operations
 (whereof  1 operations were pure point group operations)
 out of a pool of  8 trial point group operations.


The dynamic configuration has the point symmetry C_1 .
 
 
 KPOINTS: B4C B11C-CBC                            

Automatic generation of k-mesh.
Space group operators:
 irot       det(A)        alpha          n_x          n_y          n_z        tau_x        tau_y        tau_z
    1     1.000000     0.000000     1.000000     0.000000     0.000000     0.000000     0.000000     0.000000
 
 Subroutine IBZKPT returns following result:
 ===========================================
 
 Found    163 irreducible k-points:
 
 Following reciprocal coordinates:
            Coordinates               Weight
  0.000000  0.000000  0.000000      1.000000
  0.111111  0.000000  0.000000      2.000000
  0.222222  0.000000  0.000000      2.000000
  0.333333  0.000000  0.000000      2.000000
  0.444444  0.000000  0.000000      2.000000
  0.000000  0.111111  0.000000      2.000000
  0.111111  0.111111  0.000000      2.000000
  0.222222  0.111111  0.000000      2.000000
  0.333333  0.111111  0.000000      2.000000
  0.444444  0.111111  0.000000      2.000000
 -0.444444  0.111111  0.000000      2.000000
 -0.333333  0.111111  0.000000      2.000000
 -0.222222  0.111111  0.000000      2.000000
 -0.111111  0.111111  0.000000      2.000000
  0.000000  0.222222  0.000000      2.000000
  0.111111  0.222222  0.000000      2.000000
  0.222222  0.222222  0.000000      2.000000
  0.333333  0.222222  0.000000      2.000000
  0.444444  0.222222  0.000000      2.000000
 -0.444444  0.222222  0.000000      2.000000
 -0.333333  0.222222  0.000000      2.000000
 -0.222222  0.222222  0.000000      2.000000
 -0.111111  0.222222  0.000000      2.000000
  0.000000  0.333333  0.000000      2.000000
  0.111111  0.333333  0.000000      2.000000
  0.222222  0.333333  0.000000      2.000000
  0.333333  0.333333  0.000000      2.000000
  0.444444  0.333333  0.000000      2.000000
 -0.444444  0.333333  0.000000      2.000000
 -0.333333  0.333333  0.000000      2.000000
 -0.222222  0.333333  0.000000      2.000000
 -0.111111  0.333333  0.000000      2.000000
  0.000000  0.444444  0.000000      2.000000
  0.111111  0.444444  0.000000      2.000000
  0.222222  0.444444  0.000000      2.000000
  0.333333  0.444444  0.000000      2.000000
  0.444444  0.444444  0.000000      2.000000
 -0.444444  0.444444  0.000000      2.000000
 -0.333333  0.444444  0.000000      2.000000
 -0.222222  0.444444  0.000000      2.000000
 -0.111111  0.444444  0.000000      2.000000
  0.000000  0.000000  0.250000      2.000000
  0.111111  0.000000  0.250000      2.000000
  0.222222  0.000000  0.250000      2.000000
  0.333333  0.000000  0.250000      2.000000
  0.444444  0.000000  0.250000      2.000000
 -0.444444 -0.000000  0.250000      2.000000
 -0.333333 -0.000000  0.250000      2.000000
 -0.222222 -0.000000  0.250000      2.000000
 -0.111111 -0.000000  0.250000      2.000000
  0.000000  0.111111  0.250000      2.000000
  0.111111  0.111111  0.250000      2.000000
  0.222222  0.111111  0.250000      2.000000
  0.333333  0.111111  0.250000      2.000000
  0.444444  0.111111  0.250000      2.000000
 -0.444444  0.111111  0.250000      2.000000
 -0.333333  0.111111  0.250000      2.000000
 -0.222222  0.111111  0.250000      2.000000
 -0.111111  0.111111  0.250000      2.000000
  0.000000  0.222222  0.250000      2.000000
  0.111111  0.222222  0.250000      2.000000
  0.222222  0.222222  0.250000      2.000000
  0.333333  0.222222  0.250000      2.000000
  0.444444  0.222222  0.250000      2.000000
 -0.444444  0.222222  0.250000      2.000000
 -0.333333  0.222222  0.250000      2.000000
 -0.222222  0.222222  0.250000      2.000000
 -0.111111  0.222222  0.250000      2.000000
  0.000000  0.333333  0.250000      2.000000
  0.111111  0.333333  0.250000      2.000000
  0.222222  0.333333  0.250000      2.000000
  0.333333  0.333333  0.250000      2.000000
  0.444444  0.333333  0.250000      2.000000
 -0.444444  0.333333  0.250000      2.000000
 -0.333333  0.333333  0.250000      2.000000
 -0.222222  0.333333  0.250000      2.000000
 -0.111111  0.333333  0.250000      2.000000
  0.000000  0.444444  0.250000      2.000000
  0.111111  0.444444  0.250000      2.000000
  0.222222  0.444444  0.250000      2.000000
  0.333333  0.444444  0.250000      2.000000
  0.444444  0.444444  0.250000      2.000000
 -0.444444  0.444444  0.250000      2.000000
 -0.333333  0.444444  0.250000      2.000000
 -0.222222  0.444444  0.250000      2.000000
 -0.111111  0.444444  0.250000      2.000000
  0.000000 -0.444444  0.250000      2.000000
  0.111111 -0.444444  0.250000      2.000000
  0.222222 -0.444444  0.250000      2.000000
  0.333333 -0.444444  0.250000      2.000000
  0.444444 -0.444444  0.250000      2.000000
 -0.444444 -0.444444  0.250000      2.000000
 -0.333333 -0.444444  0.250000      2.000000
 -0.222222 -0.444444  0.250000      2.000000
 -0.111111 -0.444444  0.250000      2.000000
  0.000000 -0.333333  0.250000      2.000000
  0.111111 -0.333333  0.250000      2.000000
  0.222222 -0.333333  0.250000      2.000000
  0.333333 -0.333333  0.250000      2.000000
  0.444444 -0.333333  0.250000      2.000000
 -0.444444 -0.333333  0.250000      2.000000
 -0.333333 -0.333333  0.250000      2.000000
 -0.222222 -0.333333  0.250000      2.000000
 -0.111111 -0.333333  0.250000      2.000000
  0.000000 -0.222222  0.250000      2.000000
  0.111111 -0.222222  0.250000      2.000000
  0.222222 -0.222222  0.250000      2.000000
  0.333333 -0.222222  0.250000      2.000000
  0.444444 -0.222222  0.250000      2.000000
 -0.444444 -0.222222  0.250000      2.000000
 -0.333333 -0.222222  0.250000      2.000000
 -0.222222 -0.222222  0.250000      2.000000
 -0.111111 -0.222222  0.250000      2.000000
 -0.000000 -0.111111  0.250000      2.000000
  0.111111 -0.111111  0.250000      2.000000
  0.222222 -0.111111  0.250000      2.000000
  0.333333 -0.111111  0.250000      2.000000
  0.444444 -0.111111  0.250000      2.000000
 -0.444444 -0.111111  0.250000      2.000000
 -0.333333 -0.111111  0.250000      2.000000
 -0.222222 -0.111111  0.250000      2.000000
 -0.111111 -0.111111  0.250000      2.000000
  0.000000  0.000000  0.500000      1.000000
  0.111111  0.000000  0.500000      2.000000
  0.222222  0.000000  0.500000      2.000000
  0.333333  0.000000  0.500000      2.000000
  0.444444  0.000000  0.500000      2.000000
  0.000000  0.111111  0.500000      2.000000
  0.111111  0.111111  0.500000      2.000000
  0.222222  0.111111  0.500000      2.000000
  0.333333  0.111111  0.500000      2.000000
  0.444444  0.111111  0.500000      2.000000
 -0.444444  0.111111  0.500000      2.000000
 -0.333333  0.111111  0.500000      2.000000
 -0.222222  0.111111  0.500000      2.000000
 -0.111111  0.111111  0.500000      2.000000
  0.000000  0.222222  0.500000      2.000000
  0.111111  0.222222  0.500000      2.000000
  0.222222  0.222222  0.500000      2.000000
  0.333333  0.222222  0.500000      2.000000
  0.444444  0.222222  0.500000      2.000000
 -0.444444  0.222222  0.500000      2.000000
 -0.333333  0.222222  0.500000      2.000000
 -0.222222  0.222222  0.500000      2.000000
 -0.111111  0.222222  0.500000      2.000000
  0.000000  0.333333  0.500000      2.000000
  0.111111  0.333333  0.500000      2.000000
  0.222222  0.333333  0.500000      2.000000
  0.333333  0.333333  0.500000      2.000000
  0.444444  0.333333  0.500000      2.000000
 -0.444444  0.333333  0.500000      2.000000
 -0.333333  0.333333  0.500000      2.000000
 -0.222222  0.333333  0.500000      2.000000
 -0.111111  0.333333  0.500000      2.000000
  0.000000  0.444444  0.500000      2.000000
  0.111111  0.444444  0.500000      2.000000
  0.222222  0.444444  0.500000      2.000000
  0.333333  0.444444  0.500000      2.000000
  0.444444  0.444444  0.500000      2.000000
 -0.444444  0.444444  0.500000      2.000000
 -0.333333  0.444444  0.500000      2.000000
 -0.222222  0.444444  0.500000      2.000000
 -0.111111  0.444444  0.500000      2.000000
 
 Following cartesian coordinates:
            Coordinates               Weight
  0.000000  0.000000  0.000000      1.000000
  0.022519  0.013002  0.000000      2.000000
  0.045037  0.026005  0.000000      2.000000
  0.067556  0.039007  0.000000      2.000000
  0.090075  0.052010  0.000000      2.000000
  0.000001  0.026003  0.000000      2.000000
  0.022520  0.039005  0.000000      2.000000
  0.045038  0.052008  0.000000      2.000000
  0.067557  0.065010  0.000000      2.000000
  0.090076  0.078013  0.000000      2.000000
 -0.090073 -0.026007  0.000000      2.000000
 -0.067555 -0.013005  0.000000      2.000000
 -0.045036 -0.000002  0.000000      2.000000
 -0.022517  0.013000  0.000000      2.000000
  0.000002  0.052006  0.000000      2.000000
  0.022521  0.065008  0.000000      2.000000
  0.045040  0.078011  0.000000      2.000000
  0.067558  0.091013  0.000000      2.000000
  0.090077  0.104016  0.000000      2.000000
 -0.090072 -0.000004  0.000000      2.000000
 -0.067554  0.012998  0.000000      2.000000
 -0.045035  0.026001  0.000000      2.000000
 -0.022516  0.039003  0.000000      2.000000
  0.000004  0.078009  0.000000      2.000000
  0.022522  0.091011  0.000000      2.000000
  0.045041  0.104014  0.000000      2.000000
  0.067559  0.117016  0.000000      2.000000
  0.090078  0.130019  0.000000      2.000000
 -0.090071  0.025999  0.000000      2.000000
 -0.067552  0.039001  0.000000      2.000000
 -0.045034  0.052004  0.000000      2.000000
 -0.022515  0.065006  0.000000      2.000000
  0.000005  0.104012  0.000000      2.000000
  0.022523  0.117014  0.000000      2.000000
  0.045042  0.130017  0.000000      2.000000
  0.067561  0.143019  0.000000      2.000000
  0.090079  0.156022  0.000000      2.000000
 -0.090070  0.052002  0.000000      2.000000
 -0.067551  0.065004  0.000000      2.000000
 -0.045033  0.078007  0.000000      2.000000
 -0.022514  0.091009  0.000000      2.000000
  0.000000  0.000000  0.041301      2.000000
  0.022519  0.013002  0.041301      2.000000
  0.045037  0.026005  0.041301      2.000000
  0.067556  0.039007  0.041301      2.000000
  0.090075  0.052010  0.041301      2.000000
 -0.090075 -0.052010  0.041301      2.000000
 -0.067556 -0.039007  0.041301      2.000000
 -0.045037 -0.026005  0.041301      2.000000
 -0.022519 -0.013002  0.041301      2.000000
  0.000001  0.026003  0.041301      2.000000
  0.022520  0.039005  0.041301      2.000000
  0.045038  0.052008  0.041301      2.000000
  0.067557  0.065010  0.041301      2.000000
  0.090076  0.078013  0.041301      2.000000
 -0.090073 -0.026007  0.041301      2.000000
 -0.067555 -0.013005  0.041301      2.000000
 -0.045036 -0.000002  0.041301      2.000000
 -0.022517  0.013000  0.041301      2.000000
  0.000002  0.052006  0.041301      2.000000
  0.022521  0.065008  0.041301      2.000000
  0.045040  0.078011  0.041301      2.000000
  0.067558  0.091013  0.041301      2.000000
  0.090077  0.104016  0.041301      2.000000
 -0.090072 -0.000004  0.041301      2.000000
 -0.067554  0.012998  0.041301      2.000000
 -0.045035  0.026001  0.041301      2.000000
 -0.022516  0.039003  0.041301      2.000000
  0.000004  0.078009  0.041301      2.000000
  0.022522  0.091011  0.041301      2.000000
  0.045041  0.104014  0.041301      2.000000
  0.067559  0.117016  0.041301      2.000000
  0.090078  0.130019  0.041301      2.000000
 -0.090071  0.025999  0.041301      2.000000
 -0.067552  0.039001  0.041301      2.000000
 -0.045034  0.052004  0.041301      2.000000
 -0.022515  0.065006  0.041301      2.000000
  0.000005  0.104012  0.041301      2.000000
  0.022523  0.117014  0.041301      2.000000
  0.045042  0.130017  0.041301      2.000000
  0.067561  0.143019  0.041301      2.000000
  0.090079  0.156022  0.041301      2.000000
 -0.090070  0.052002  0.041301      2.000000
 -0.067551  0.065004  0.041301      2.000000
 -0.045033  0.078007  0.041301      2.000000
 -0.022514  0.091009  0.041301      2.000000
 -0.000005 -0.104012  0.041301      2.000000
  0.022514 -0.091009  0.041301      2.000000
  0.045033 -0.078007  0.041301      2.000000
  0.067551 -0.065004  0.041301      2.000000
  0.090070 -0.052002  0.041301      2.000000
 -0.090079 -0.156022  0.041301      2.000000
 -0.067561 -0.143019  0.041301      2.000000
 -0.045042 -0.130017  0.041301      2.000000
 -0.022523 -0.117014  0.041301      2.000000
 -0.000004 -0.078009  0.041301      2.000000
  0.022515 -0.065006  0.041301      2.000000
  0.045034 -0.052004  0.041301      2.000000
  0.067552 -0.039001  0.041301      2.000000
  0.090071 -0.025999  0.041301      2.000000
 -0.090078 -0.130019  0.041301      2.000000
 -0.067559 -0.117016  0.041301      2.000000
 -0.045041 -0.104014  0.041301      2.000000
 -0.022522 -0.091011  0.041301      2.000000
 -0.000002 -0.052006  0.041301      2.000000
  0.022516 -0.039003  0.041301      2.000000
  0.045035 -0.026001  0.041301      2.000000
  0.067554 -0.012998  0.041301      2.000000
  0.090072  0.000004  0.041301      2.000000
 -0.090077 -0.104016  0.041301      2.000000
 -0.067558 -0.091013  0.041301      2.000000
 -0.045040 -0.078011  0.041301      2.000000
 -0.022521 -0.065008  0.041301      2.000000
 -0.000001 -0.026003  0.041301      2.000000
  0.022517 -0.013000  0.041301      2.000000
  0.045036  0.000002  0.041301      2.000000
  0.067555  0.013005  0.041301      2.000000
  0.090073  0.026007  0.041301      2.000000
 -0.090076 -0.078013  0.041301      2.000000
 -0.067557 -0.065010  0.041301      2.000000
 -0.045038 -0.052008  0.041301      2.000000
 -0.022520 -0.039005  0.041301      2.000000
  0.000000  0.000000  0.082601      1.000000
  0.022519  0.013002  0.082601      2.000000
  0.045037  0.026005  0.082601      2.000000
  0.067556  0.039007  0.082601      2.000000
  0.090075  0.052010  0.082601      2.000000
  0.000001  0.026003  0.082601      2.000000
  0.022520  0.039005  0.082601      2.000000
  0.045038  0.052008  0.082601      2.000000
  0.067557  0.065010  0.082601      2.000000
  0.090076  0.078013  0.082601      2.000000
 -0.090073 -0.026007  0.082601      2.000000
 -0.067555 -0.013005  0.082601      2.000000
 -0.045036 -0.000002  0.082601      2.000000
 -0.022517  0.013000  0.082601      2.000000
  0.000002  0.052006  0.082601      2.000000
  0.022521  0.065008  0.082601      2.000000
  0.045040  0.078011  0.082601      2.000000
  0.067558  0.091013  0.082601      2.000000
  0.090077  0.104016  0.082601      2.000000
 -0.090072 -0.000004  0.082601      2.000000
 -0.067554  0.012998  0.082601      2.000000
 -0.045035  0.026001  0.082601      2.000000
 -0.022516  0.039003  0.082601      2.000000
  0.000004  0.078009  0.082601      2.000000
  0.022522  0.091011  0.082601      2.000000
  0.045041  0.104014  0.082601      2.000000
  0.067559  0.117016  0.082601      2.000000
  0.090078  0.130019  0.082601      2.000000
 -0.090071  0.025999  0.082601      2.000000
 -0.067552  0.039001  0.082601      2.000000
 -0.045034  0.052004  0.082601      2.000000
 -0.022515  0.065006  0.082601      2.000000
  0.000005  0.104012  0.082601      2.000000
  0.022523  0.117014  0.082601      2.000000
  0.045042  0.130017  0.082601      2.000000
  0.067561  0.143019  0.082601      2.000000
  0.090079  0.156022  0.082601      2.000000
 -0.090070  0.052002  0.082601      2.000000
 -0.067551  0.065004  0.082601      2.000000
 -0.045033  0.078007  0.082601      2.000000
 -0.022514  0.091009  0.082601      2.000000
 
 TETIRR: Found    970 inequivalent tetrahedra from     1944


--------------------------------------------------------------------------------------------------------




 Dimension of arrays:
   k-points           NKPTS =    163   k-points in BZ     NKDIM =    163   number of bands    NBANDS=     84
   number of dos      NEDOS =    301   number of ions     NIONS =     32
   non local maximal  LDIM  =      4   non local SUM 2l+1 LMDIM =      8
   total plane-waves  NPLWV =  76800
   max r-space proj   IRMAX =      1   max aug-charges    IRDMAX=   7300
   dimension x,y,z NGX =    40 NGY =   40 NGZ =   48
   dimension x,y,z NGXF=    80 NGYF=   80 NGZF=   96
   support grid    NGXF=    80 NGYF=   80 NGZF=   96
   ions per type =              32
 NGX,Y,Z   is equivalent  to a cutoff of  13.48, 13.48, 13.18 a.u.
 NGXF,Y,Z  is equivalent  to a cutoff of  26.95, 26.95, 26.37 a.u.


 I would recommend the setting:
   dimension x,y,z NGX =    39 NGY =   39 NGZ =   48
 SYSTEM =  graphite                                
 POSCAR =  C                                       

 Startparameter for this run:
   NWRITE =      2    write-flag & timer
   PREC   = accura    normal or accurate (medium, high low for compatibility)
   ISTART =      0    job   : 0-new  1-cont  2-samecut
   ICHARG =      2    charge: 1-file 2-atom 10-const
   ISPIN  =      1    spin polarized calculation?
   LNONCOLLINEAR =      F non collinear calculations
   LSORBIT =      F    spin-orbit coupling
   INIWAV =      1    electr: 0-lowe 1-rand  2-diag
   LASPH  =      F    aspherical Exc in radial PAW
   METAGGA=      F    non-selfconsistent MetaGGA calc.

 Electronic Relaxation 1
   ENCUT  =  600.0 eV  44.10 Ry    6.64 a.u.   9.86  9.86 12.09*2*pi/ulx,y,z
   ENINI  =  600.0     initial cutoff
   ENAUG  =  644.9 eV  augmentation charge cutoff
   NELM   =    200;   NELMIN=  2; NELMDL=  0     # of ELM steps 
   EDIFF  = 0.1E-05   stopping-criterion for ELM
   LREAL  =      F    real-space projection
   NLSPLINE    = F    spline interpolate recip. space projectors
   LCOMPAT=      F    compatible to vasp.4.4
   GGA_COMPAT  = T    GGA compatible to vasp.4.4-vasp.4.6
   LMAXPAW     = -100 max onsite density
   LMAXMIX     =    2 max onsite mixed and CHGCAR
   VOSKOWN=      0    Vosko Wilk Nusair interpolation
   ROPT   =    0.00000
 Ionic relaxation
   EDIFFG = 0.1E-02   stopping-criterion for IOM
   NSW    =      0    number of steps for IOM
   NBLOCK =      1;   KBLOCK =      1    inner block; outer block 
   IBRION =     -1    ionic relax: 0-MD 1-quasi-New 2-CG
   NFREE  =      0    steps in history (QN), initial steepest desc. (CG)
   ISIF   =      2    stress and relaxation
   IWAVPR =     10    prediction:  0-non 1-charg 2-wave 3-comb
   ISYM   =      2    0-nonsym 1-usesym 2-fastsym
   LCORR  =      T    Harris-Foulkes like correction to forces

   POTIM  = 0.5000    time-step for ionic-motion
   TEIN   =    0.0    initial temperature
   TEBEG  =    0.0;   TEEND  =   0.0 temperature during run
   SMASS  =  -3.00    Nose mass-parameter (am)
   estimated Nose-frequenzy (Omega)   =  0.10E-29 period in steps =****** mass=  -0.556E-27a.u.
   SCALEE = 1.0000    scale energy and forces
   NPACO  =    256;   APACO  = 16.0  distance and # of slots for P.C.
   PSTRESS=    0.0 pullay stress

  Mass of Ions in am
   POMASS =  12.01
  Ionic Valenz
   ZVAL   =   4.00
  Atomic Wigner-Seitz radii
   RWIGS  =  -1.00
  virtual crystal weights 
   VCA    =   1.00
   NELECT =     128.0000    total number of electrons
   NUPDOWN=      -1.0000    fix difference up-down

 DOS related values:
   EMIN   =  10.00;   EMAX   =-10.00  energy-range for DOS
   EFERMI =   0.00
   ISMEAR =    -5;   SIGMA  =   0.20  broadening in eV -4-tet -1-fermi 0-gaus

 Electronic relaxation 2 (details)
   IALGO  =     38    algorithm
   LDIAG  =      T    sub-space diagonalisation (order eigenvalues)
   LSUBROT=      F    optimize rotation matrix (better conditioning)
   TURBO    =      0    0=normal 1=particle mesh
   IRESTART =      0    0=no restart 2=restart with 2 vectors
   NREBOOT  =      0    no. of reboots
   NMIN     =      0    reboot dimension
   EREF     =   0.00    reference energy to select bands
   IMIX   =      4    mixing-type and parameters
     AMIX     =   0.40;   BMIX     =  1.00
     AMIX_MAG =   1.60;   BMIX_MAG =  1.00
     AMIN     =   0.10
     WC   =   100.;   INIMIX=   1;  MIXPRE=   1;  MAXMIX= -45

 Intra band minimization:
   WEIMIN = 0.0000     energy-eigenvalue tresh-hold
   EBREAK =  0.30E-08  absolut break condition
   DEPER  =   0.30     relativ break condition  

   TIME   =   0.40     timestep for ELM

  volume/ion in A,a.u.               =       3.99        26.91
  Fermi-wavevector in a.u.,A,eV,Ry     =   1.638690  3.096676 36.535807  2.685306
  Thomas-Fermi vector in A             =   2.729621
 
 Write flags
   LWAVE  =      F    write WAVECAR
   LCHARG =      F    write CHGCAR
   LVTOT  =      F    write LOCPOT, total local potential
   LVHAR  =      F    write LOCPOT, Hartree potential only
   LELF   =      F    write electronic localiz. function (ELF)
   LORBIT =      0    0 simple, 1 ext, 2 COOP (PROOUT)


 Dipole corrections
   LMONO  =      F    monopole corrections only (constant potential shift)
   LDIPOL =      F    correct potential (dipole corrections)
   IDIPOL =      0    1-x, 2-y, 3-z, 4-all directions 
   EPSILON=  1.0000000 bulk dielectric constant

 Exchange correlation treatment:
   GGA     =    PE    GGA type
   LEXCH   =     8    internal setting for exchange type
   VOSKOWN=      0    Vosko Wilk Nusair interpolation
   LHFCALC =     F    Hartree Fock is set to
   LHFONE  =     F    Hartree Fock one center treatment
   AEXX    =    0.0000 exact exchange contribution

 Linear response parameters
   LEPSILON=     F    determine dielectric tensor
   LRPA    =     F    only Hartree local field effects (RPA)
   LNABLA  =     F    use nabla operator in PAW spheres
   LVEL    =     F    velocity operator in full k-point grid
   LINTERFAST=   F  fast interpolation
   KINTER  =     0    interpolate to denser k-point grid
   CSHIFT  =0.1000    complex shift for real part using Kramers Kronig
   OMEGAMAX=  -1.0    maximum frequency
   DEG_THRESHOLD= 0.2000000E-02 threshold for treating states as degnerate
   RTIME   =    0.100 relaxation time in fs

 Orbital magnetization related:
   ORBITALMAG=     F  switch on orbital magnetization
   LCHIMAG   =     F  perturbation theory with respect to B field
   DQ        =  0.001000  dq finite difference perturbation B field



--------------------------------------------------------------------------------------------------------


 Static calculation
 charge density and potential will be updated during run
 non-spin polarized calculation
 Variant of blocked Davidson
 Davidson routine will perform the subspace rotation
 perform sub-space diagonalisation
    after iterative eigenvector-optimisation
 modified Broyden-mixing scheme, WC =      100.0
 initial mixing is a Kerker type mixing with AMIX =  0.4000 and BMIX =      1.0000
 Hartree-type preconditioning will be used
 using additional bands           20
 reciprocal scheme for non local part
 calculate Harris-corrections to forces 
   (improved forces if not selfconsistent)
 use gradient corrections 
 use of overlap-Matrix (Vanderbilt PP)
 Fermi weights with tetrahedron method with Bloechl corrections


--------------------------------------------------------------------------------------------------------


  energy-cutoff  :      600.00
  volume of cell :      127.63
      direct lattice vectors                 reciprocal lattice vectors
     4.934310885 -0.000222400  0.000000000     0.202667819  0.117022500  0.000000000
    -2.467348046  4.273127376  0.000000000     0.000010548  0.234026730  0.000000000
     0.000000000  0.000000000  6.053168078     0.000000000  0.000000000  0.165202748

  length of vectors
     4.934310890  4.934310890  6.053168078     0.234026730  0.234026730  0.165202748


 
 k-points in units of 2pi/SCALE and weight: B4C B11C-CBC                            
   0.00000000  0.00000000  0.00000000       0.003
   0.02251865  0.01300250  0.00000000       0.006
   0.04503729  0.02600500  0.00000000       0.006
   0.06755594  0.03900750  0.00000000       0.006
   0.09007459  0.05201000  0.00000000       0.006
   0.00000117  0.02600297  0.00000000       0.006
   0.02251982  0.03900547  0.00000000       0.006
   0.04503847  0.05200797  0.00000000       0.006
   0.06755711  0.06501047  0.00000000       0.006
   0.09007576  0.07801297  0.00000000       0.006
  -0.09007341 -0.02600703  0.00000000       0.006
  -0.06755477 -0.01300453  0.00000000       0.006
  -0.04503612 -0.00000203  0.00000000       0.006
  -0.02251747  0.01300047  0.00000000       0.006
   0.00000234  0.05200594  0.00000000       0.006
   0.02252099  0.06500844  0.00000000       0.006
   0.04503964  0.07801094  0.00000000       0.006
   0.06755828  0.09101344  0.00000000       0.006
   0.09007693  0.10401594  0.00000000       0.006
  -0.09007224 -0.00000406  0.00000000       0.006
  -0.06755360  0.01299844  0.00000000       0.006
  -0.04503495  0.02600094  0.00000000       0.006
  -0.02251630  0.03900344  0.00000000       0.006
   0.00000352  0.07800891  0.00000000       0.006
   0.02252216  0.09101141  0.00000000       0.006
   0.04504081  0.10401391  0.00000000       0.006
   0.06755946  0.11701641  0.00000000       0.006
   0.09007810  0.13001891  0.00000000       0.006
  -0.09007107  0.02599891  0.00000000       0.006
  -0.06755242  0.03900141  0.00000000       0.006
  -0.04503378  0.05200391  0.00000000       0.006
  -0.02251513  0.06500641  0.00000000       0.006
   0.00000469  0.10401188  0.00000000       0.006
   0.02252333  0.11701438  0.00000000       0.006
   0.04504198  0.13001688  0.00000000       0.006
   0.06756063  0.14301938  0.00000000       0.006
   0.09007927  0.15602188  0.00000000       0.006
  -0.09006990  0.05200188  0.00000000       0.006
  -0.06755125  0.06500438  0.00000000       0.006
  -0.04503261  0.07800688  0.00000000       0.006
  -0.02251396  0.09100938  0.00000000       0.006
   0.00000000  0.00000000  0.04130069       0.006
   0.02251865  0.01300250  0.04130069       0.006
   0.04503729  0.02600500  0.04130069       0.006
   0.06755594  0.03900750  0.04130069       0.006
   0.09007459  0.05201000  0.04130069       0.006
  -0.09007459 -0.05201000  0.04130069       0.006
  -0.06755594 -0.03900750  0.04130069       0.006
  -0.04503729 -0.02600500  0.04130069       0.006
  -0.02251865 -0.01300250  0.04130069       0.006
   0.00000117  0.02600297  0.04130069       0.006
   0.02251982  0.03900547  0.04130069       0.006
   0.04503847  0.05200797  0.04130069       0.006
   0.06755711  0.06501047  0.04130069       0.006
   0.09007576  0.07801297  0.04130069       0.006
  -0.09007341 -0.02600703  0.04130069       0.006
  -0.06755477 -0.01300453  0.04130069       0.006
  -0.04503612 -0.00000203  0.04130069       0.006
  -0.02251747  0.01300047  0.04130069       0.006
   0.00000234  0.05200594  0.04130069       0.006
   0.02252099  0.06500844  0.04130069       0.006
   0.04503964  0.07801094  0.04130069       0.006
   0.06755828  0.09101344  0.04130069       0.006
   0.09007693  0.10401594  0.04130069       0.006
  -0.09007224 -0.00000406  0.04130069       0.006
  -0.06755360  0.01299844  0.04130069       0.006
  -0.04503495  0.02600094  0.04130069       0.006
  -0.02251630  0.03900344  0.04130069       0.006
   0.00000352  0.07800891  0.04130069       0.006
   0.02252216  0.09101141  0.04130069       0.006
   0.04504081  0.10401391  0.04130069       0.006
   0.06755946  0.11701641  0.04130069       0.006
   0.09007810  0.13001891  0.04130069       0.006
  -0.09007107  0.02599891  0.04130069       0.006
  -0.06755242  0.03900141  0.04130069       0.006
  -0.04503378  0.05200391  0.04130069       0.006
  -0.02251513  0.06500641  0.04130069       0.006
   0.00000469  0.10401188  0.04130069       0.006
   0.02252333  0.11701438  0.04130069       0.006
   0.04504198  0.13001688  0.04130069       0.006
   0.06756063  0.14301938  0.04130069       0.006
   0.09007927  0.15602188  0.04130069       0.006
  -0.09006990  0.05200188  0.04130069       0.006
  -0.06755125  0.06500438  0.04130069       0.006
  -0.04503261  0.07800688  0.04130069       0.006
  -0.02251396  0.09100938  0.04130069       0.006
  -0.00000469 -0.10401188  0.04130069       0.006
   0.02251396 -0.09100938  0.04130069       0.006
   0.04503261 -0.07800688  0.04130069       0.006
   0.06755125 -0.06500438  0.04130069       0.006
   0.09006990 -0.05200188  0.04130069       0.006
  -0.09007927 -0.15602188  0.04130069       0.006
  -0.06756063 -0.14301938  0.04130069       0.006
  -0.04504198 -0.13001688  0.04130069       0.006
  -0.02252333 -0.11701438  0.04130069       0.006
  -0.00000352 -0.07800891  0.04130069       0.006
   0.02251513 -0.06500641  0.04130069       0.006
   0.04503378 -0.05200391  0.04130069       0.006
   0.06755242 -0.03900141  0.04130069       0.006
   0.09007107 -0.02599891  0.04130069       0.006
  -0.09007810 -0.13001891  0.04130069       0.006
  -0.06755946 -0.11701641  0.04130069       0.006
  -0.04504081 -0.10401391  0.04130069       0.006
  -0.02252216 -0.09101141  0.04130069       0.006
  -0.00000234 -0.05200594  0.04130069       0.006
   0.02251630 -0.03900344  0.04130069       0.006
   0.04503495 -0.02600094  0.04130069       0.006
   0.06755360 -0.01299844  0.04130069       0.006
   0.09007224  0.00000406  0.04130069       0.006
  -0.09007693 -0.10401594  0.04130069       0.006
  -0.06755828 -0.09101344  0.04130069       0.006
  -0.04503964 -0.07801094  0.04130069       0.006
  -0.02252099 -0.06500844  0.04130069       0.006
  -0.00000117 -0.02600297  0.04130069       0.006
   0.02251747 -0.01300047  0.04130069       0.006
   0.04503612  0.00000203  0.04130069       0.006
   0.06755477  0.01300453  0.04130069       0.006
   0.09007341  0.02600703  0.04130069       0.006
  -0.09007576 -0.07801297  0.04130069       0.006
  -0.06755711 -0.06501047  0.04130069       0.006
  -0.04503847 -0.05200797  0.04130069       0.006
  -0.02251982 -0.03900547  0.04130069       0.006
   0.00000000  0.00000000  0.08260137       0.003
   0.02251865  0.01300250  0.08260137       0.006
   0.04503729  0.02600500  0.08260137       0.006
   0.06755594  0.03900750  0.08260137       0.006
   0.09007459  0.05201000  0.08260137       0.006
   0.00000117  0.02600297  0.08260137       0.006
   0.02251982  0.03900547  0.08260137       0.006
   0.04503847  0.05200797  0.08260137       0.006
   0.06755711  0.06501047  0.08260137       0.006
   0.09007576  0.07801297  0.08260137       0.006
  -0.09007341 -0.02600703  0.08260137       0.006
  -0.06755477 -0.01300453  0.08260137       0.006
  -0.04503612 -0.00000203  0.08260137       0.006
  -0.02251747  0.01300047  0.08260137       0.006
   0.00000234  0.05200594  0.08260137       0.006
   0.02252099  0.06500844  0.08260137       0.006
   0.04503964  0.07801094  0.08260137       0.006
   0.06755828  0.09101344  0.08260137       0.006
   0.09007693  0.10401594  0.08260137       0.006
  -0.09007224 -0.00000406  0.08260137       0.006
  -0.06755360  0.01299844  0.08260137       0.006
  -0.04503495  0.02600094  0.08260137       0.006
  -0.02251630  0.03900344  0.08260137       0.006
   0.00000352  0.07800891  0.08260137       0.006
   0.02252216  0.09101141  0.08260137       0.006
   0.04504081  0.10401391  0.08260137       0.006
   0.06755946  0.11701641  0.08260137       0.006
   0.09007810  0.13001891  0.08260137       0.006
  -0.09007107  0.02599891  0.08260137       0.006
  -0.06755242  0.03900141  0.08260137       0.006
  -0.04503378  0.05200391  0.08260137       0.006
  -0.02251513  0.06500641  0.08260137       0.006
   0.00000469  0.10401188  0.08260137       0.006
   0.02252333  0.11701438  0.08260137       0.006
   0.04504198  0.13001688  0.08260137       0.006
   0.06756063  0.14301938  0.08260137       0.006
   0.09007927  0.15602188  0.08260137       0.006
  -0.09006990  0.05200188  0.08260137       0.006
  -0.06755125  0.06500438  0.08260137       0.006
  -0.04503261  0.07800688  0.08260137       0.006
  -0.02251396  0.09100938  0.08260137       0.006
 
 k-points in reciprocal lattice and weights: B4C B11C-CBC                            
   0.00000000  0.00000000  0.00000000       0.003
   0.11111111  0.00000000  0.00000000       0.006
   0.22222222  0.00000000  0.00000000       0.006
   0.33333333  0.00000000  0.00000000       0.006
   0.44444444  0.00000000  0.00000000       0.006
   0.00000000  0.11111111  0.00000000       0.006
   0.11111111  0.11111111  0.00000000       0.006
   0.22222222  0.11111111  0.00000000       0.006
   0.33333333  0.11111111  0.00000000       0.006
   0.44444444  0.11111111  0.00000000       0.006
  -0.44444444  0.11111111  0.00000000       0.006
  -0.33333333  0.11111111  0.00000000       0.006
  -0.22222222  0.11111111  0.00000000       0.006
  -0.11111111  0.11111111  0.00000000       0.006
   0.00000000  0.22222222  0.00000000       0.006
   0.11111111  0.22222222  0.00000000       0.006
   0.22222222  0.22222222  0.00000000       0.006
   0.33333333  0.22222222  0.00000000       0.006
   0.44444444  0.22222222  0.00000000       0.006
  -0.44444444  0.22222222  0.00000000       0.006
  -0.33333333  0.22222222  0.00000000       0.006
  -0.22222222  0.22222222  0.00000000       0.006
  -0.11111111  0.22222222  0.00000000       0.006
   0.00000000  0.33333333  0.00000000       0.006
   0.11111111  0.33333333  0.00000000       0.006
   0.22222222  0.33333333  0.00000000       0.006
   0.33333333  0.33333333  0.00000000       0.006
   0.44444444  0.33333333  0.00000000       0.006
  -0.44444444  0.33333333  0.00000000       0.006
  -0.33333333  0.33333333  0.00000000       0.006
  -0.22222222  0.33333333  0.00000000       0.006
  -0.11111111  0.33333333  0.00000000       0.006
   0.00000000  0.44444444  0.00000000       0.006
   0.11111111  0.44444444  0.00000000       0.006
   0.22222222  0.44444444  0.00000000       0.006
   0.33333333  0.44444444  0.00000000       0.006
   0.44444444  0.44444444  0.00000000       0.006
  -0.44444444  0.44444444  0.00000000       0.006
  -0.33333333  0.44444444  0.00000000       0.006
  -0.22222222  0.44444444  0.00000000       0.006
  -0.11111111  0.44444444  0.00000000       0.006
   0.00000000  0.00000000  0.25000000       0.006
   0.11111111  0.00000000  0.25000000       0.006
   0.22222222  0.00000000  0.25000000       0.006
   0.33333333  0.00000000  0.25000000       0.006
   0.44444444  0.00000000  0.25000000       0.006
  -0.44444444 -0.00000000  0.25000000       0.006
  -0.33333333 -0.00000000  0.25000000       0.006
  -0.22222222 -0.00000000  0.25000000       0.006
  -0.11111111 -0.00000000  0.25000000       0.006
   0.00000000  0.11111111  0.25000000       0.006
   0.11111111  0.11111111  0.25000000       0.006
   0.22222222  0.11111111  0.25000000       0.006
   0.33333333  0.11111111  0.25000000       0.006
   0.44444444  0.11111111  0.25000000       0.006
  -0.44444444  0.11111111  0.25000000       0.006
  -0.33333333  0.11111111  0.25000000       0.006
  -0.22222222  0.11111111  0.25000000       0.006
  -0.11111111  0.11111111  0.25000000       0.006
   0.00000000  0.22222222  0.25000000       0.006
   0.11111111  0.22222222  0.25000000       0.006
   0.22222222  0.22222222  0.25000000       0.006
   0.33333333  0.22222222  0.25000000       0.006
   0.44444444  0.22222222  0.25000000       0.006
  -0.44444444  0.22222222  0.25000000       0.006
  -0.33333333  0.22222222  0.25000000       0.006
  -0.22222222  0.22222222  0.25000000       0.006
  -0.11111111  0.22222222  0.25000000       0.006
   0.00000000  0.33333333  0.25000000       0.006
   0.11111111  0.33333333  0.25000000       0.006
   0.22222222  0.33333333  0.25000000       0.006
   0.33333333  0.33333333  0.25000000       0.006
   0.44444444  0.33333333  0.25000000       0.006
  -0.44444444  0.33333333  0.25000000       0.006
  -0.33333333  0.33333333  0.25000000       0.006
  -0.22222222  0.33333333  0.25000000       0.006
  -0.11111111  0.33333333  0.25000000       0.006
   0.00000000  0.44444444  0.25000000       0.006
   0.11111111  0.44444444  0.25000000       0.006
   0.22222222  0.44444444  0.25000000       0.006
   0.33333333  0.44444444  0.25000000       0.006
   0.44444444  0.44444444  0.25000000       0.006
  -0.44444444  0.44444444  0.25000000       0.006
  -0.33333333  0.44444444  0.25000000       0.006
  -0.22222222  0.44444444  0.25000000       0.006
  -0.11111111  0.44444444  0.25000000       0.006
   0.00000000 -0.44444444  0.25000000       0.006
   0.11111111 -0.44444444  0.25000000       0.006
   0.22222222 -0.44444444  0.25000000       0.006
   0.33333333 -0.44444444  0.25000000       0.006
   0.44444444 -0.44444444  0.25000000       0.006
  -0.44444444 -0.44444444  0.25000000       0.006
  -0.33333333 -0.44444444  0.25000000       0.006
  -0.22222222 -0.44444444  0.25000000       0.006
  -0.11111111 -0.44444444  0.25000000       0.006
   0.00000000 -0.33333333  0.25000000       0.006
   0.11111111 -0.33333333  0.25000000       0.006
   0.22222222 -0.33333333  0.25000000       0.006
   0.33333333 -0.33333333  0.25000000       0.006
   0.44444444 -0.33333333  0.25000000       0.006
  -0.44444444 -0.33333333  0.25000000       0.006
  -0.33333333 -0.33333333  0.25000000       0.006
  -0.22222222 -0.33333333  0.25000000       0.006
  -0.11111111 -0.33333333  0.25000000       0.006
   0.00000000 -0.22222222  0.25000000       0.006
   0.11111111 -0.22222222  0.25000000       0.006
   0.22222222 -0.22222222  0.25000000       0.006
   0.33333333 -0.22222222  0.25000000       0.006
   0.44444444 -0.22222222  0.25000000       0.006
  -0.44444444 -0.22222222  0.25000000       0.006
  -0.33333333 -0.22222222  0.25000000       0.006
  -0.22222222 -0.22222222  0.25000000       0.006
  -0.11111111 -0.22222222  0.25000000       0.006
  -0.00000000 -0.11111111  0.25000000       0.006
   0.11111111 -0.11111111  0.25000000       0.006
   0.22222222 -0.11111111  0.25000000       0.006
   0.33333333 -0.11111111  0.25000000       0.006
   0.44444444 -0.11111111  0.25000000       0.006
  -0.44444444 -0.11111111  0.25000000       0.006
  -0.33333333 -0.11111111  0.25000000       0.006
  -0.22222222 -0.11111111  0.25000000       0.006
  -0.11111111 -0.11111111  0.25000000       0.006
   0.00000000  0.00000000  0.50000000       0.003
   0.11111111  0.00000000  0.50000000       0.006
   0.22222222  0.00000000  0.50000000       0.006
   0.33333333  0.00000000  0.50000000       0.006
   0.44444444  0.00000000  0.50000000       0.006
   0.00000000  0.11111111  0.50000000       0.006
   0.11111111  0.11111111  0.50000000       0.006
   0.22222222  0.11111111  0.50000000       0.006
   0.33333333  0.11111111  0.50000000       0.006
   0.44444444  0.11111111  0.50000000       0.006
  -0.44444444  0.11111111  0.50000000       0.006
  -0.33333333  0.11111111  0.50000000       0.006
  -0.22222222  0.11111111  0.50000000       0.006
  -0.11111111  0.11111111  0.50000000       0.006
   0.00000000  0.22222222  0.50000000       0.006
   0.11111111  0.22222222  0.50000000       0.006
   0.22222222  0.22222222  0.50000000       0.006
   0.33333333  0.22222222  0.50000000       0.006
   0.44444444  0.22222222  0.50000000       0.006
  -0.44444444  0.22222222  0.50000000       0.006
  -0.33333333  0.22222222  0.50000000       0.006
  -0.22222222  0.22222222  0.50000000       0.006
  -0.11111111  0.22222222  0.50000000       0.006
   0.00000000  0.33333333  0.50000000       0.006
   0.11111111  0.33333333  0.50000000       0.006
   0.22222222  0.33333333  0.50000000       0.006
   0.33333333  0.33333333  0.50000000       0.006
   0.44444444  0.33333333  0.50000000       0.006
  -0.44444444  0.33333333  0.50000000       0.006
  -0.33333333  0.33333333  0.50000000       0.006
  -0.22222222  0.33333333  0.50000000       0.006
  -0.11111111  0.33333333  0.50000000       0.006
   0.00000000  0.44444444  0.50000000       0.006
   0.11111111  0.44444444  0.50000000       0.006
   0.22222222  0.44444444  0.50000000       0.006
   0.33333333  0.44444444  0.50000000       0.006
   0.44444444  0.44444444  0.50000000       0.006
  -0.44444444  0.44444444  0.50000000       0.006
  -0.33333333  0.44444444  0.50000000       0.006
  -0.22222222  0.44444444  0.50000000       0.006
  -0.11111111  0.44444444  0.50000000       0.006
 
 position of ions in fractional coordinates (direct lattice) 
   0.49999985  0.00000017  0.12500000
   0.99999985  0.00000017  0.12500000
   0.49999985  0.50000017  0.12500000
   0.99999985  0.50000017  0.12500000
   0.49999985  0.00000017  0.62500000
   0.99999985  0.00000017  0.62500000
   0.49999985  0.50000017  0.62500000
   0.99999985  0.50000017  0.62500000
   0.00000017  0.49999985  0.37500000
   0.50000017  0.49999985  0.37500000
   0.00000017  0.99999985  0.37500000
   0.50000017  0.99999985  0.37500000
   0.00000017  0.49999985  0.87500000
   0.50000017  0.49999985  0.87500000
   0.00000017  0.99999985  0.87500000
   0.50000017  0.99999985  0.87500000
   0.16792996  0.33335053  0.12628049
   0.66664946  0.33335053  0.12500000
   0.16664946  0.83335053  0.12500000
   0.66664946  0.83335053  0.12500000
   0.16664946  0.33335053  0.62500000
   0.66664946  0.33335053  0.62500000
   0.16664946  0.83335053  0.62500000
   0.66664946  0.83335053  0.62500000
   0.33335053  0.16664946  0.37500000
   0.83335053  0.16664946  0.37500000
   0.33335053  0.66664946  0.37500000
   0.83335053  0.66664946  0.37500000
   0.33335053  0.16664946  0.87500000
   0.83335053  0.16664946  0.87500000
   0.33335053  0.66664946  0.87500000
   0.83335053  0.66664946  0.87500000
 
 position of ions in cartesian coordinates  (Angst):
   2.46715426 -0.00011045  0.75664601
   4.93430971 -0.00022165  0.75664601
   1.23348024  2.13645323  0.75664601
   3.70063568  2.13634203  0.75664601
   2.46715426 -0.00011045  3.78323005
   4.93430971 -0.00022165  3.78323005
   1.23348024  2.13645323  3.78323005
   3.70063568  2.13634203  3.78323005
  -1.23367279  2.13656304  2.26993803
   1.23348265  2.13645184  2.26993803
  -2.46734681  4.27312673  2.26993803
  -0.00019137  4.27301553  2.26993803
  -1.23367279  2.13656304  5.29652207
   1.23348265  2.13645184  5.29652207
  -2.46734681  4.27312673  5.29652207
  -0.00019137  4.27301553  5.29652207
   0.00612684  1.42441191  0.76439704
   2.46696394  1.42430100  0.75664601
  -1.23386552  3.56097589  0.75664601
   1.23328992  3.56086469  0.75664601
  -0.00019150  1.42441220  3.78323005
   2.46696394  1.42430100  3.78323005
  -1.23386552  3.56097589  3.78323005
   1.23328992  3.56086469  3.78323005
   1.23367290  0.71204025  2.26993803
   3.70082834  0.71192905  2.26993803
  -0.00000112  2.84860394  2.26993803
   2.46715432  2.84849274  2.26993803
   1.23367290  0.71204025  5.29652207
   3.70082834  0.71192905  5.29652207
  -0.00000112  2.84860394  5.29652207
   2.46715432  2.84849274  5.29652207
 


--------------------------------------------------------------------------------------------------------


 k-point  1 :   0.0000 0.0000 0.0000  plane waves:    4225
 k-point  2 :   0.1111 0.0000 0.0000  plane waves:    4249
 k-point  3 :   0.2222 0.0000 0.0000  plane waves:    4249
 k-point  4 :   0.3333 0.0000 0.0000  plane waves:    4267
 k-point  5 :   0.4444 0.0000 0.0000  plane waves:    4253
 k-point  6 :   0.0000 0.1111 0.0000  plane waves:    4249
 k-point  7 :   0.1111 0.1111 0.0000  plane waves:    4264
 k-point  8 :   0.2222 0.1111 0.0000  plane waves:    4258
 k-point  9 :   0.3333 0.1111 0.0000  plane waves:    4256
 k-point 10 :   0.4444 0.1111 0.0000  plane waves:    4256
 k-point 11 :  -0.4444 0.1111 0.0000  plane waves:    4256
 k-point 12 :  -0.3333 0.1111 0.0000  plane waves:    4258
 k-point 13 :  -0.2222 0.1111 0.0000  plane waves:    4264
 k-point 14 :  -0.1111 0.1111 0.0000  plane waves:    4249
 k-point 15 :   0.0000 0.2222 0.0000  plane waves:    4249
 k-point 16 :   0.1111 0.2222 0.0000  plane waves:    4258
 k-point 17 :   0.2222 0.2222 0.0000  plane waves:    4258
 k-point 18 :   0.3333 0.2222 0.0000  plane waves:    4246
 k-point 19 :   0.4444 0.2222 0.0000  plane waves:    4246
 k-point 20 :  -0.4444 0.2222 0.0000  plane waves:    4258
 k-point 21 :  -0.3333 0.2222 0.0000  plane waves:    4258
 k-point 22 :  -0.2222 0.2222 0.0000  plane waves:    4251
 k-point 23 :  -0.1111 0.2222 0.0000  plane waves:    4264
 k-point 24 :   0.0000 0.3333 0.0000  plane waves:    4267
 k-point 25 :   0.1111 0.3333 0.0000  plane waves:    4256
 k-point 26 :   0.2222 0.3333 0.0000  plane waves:    4246
 k-point 27 :   0.3333 0.3333 0.0000  plane waves:    4268
 k-point 28 :   0.4444 0.3333 0.0000  plane waves:    4246
 k-point 29 :  -0.4444 0.3333 0.0000  plane waves:    4256
 k-point 30 :  -0.3333 0.3333 0.0000  plane waves:    4267
 k-point 31 :  -0.2222 0.3333 0.0000  plane waves:    4258
 k-point 32 :  -0.1111 0.3333 0.0000  plane waves:    4258
 k-point 33 :   0.0000 0.4444 0.0000  plane waves:    4253
 k-point 34 :   0.1111 0.4444 0.0000  plane waves:    4256
 k-point 35 :   0.2222 0.4444 0.0000  plane waves:    4246
 k-point 36 :   0.3333 0.4444 0.0000  plane waves:    4246
 k-point 37 :   0.4444 0.4444 0.0000  plane waves:    4256
 k-point 38 :  -0.4444 0.4444 0.0000  plane waves:    4253
 k-point 39 :  -0.3333 0.4444 0.0000  plane waves:    4256
 k-point 40 :  -0.2222 0.4444 0.0000  plane waves:    4258
 k-point 41 :  -0.1111 0.4444 0.0000  plane waves:    4256
 k-point 42 :   0.0000 0.0000 0.2500  plane waves:    4224
 k-point 43 :   0.1111 0.0000 0.2500  plane waves:    4252
 k-point 44 :   0.2222 0.0000 0.2500  plane waves:    4264
 k-point 45 :   0.3333 0.0000 0.2500  plane waves:    4265
 k-point 46 :   0.4444 0.0000 0.2500  plane waves:    4265
 k-point 47 :  -0.4444-0.0000 0.2500  plane waves:    4265
 k-point 48 :  -0.3333-0.0000 0.2500  plane waves:    4265
 k-point 49 :  -0.2222-0.0000 0.2500  plane waves:    4264
 k-point 50 :  -0.1111-0.0000 0.2500  plane waves:    4252
 k-point 51 :   0.0000 0.1111 0.2500  plane waves:    4252
 k-point 52 :   0.1111 0.1111 0.2500  plane waves:    4244
 k-point 53 :   0.2222 0.1111 0.2500  plane waves:    4267
 k-point 54 :   0.3333 0.1111 0.2500  plane waves:    4253
 k-point 55 :   0.4444 0.1111 0.2500  plane waves:    4270
 k-point 56 :  -0.4444 0.1111 0.2500  plane waves:    4253
 k-point 57 :  -0.3333 0.1111 0.2500  plane waves:    4268
 k-point 58 :  -0.2222 0.1111 0.2500  plane waves:    4244
 k-point 59 :  -0.1111 0.1111 0.2500  plane waves:    4252
 k-point 60 :   0.0000 0.2222 0.2500  plane waves:    4264
 k-point 61 :   0.1111 0.2222 0.2500  plane waves:    4267
 k-point 62 :   0.2222 0.2222 0.2500  plane waves:    4256
 k-point 63 :   0.3333 0.2222 0.2500  plane waves:    4260
 k-point 64 :   0.4444 0.2222 0.2500  plane waves:    4260
 k-point 65 :  -0.4444 0.2222 0.2500  plane waves:    4253
 k-point 66 :  -0.3333 0.2222 0.2500  plane waves:    4268
 k-point 67 :  -0.2222 0.2222 0.2500  plane waves:    4263
 k-point 68 :  -0.1111 0.2222 0.2500  plane waves:    4244
 k-point 69 :   0.0000 0.3333 0.2500  plane waves:    4265
 k-point 70 :   0.1111 0.3333 0.2500  plane waves:    4253
 k-point 71 :   0.2222 0.3333 0.2500  plane waves:    4260
 k-point 72 :   0.3333 0.3333 0.2500  plane waves:    4263
 k-point 73 :   0.4444 0.3333 0.2500  plane waves:    4259
 k-point 74 :  -0.4444 0.3333 0.2500  plane waves:    4252
 k-point 75 :  -0.3333 0.3333 0.2500  plane waves:    4265
 k-point 76 :  -0.2222 0.3333 0.2500  plane waves:    4268
 k-point 77 :  -0.1111 0.3333 0.2500  plane waves:    4268
 k-point 78 :   0.0000 0.4444 0.2500  plane waves:    4265
 k-point 79 :   0.1111 0.4444 0.2500  plane waves:    4270
 k-point 80 :   0.2222 0.4444 0.2500  plane waves:    4260
 k-point 81 :   0.3333 0.4444 0.2500  plane waves:    4259
 k-point 82 :   0.4444 0.4444 0.2500  plane waves:    4269
 k-point 83 :  -0.4444 0.4444 0.2500  plane waves:    4266
 k-point 84 :  -0.3333 0.4444 0.2500  plane waves:    4252
 k-point 85 :  -0.2222 0.4444 0.2500  plane waves:    4253
 k-point 86 :  -0.1111 0.4444 0.2500  plane waves:    4253
 k-point 87 :   0.0000-0.4444 0.2500  plane waves:    4265
 k-point 88 :   0.1111-0.4444 0.2500  plane waves:    4253
 k-point 89 :   0.2222-0.4444 0.2500  plane waves:    4253
 k-point 90 :   0.3333-0.4444 0.2500  plane waves:    4252
 k-point 91 :   0.4444-0.4444 0.2500  plane waves:    4266
 k-point 92 :  -0.4444-0.4444 0.2500  plane waves:    4269
 k-point 93 :  -0.3333-0.4444 0.2500  plane waves:    4259
 k-point 94 :  -0.2222-0.4444 0.2500  plane waves:    4260
 k-point 95 :  -0.1111-0.4444 0.2500  plane waves:    4270
 k-point 96 :   0.0000-0.3333 0.2500  plane waves:    4265
 k-point 97 :   0.1111-0.3333 0.2500  plane waves:    4268
 k-point 98 :   0.2222-0.3333 0.2500  plane waves:    4268
 k-point 99 :   0.3333-0.3333 0.2500  plane waves:    4265
 k-point ** :   0.4444-0.3333 0.2500  plane waves:    4252
 k-point ** :  -0.4444-0.3333 0.2500  plane waves:    4259
 k-point ** :  -0.3333-0.3333 0.2500  plane waves:    4263
 k-point ** :  -0.2222-0.3333 0.2500  plane waves:    4260
 k-point ** :  -0.1111-0.3333 0.2500  plane waves:    4253
 k-point ** :   0.0000-0.2222 0.2500  plane waves:    4264
 k-point ** :   0.1111-0.2222 0.2500  plane waves:    4244
 k-point ** :   0.2222-0.2222 0.2500  plane waves:    4263
 k-point ** :   0.3333-0.2222 0.2500  plane waves:    4268
 k-point ** :   0.4444-0.2222 0.2500  plane waves:    4253
 k-point ** :  -0.4444-0.2222 0.2500  plane waves:    4260
 k-point ** :  -0.3333-0.2222 0.2500  plane waves:    4260
 k-point ** :  -0.2222-0.2222 0.2500  plane waves:    4256
 k-point ** :  -0.1111-0.2222 0.2500  plane waves:    4267
 k-point ** :  -0.0000-0.1111 0.2500  plane waves:    4252
 k-point ** :   0.1111-0.1111 0.2500  plane waves:    4252
 k-point ** :   0.2222-0.1111 0.2500  plane waves:    4244
 k-point ** :   0.3333-0.1111 0.2500  plane waves:    4268
 k-point ** :   0.4444-0.1111 0.2500  plane waves:    4253
 k-point ** :  -0.4444-0.1111 0.2500  plane waves:    4270
 k-point ** :  -0.3333-0.1111 0.2500  plane waves:    4253
 k-point ** :  -0.2222-0.1111 0.2500  plane waves:    4267
 k-point ** :  -0.1111-0.1111 0.2500  plane waves:    4244
 k-point ** :   0.0000 0.0000 0.5000  plane waves:    4176
 k-point ** :   0.1111 0.0000 0.5000  plane waves:    4248
 k-point ** :   0.2222 0.0000 0.5000  plane waves:    4254
 k-point ** :   0.3333 0.0000 0.5000  plane waves:    4266
 k-point ** :   0.4444 0.0000 0.5000  plane waves:    4272
 k-point ** :   0.0000 0.1111 0.5000  plane waves:    4248
 k-point ** :   0.1111 0.1111 0.5000  plane waves:    4254
 k-point ** :   0.2222 0.1111 0.5000  plane waves:    4242
 k-point ** :   0.3333 0.1111 0.5000  plane waves:    4262
 k-point ** :   0.4444 0.1111 0.5000  plane waves:    4272
 k-point ** :  -0.4444 0.1111 0.5000  plane waves:    4262
 k-point ** :  -0.3333 0.1111 0.5000  plane waves:    4242
 k-point ** :  -0.2222 0.1111 0.5000  plane waves:    4254
 k-point ** :  -0.1111 0.1111 0.5000  plane waves:    4248
 k-point ** :   0.0000 0.2222 0.5000  plane waves:    4254
 k-point ** :   0.1111 0.2222 0.5000  plane waves:    4242
 k-point ** :   0.2222 0.2222 0.5000  plane waves:    4268
 k-point ** :   0.3333 0.2222 0.5000  plane waves:    4276
 k-point ** :   0.4444 0.2222 0.5000  plane waves:    4276
 k-point ** :  -0.4444 0.2222 0.5000  plane waves:    4268
 k-point ** :  -0.3333 0.2222 0.5000  plane waves:    4246
 k-point ** :  -0.2222 0.2222 0.5000  plane waves:    4256
 k-point ** :  -0.1111 0.2222 0.5000  plane waves:    4254
 k-point ** :   0.0000 0.3333 0.5000  plane waves:    4266
 k-point ** :   0.1111 0.3333 0.5000  plane waves:    4262
 k-point ** :   0.2222 0.3333 0.5000  plane waves:    4276
 k-point ** :   0.3333 0.3333 0.5000  plane waves:    4302
 k-point ** :   0.4444 0.3333 0.5000  plane waves:    4276
 k-point ** :  -0.4444 0.3333 0.5000  plane waves:    4264
 k-point ** :  -0.3333 0.3333 0.5000  plane waves:    4266
 k-point ** :  -0.2222 0.3333 0.5000  plane waves:    4246
 k-point ** :  -0.1111 0.3333 0.5000  plane waves:    4242
 k-point ** :   0.0000 0.4444 0.5000  plane waves:    4272
 k-point ** :   0.1111 0.4444 0.5000  plane waves:    4272
 k-point ** :   0.2222 0.4444 0.5000  plane waves:    4276
 k-point ** :   0.3333 0.4444 0.5000  plane waves:    4276
 k-point ** :   0.4444 0.4444 0.5000  plane waves:    4272
 k-point ** :  -0.4444 0.4444 0.5000  plane waves:    4272
 k-point ** :  -0.3333 0.4444 0.5000  plane waves:    4264
 k-point ** :  -0.2222 0.4444 0.5000  plane waves:    4268
 k-point ** :  -0.1111 0.4444 0.5000  plane waves:    4262

 maximum and minimum number of plane-waves per node :      4302     4176

 maximum number of plane-waves:      4302
 maximum index in each direction: 
   IXMAX=   10   IYMAX=   10   IZMAX=   12
   IXMIN=  -10   IYMIN=  -10   IZMIN=  -12

 WARNING: aliasing errors must be expected set NGX to  42 to avoid them
 WARNING: aliasing errors must be expected set NGY to  42 to avoid them
 WARNING: aliasing errors must be expected set NGZ to  50 to avoid them
 aliasing errors are usually negligible using standard VASP settings
 and one can safely disregard these warnings

 serial   3D FFT for wavefunctions
 parallel 3D FFT for charge:
    minimum data exchange during FFTs selected (reduces bandwidth)


 total amount of memory used by VASP on root node   255958. kBytes
========================================================================

   base      :      30000. kBytes
   nonl-proj :      47081. kBytes
   fftplans  :       3955. kBytes
   grid      :       8330. kBytes
   one-center:         98. kBytes
   wavefun   :     166494. kBytes
 
     INWAV:  cpu time    0.00: real time    0.00
 Broyden mixing: mesh for mixing (old mesh)
   NGX = 19   NGY = 19   NGZ = 25
  (NGX  = 80   NGY  = 80   NGZ  = 96)
  gives a total of   9025 points

 initial charge density was supplied:
 charge density of overlapping atoms calculated
 number of electron     128.0000000 magnetization 
 keeping initial charge density in first step


--------------------------------------------------------------------------------------------------------


 Maximum index for augmentation-charges         1393 (set IRDMAX)


--------------------------------------------------------------------------------------------------------


 First call to EWALD:  gamma=   0.352
 Maximum number of real-space cells 3x 3x 2
 Maximum number of reciprocal cells 3x 3x 3

 FEWALD executed in parallel
    FEWALD:  cpu time    0.00: real time    0.00


----------------------------------------- Iteration    1(   1)  ---------------------------------------


    POTLOK:  cpu time    0.09: real time    0.09
    SETDIJ:  cpu time    0.01: real time    0.01
     EDDAV:  cpu time   68.79: real time   68.84
 BZINTS: Fermi energy: 27.615158;128.000000 electrons
         Band energy:1268.974772;  BLOECHL correction: -0.139697
       DOS:  cpu time    0.20: real time    0.20
    --------------------------------------------
      LOOP:  cpu time   69.10: real time   69.16

 eigenvalue-minimisations  : 27384
 total energy-change (2. order) : 0.5296828E+03  (-0.7981388E+04)
 number of electron     128.0000000 magnetization 
 augmentation part      128.0000000 magnetization 

 Free energy of the ion-electron system (eV)
  ---------------------------------------------------
  alpha Z        PSCENC =       653.74453794
  Ewald energy   TEWEN  =     -6425.69792024
  -Hartree energ DENC   =      -133.68287841
  -exchange      EXHF   =         0.00000000
  -V(xc)+E(xc)   XCENC  =       494.35043563
  PAW double counting   =      1210.60617908    -1247.42152856
  entropy T*S    EENTRO =         0.00000000
  eigenvalues    EBANDS =      1268.97477228
  atomic energy  EATOM  =      4708.80920826
  ---------------------------------------------------
  free energy    TOTEN  =       529.68280599 eV

  energy without entropy =      529.68280599  energy(sigma->0) =      529.68280599


--------------------------------------------------------------------------------------------------------




----------------------------------------- Iteration    1(   2)  ---------------------------------------


     EDDAV:  cpu time   82.44: real time   82.48
 BZINTS: Fermi energy: 17.603595;128.000000 electrons
         Band energy: 595.403039;  BLOECHL correction: -0.153428
       DOS:  cpu time    0.21: real time    0.21
    --------------------------------------------
      LOOP:  cpu time   82.65: real time   82.69

 eigenvalue-minimisations  : 34620
 total energy-change (2. order) :-0.6735717E+03  (-0.6379622E+03)
 number of electron     128.0000000 magnetization 
 augmentation part      128.0000000 magnetization 

 Free energy of the ion-electron system (eV)
  ---------------------------------------------------
  alpha Z        PSCENC =       653.74453794
  Ewald energy   TEWEN  =     -6425.69792024
  -Hartree energ DENC   =      -133.68287841
  -exchange      EXHF   =         0.00000000
  -V(xc)+E(xc)   XCENC  =       494.35043563
  PAW double counting   =      1210.60617908    -1247.42152856
  entropy T*S    EENTRO =         0.00000000
  eigenvalues    EBANDS =       595.40303894
  atomic energy  EATOM  =      4708.80920826
  ---------------------------------------------------
  free energy    TOTEN  =      -143.88892735 eV

  energy without entropy =     -143.88892735  energy(sigma->0) =     -143.88892735


--------------------------------------------------------------------------------------------------------




----------------------------------------- Iteration    1(   3)  ---------------------------------------


     EDDAV:  cpu time   79.49: real time   79.53
 BZINTS: Fermi energy: 16.984450;128.000000 electrons
         Band energy: 560.433719;  BLOECHL correction: -0.246940
       DOS:  cpu time    0.21: real time    0.21
    --------------------------------------------
      LOOP:  cpu time   79.70: real time   79.75

 eigenvalue-minimisations  : 33528
 total energy-change (2. order) :-0.3496932E+02  (-0.3357373E+02)
 number of electron     128.0000000 magnetization 
 augmentation part      128.0000000 magnetization 

 Free energy of the ion-electron system (eV)
  ---------------------------------------------------
  alpha Z        PSCENC =       653.74453794
  Ewald energy   TEWEN  =     -6425.69792024
  -Hartree energ DENC   =      -133.68287841
  -exchange      EXHF   =         0.00000000
  -V(xc)+E(xc)   XCENC  =       494.35043563
  PAW double counting   =      1210.60617908    -1247.42152856
  entropy T*S    EENTRO =         0.00000000
  eigenvalues    EBANDS =       560.43371854
  atomic energy  EATOM  =      4708.80920826
  ---------------------------------------------------
  free energy    TOTEN  =      -178.85824775 eV

  energy without entropy =     -178.85824775  energy(sigma->0) =     -178.85824775


--------------------------------------------------------------------------------------------------------




----------------------------------------- Iteration    1(   4)  ---------------------------------------


     EDDAV:  cpu time   78.21: real time   78.24
 BZINTS: Fermi energy: 16.963583;128.000000 electrons
         Band energy: 559.802089;  BLOECHL correction: -0.252583
       DOS:  cpu time    0.22: real time    0.22
    --------------------------------------------
      LOOP:  cpu time   78.42: real time   78.46

 eigenvalue-minimisations  : 32568
 total energy-change (2. order) :-0.6316291E+00  (-0.6237383E+00)
 number of electron     128.0000000 magnetization 
 augmentation part      128.0000000 magnetization 

 Free energy of the ion-electron system (eV)
  ---------------------------------------------------
  alpha Z        PSCENC =       653.74453794
  Ewald energy   TEWEN  =     -6425.69792024
  -Hartree energ DENC   =      -133.68287841
  -exchange      EXHF   =         0.00000000
  -V(xc)+E(xc)   XCENC  =       494.35043563
  PAW double counting   =      1210.60617908    -1247.42152856
  entropy T*S    EENTRO =         0.00000000
  eigenvalues    EBANDS =       559.80208947
  atomic energy  EATOM  =      4708.80920826
  ---------------------------------------------------
  free energy    TOTEN  =      -179.48987682 eV

  energy without entropy =     -179.48987682  energy(sigma->0) =     -179.48987682


--------------------------------------------------------------------------------------------------------




----------------------------------------- Iteration    1(   5)  ---------------------------------------


     EDDAV:  cpu time   81.23: real time   81.27
 BZINTS: Fermi energy: 16.963089;128.000000 electrons
         Band energy: 559.787910;  BLOECHL correction: -0.252546
       DOS:  cpu time    0.20: real time    0.20
    CHARGE:  cpu time    2.75: real time    2.76
    MIXING:  cpu time    0.00: real time    0.00
    --------------------------------------------
      LOOP:  cpu time   84.19: real time   84.23

 eigenvalue-minimisations  : 34008
 total energy-change (2. order) :-0.1417994E-01  (-0.1414878E-01)
 number of electron     128.0000013 magnetization 
 augmentation part        3.3260081 magnetization 

 Broyden mixing:
  rms(total) = 0.21327E+01    rms(broyden)= 0.21325E+01
  rms(prec ) = 0.32711E+01
  weight for this iteration     100.00

 Free energy of the ion-electron system (eV)
  ---------------------------------------------------
  alpha Z        PSCENC =       653.74453794
  Ewald energy   TEWEN  =     -6425.69792024
  -Hartree energ DENC   =      -133.68287841
  -exchange      EXHF   =         0.00000000
  -V(xc)+E(xc)   XCENC  =       494.35043563
  PAW double counting   =      1210.60617908    -1247.42152856
  entropy T*S    EENTRO =         0.00000000
  eigenvalues    EBANDS =       559.78790954
  atomic energy  EATOM  =      4708.80920826
  ---------------------------------------------------
  free energy    TOTEN  =      -179.50405675 eV

  energy without entropy =     -179.50405675  energy(sigma->0) =     -179.50405675


--------------------------------------------------------------------------------------------------------




----------------------------------------- Iteration    1(   6)  ---------------------------------------


    POTLOK:  cpu time    0.09: real time    0.09
    SETDIJ:  cpu time    0.01: real time    0.01
     EDDAV:  cpu time   73.64: real time   73.68
 BZINTS: Fermi energy: 17.212337;128.000000 electrons
         Band energy: 613.548021;  BLOECHL correction: -0.264499
       DOS:  cpu time    0.18: real time    0.19
    CHARGE:  cpu time    2.84: real time    2.84
    MIXING:  cpu time    0.00: real time    0.00
    --------------------------------------------
      LOOP:  cpu time   76.78: real time   76.82

 eigenvalue-minimisations  : 29940
 total energy-change (2. order) : 0.9378394E+01  (-0.6933294E+00)
 number of electron     128.0000012 magnetization 
 augmentation part        3.2120260 magnetization 

 Broyden mixing:
  rms(total) = 0.11308E+01    rms(broyden)= 0.11308E+01
  rms(prec ) = 0.16957E+01
  weight for this iteration     100.00

 eigenvalues of (default mixing * dielectric matrix)
  average eigenvalue GAMMA=   2.0209
  2.0209

 Free energy of the ion-electron system (eV)
  ---------------------------------------------------
  alpha Z        PSCENC =       653.74453794
  Ewald energy   TEWEN  =     -6425.69792024
  -Hartree energ DENC   =      -179.20833204
  -exchange      EXHF   =         0.00000000
  -V(xc)+E(xc)   XCENC  =       498.88316740
  PAW double counting   =      1722.93983975    -1763.14418512
  entropy T*S    EENTRO =         0.00000000
  eigenvalues    EBANDS =       613.54802137
  atomic energy  EATOM  =      4708.80920826
  ---------------------------------------------------
  free energy    TOTEN  =      -170.12566266 eV

  energy without entropy =     -170.12566266  energy(sigma->0) =     -170.12566266


--------------------------------------------------------------------------------------------------------




----------------------------------------- Iteration    1(   7)  ---------------------------------------


    POTLOK:  cpu time    0.09: real time    0.09
    SETDIJ:  cpu time    0.01: real time    0.01
     EDDAV:  cpu time   71.94: real time   71.98
 BZINTS: Fermi energy: 17.528779;128.000000 electrons
         Band energy: 665.798111;  BLOECHL correction: -0.265810
       DOS:  cpu time    0.20: real time    0.21
    CHARGE:  cpu time    2.65: real time    2.65
    MIXING:  cpu time    0.00: real time    0.00
    --------------------------------------------
      LOOP:  cpu time   74.90: real time   74.94

 eigenvalue-minimisations  : 29772
 total energy-change (2. order) : 0.3040628E+01  (-0.5180731E+00)
 number of electron     128.0000012 magnetization 
 augmentation part        3.1058400 magnetization 

 Broyden mixing:
  rms(total) = 0.16378E+00    rms(broyden)= 0.16370E+00
  rms(prec ) = 0.23932E+00
  weight for this iteration     100.00

 eigenvalues of (default mixing * dielectric matrix)
  average eigenvalue GAMMA=   1.7226
  1.2858  2.1595

 Free energy of the ion-electron system (eV)
  ---------------------------------------------------
  alpha Z        PSCENC =       653.74453794
  Ewald energy   TEWEN  =     -6425.69792024
  -Hartree energ DENC   =      -230.61777291
  -exchange      EXHF   =         0.00000000
  -V(xc)+E(xc)   XCENC  =       504.18699015
  PAW double counting   =      2398.80692527    -2442.11511379
  entropy T*S    EENTRO =         0.00000000
  eigenvalues    EBANDS =       665.79811078
  atomic energy  EATOM  =      4708.80920826
  ---------------------------------------------------
  free energy    TOTEN  =      -167.08503454 eV

  energy without entropy =     -167.08503454  energy(sigma->0) =     -167.08503454


--------------------------------------------------------------------------------------------------------




----------------------------------------- Iteration    1(   8)  ---------------------------------------


    POTLOK:  cpu time    0.09: real time    0.09
    SETDIJ:  cpu time    0.01: real time    0.01
     EDDAV:  cpu time   81.65: real time   81.69
 BZINTS: Fermi energy: 17.565914;128.000000 electrons
         Band energy: 669.531582;  BLOECHL correction: -0.262222
       DOS:  cpu time    0.21: real time    0.21
    CHARGE:  cpu time    2.77: real time    2.77
    MIXING:  cpu time    0.00: real time    0.00
    --------------------------------------------
      LOOP:  cpu time   84.73: real time   84.78

 eigenvalue-minimisations  : 34320
 total energy-change (2. order) : 0.1077280E-01  (-0.2750763E-01)
 number of electron     128.0000012 magnetization 
 augmentation part        3.0939292 magnetization 

 Broyden mixing:
  rms(total) = 0.80143E-01    rms(broyden)= 0.80115E-01
  rms(prec ) = 0.20676E+00
  weight for this iteration     100.00

 eigenvalues of (default mixing * dielectric matrix)
  average eigenvalue GAMMA=   1.3752
  2.1808  1.3544  0.5905

 Free energy of the ion-electron system (eV)
  ---------------------------------------------------
  alpha Z        PSCENC =       653.74453794
  Ewald energy   TEWEN  =     -6425.69792024
  -Hartree energ DENC   =      -234.76846722
  -exchange      EXHF   =         0.00000000
  -V(xc)+E(xc)   XCENC  =       504.66378070
  PAW double counting   =      2509.28028681    -2552.63726972
  entropy T*S    EENTRO =         0.00000000
  eigenvalues    EBANDS =       669.53158173
  atomic energy  EATOM  =      4708.80920826
  ---------------------------------------------------
  free energy    TOTEN  =      -167.07426174 eV

  energy without entropy =     -167.07426174  energy(sigma->0) =     -167.07426174


--------------------------------------------------------------------------------------------------------




----------------------------------------- Iteration    1(   9)  ---------------------------------------


    POTLOK:  cpu time    0.09: real time    0.09
    SETDIJ:  cpu time    0.01: real time    0.01
     EDDAV:  cpu time   83.99: real time   84.03
 BZINTS: Fermi energy: 17.567406;128.000000 electrons
         Band energy: 669.729500;  BLOECHL correction: -0.263839
       DOS:  cpu time    0.21: real time    0.21
    CHARGE:  cpu time    2.71: real time    2.71
    MIXING:  cpu time    0.00: real time    0.00
    --------------------------------------------
      LOOP:  cpu time   87.02: real time   87.06

 eigenvalue-minimisations  : 35784
 total energy-change (2. order) : 0.9494807E-02  (-0.8026364E-02)
 number of electron     128.0000012 magnetization 
 augmentation part        3.0937026 magnetization 

 Broyden mixing:
  rms(total) = 0.40540E-01    rms(broyden)= 0.40527E-01
  rms(prec ) = 0.52908E-01
  weight for this iteration     100.00

 eigenvalues of (default mixing * dielectric matrix)
  average eigenvalue GAMMA=   1.5216
  2.4600  2.0265  1.2119  0.3878

 Free energy of the ion-electron system (eV)
  ---------------------------------------------------
  alpha Z        PSCENC =       653.74453794
  Ewald energy   TEWEN  =     -6425.69792024
  -Hartree energ DENC   =      -235.02350540
  -exchange      EXHF   =         0.00000000
  -V(xc)+E(xc)   XCENC  =       504.69471069
  PAW double counting   =      2523.65535165    -2566.97665009
  entropy T*S    EENTRO =         0.00000000
  eigenvalues    EBANDS =       669.72950025
  atomic energy  EATOM  =      4708.80920826
  ---------------------------------------------------
  free energy    TOTEN  =      -167.06476693 eV

  energy without entropy =     -167.06476693  energy(sigma->0) =     -167.06476693


--------------------------------------------------------------------------------------------------------




----------------------------------------- Iteration    1(  10)  ---------------------------------------


    POTLOK:  cpu time    0.09: real time    0.09
    SETDIJ:  cpu time    0.01: real time    0.01
     EDDAV:  cpu time   74.93: real time   74.97
 BZINTS: Fermi energy: 17.564833;128.000000 electrons
         Band energy: 669.619816;  BLOECHL correction: -0.263742
       DOS:  cpu time    0.22: real time    0.22
    CHARGE:  cpu time    2.77: real time    2.77
    MIXING:  cpu time    0.00: real time    0.00
    --------------------------------------------
      LOOP:  cpu time   78.03: real time   78.07

 eigenvalue-minimisations  : 30456
 total energy-change (2. order) :-0.5643065E-03  (-0.7301479E-03)
 number of electron     128.0000012 magnetization 
 augmentation part        3.0945066 magnetization 

[...]
     80      21.8248      0.00000
     81      22.7631      0.00000
     82      22.7698      0.00000
     83      24.6767      0.00000
     84      24.6795      0.00000

 k-point   162 :      -0.2222    0.4444    0.5000
  band No.  band energies     occupation 
      1      -9.4772      2.00000
      2      -9.4705      2.00000
      3      -7.3989      2.00000
      4      -7.3919      2.00000
      5      -7.3911      2.00000
      6      -7.3825      2.00000
      7      -4.0941      2.00000
      8      -4.0877      2.00000
      9      -3.1288      2.00000
     10      -3.1227      2.00000
     11      -2.3603      2.00000
     12      -2.3525      2.00000
     13      -1.1206      2.00000
     14      -1.1152      2.00000
     15      -1.1144      2.00000
     16      -1.1069      2.00000
     17       0.8216      2.00000
     18       0.8275      2.00000
     19       0.8290      2.00000
     20       0.8380      2.00000
     21       0.9666      2.00000
     22       0.9734      2.00000
     23       1.7010      2.00000
     24       1.7096      2.00000
     25       4.2363      2.00000
     26       4.2406      2.00000
     27       4.2654      2.00000
     28       4.2691      2.00000
     29       4.2731      2.00000
     30       4.2743      2.00000
     31       5.6104      2.00000
     32       5.6186      2.00000
     33       6.5156      2.00000
     34       6.5230      2.00000
     35       6.6701      2.00000
     36       6.6733      2.00000
     37       6.6755      2.00000
     38       6.6829      2.00000
     39       7.1220      2.00000
     40       7.1276      2.00000
     41       8.9854      2.00000
     42       8.9885      2.00000
     43       9.8302      2.00000
     44       9.8373      2.00000
     45       9.8389      2.00000
     46       9.8430      2.00000
     47      11.2341      2.00000
     48      11.2383      2.00000
     49      11.4102      2.00000
     50      11.4155      2.00000
     51      11.5120      2.00000
     52      11.5143      2.00000
     53      11.5200      2.00000
     54      11.5227      2.00000
     55      13.2378      2.00000
     56      13.2437      2.00000
     57      15.6631      2.00000
     58      15.6704      2.00000
     59      15.7594      2.00000
     60      15.7606      2.00000
     61      15.7642      2.00000
     62      15.7699      2.00000
     63      17.4945      1.84198
     64      17.5021      1.79778
     65      17.6963      0.12579
     66      17.6997      0.10375
     67      18.5056      0.00000
     68      18.5129      0.00000
     69      18.5154      0.00000
     70      18.5215      0.00000
     71      19.2798      0.00000
     72      19.2853      0.00000
     73      20.1229      0.00000
     74      20.1304      0.00000
     75      20.1341      0.00000
     76      20.1427      0.00000
     77      21.0965      0.00000
     78      21.1029      0.00000
     79      21.7540      0.00000
     80      21.7567      0.00000
     81      22.0849      0.00000
     82      22.0885      0.00000
     83      25.0552      0.00000
     84      25.0589      0.00000

 k-point   163 :      -0.1111    0.4444    0.5000
  band No.  band energies     occupation 
      1      -9.3991      2.00000
      2      -9.3924      2.00000
      3      -8.0047      2.00000
      4      -7.9980      2.00000
      5      -6.6428      2.00000
      6      -6.6361      2.00000
      7      -4.7478      2.00000
      8      -4.7413      2.00000
      9      -3.0520      2.00000
     10      -3.0459      2.00000
     11      -1.6991      2.00000
     12      -1.6928      2.00000
     13      -1.6061      2.00000
     14      -1.5991      2.00000
     15      -0.4137      2.00000
     16      -0.4070      2.00000
     17       0.2029      2.00000
     18       0.2097      2.00000
     19       1.0440      2.00000
     20       1.0485      2.00000
     21       1.2768      2.00000
     22       1.2828      2.00000
     23       1.5640      2.00000
     24       1.5702      2.00000
     25       2.8359      2.00000
     26       2.8428      2.00000
     27       4.7439      2.00000
     28       4.7483      2.00000
     29       5.0635      2.00000
     30       5.0692      2.00000
     31       5.5047      2.00000
     32       5.5105      2.00000
     33       6.1799      2.00000
     34       6.1852      2.00000
     35       6.8433      2.00000
     36       6.8486      2.00000
     37       7.1636      2.00000
     38       7.1684      2.00000
     39       7.2246      2.00000
     40       7.2302      2.00000
     41       8.7188      2.00000
     42       8.7247      2.00000
     43       8.8617      2.00000
     44       8.8650      2.00000
     45      10.6787      2.00000
     46      10.6832      2.00000
     47      10.9149      2.00000
     48      10.9203      2.00000
     49      11.1732      2.00000
     50      11.1768      2.00000
     51      11.6730      2.00000
     52      11.6771      2.00000
     53      12.0007      2.00000
     54      12.0013      2.00000
     55      13.0215      2.00000
     56      13.0258      2.00000
     57      15.3834      2.00000
     58      15.3892      2.00000
     59      15.8349      2.00000
     60      15.8399      2.00000
     61      16.0807      2.00000
     62      16.0814      2.00000
     63      16.9008      2.07826
     64      16.9067      2.11555
     65      17.7802     -0.06889
     66      17.7826      0.01076
     67      18.3630      0.00000
     68      18.3671      0.00000
     69      18.5655      0.00000
     70      18.5764      0.00000
     71      19.3892      0.00000
     72      19.3978      0.00000
     73      20.0778      0.00000
     74      20.0860      0.00000
     75      20.7763      0.00000
     76      20.7803      0.00000
     77      21.0361      0.00000
     78      21.0421      0.00000
     79      21.8228      0.00000
     80      21.8258      0.00000
     81      22.7643      0.00000
     82      22.7686      0.00000
     83      24.6778      0.00000
     84      24.6814      0.00000


--------------------------------------------------------------------------------------------------------


 soft charge-density along one line, spin component           1
         0         1         2         3         4         5         6         7         8         9
 total charge-density along one line
 
 pseudopotential strength for first ion, spin component:           1
  9.177  -0.013  -0.000   0.000  -0.000   0.000  -0.000   0.000
 -0.013  -0.003  -0.000  -0.000   0.000   0.000  -0.000   0.000
 -0.000  -0.000  -3.398   0.000   0.000  -0.018  -0.000   0.000
  0.000  -0.000   0.000  -3.400  -0.000  -0.000  -0.018  -0.000
 -0.000   0.000   0.000  -0.000  -3.398   0.000  -0.000  -0.018
  0.000   0.000  -0.018  -0.000   0.000  -0.751   0.000   0.000
 -0.000  -0.000  -0.000  -0.018  -0.000   0.000  -0.751  -0.000
  0.000   0.000   0.000  -0.000  -0.018   0.000  -0.000  -0.751
 total augmentation occupancy for first ion, spin component:           1
  1.564  -1.140  -0.000  -0.000   0.000  -0.000   0.000  -0.000
 -1.140   1.804   0.000  -0.000   0.000   0.000   0.000  -0.000
 -0.000   0.000   1.207   0.000   0.000   0.228  -0.000  -0.000
 -0.000  -0.000   0.000   1.214  -0.000  -0.000   0.188   0.000
  0.000   0.000   0.000  -0.000   1.207  -0.000   0.000   0.228
 -0.000   0.000   0.228  -0.000  -0.000   0.055   0.000  -0.000
  0.000   0.000  -0.000   0.188   0.000   0.000   0.057  -0.000
 -0.000  -0.000  -0.000   0.000   0.228  -0.000  -0.000   0.055


------------------------ aborting loop because EDIFF is reached ----------------------------------------


    CHARGE:  cpu time    2.43: real time    2.44
    FORLOC:  cpu time    0.02: real time    0.02
    FORNL :  cpu time   12.60: real time   12.61
    STRESS:  cpu time   22.51: real time   22.52
    FORHAR:  cpu time    0.02: real time    0.02
    MIXING:  cpu time    0.00: real time    0.00
    OFIELD:  cpu time    0.00: real time    0.00

 ---------------------------------------------------------------------------------------------

         DFTD3 V3.0 Rev 1        
 IVDW         = 11
 DF pbe       
 parameters
 VDW_S6       =    1.0000
 VDW_S8       =    0.7220
 VDW_SR       =    1.2170
 rs18     =    1.0000
 alpha6   =   14.0000
 alpha8   =   16.0000
 k1-k3    =   16.0000    1.3333   -4.0000
 VDW_RADIUS   =   50.2022 A
 VDW_CNRADIUS =   21.1671 A
 Edisp (eV)   -5.08574

 E6    (eV) :    -3.0475
 E8    (eV) :    -2.0383
 % E8        : 40.08
    FORVDW:  cpu time    0.74: real time    0.74

  FORCE on cell =-STRESS in cart. coord.  units (eV):
  Direction    XX          YY          ZZ          XY          YZ          ZX
  --------------------------------------------------------------------------------------
  Alpha Z   653.74454   653.74454   653.74454
  Ewald   -2027.82809 -2028.22778 -2369.66484     1.04028     0.00003    -0.00496
  Hartree    75.83279    75.76917    83.41786     0.15236    -0.00430     0.00579
  E(xc)    -508.42142  -508.42212  -509.59084     0.00188     0.00007    -0.00002
  Local    -125.10045  -124.73341   199.52045    -0.99420     0.03376    -0.04159
  n-local   -87.67768   -87.65120  -122.39129    -0.00322     0.01462    -0.01487
  augment   -13.01856   -13.01797   -12.79009    -0.00152    -0.00029     0.00049
  Kinetic  2192.01468  2191.66918  2489.78575     0.01159    -0.07029     0.05669
  Fock        0.00000     0.00000     0.00000     0.00000     0.00000     0.00000
  vdW        -4.83735    -4.83739    -5.01341    -0.00002    -0.00000    -0.00000
  -------------------------------------------------------------------------------------
  Total     154.70846   154.29301   407.01812     0.20714    -0.02641     0.00153
  in kB    1942.14148  1936.92609  5109.52520     2.60028    -0.33148     0.01921
  external pressure =     2996.20 kB  Pullay stress =        0.00 kB


 VOLUME and BASIS-vectors are now :
 -----------------------------------------------------------------------------
  energy-cutoff  :      600.00
  volume of cell :      127.63
      direct lattice vectors                 reciprocal lattice vectors
     4.934310885 -0.000222400  0.000000000     0.202667819  0.117022500  0.000000000
    -2.467348046  4.273127376  0.000000000     0.000010548  0.234026730  0.000000000
     0.000000000  0.000000000  6.053168078     0.000000000  0.000000000  0.165202748

  length of vectors
     4.934310890  4.934310890  6.053168078     0.234026730  0.234026730  0.165202748


 FORCES acting on ions
    electron-ion (+dipol)            ewald-force                    non-local-force                 convergence-correction
 -----------------------------------------------------------------------------------------------
   -.130E+00 0.150E-03 0.157E+00   0.137E+00 0.129E-02 -.169E+00   -.165E-01 0.139E-02 0.100E-01   0.184E-03 -.549E-04 -.552E-03
   0.424E+00 -.831E-02 0.564E+00   -.429E+00 0.101E-01 -.627E+00   0.238E-01 -.107E-02 0.240E-01   -.177E-03 -.121E-03 -.568E-03
   -.605E+00 -.600E+00 0.566E+00   0.698E+00 0.656E+00 -.634E+00   0.165E-01 -.412E-02 0.262E-01   0.641E-04 0.172E-03 -.548E-03
   -.609E+00 0.594E+00 0.556E+00   0.702E+00 -.648E+00 -.620E+00   0.104E-01 0.843E-02 0.247E-01   -.842E-04 0.580E-04 -.584E-03
   -.116E-01 0.478E-03 -.125E+00   0.164E-01 0.193E-02 0.127E+00   -.869E-02 0.110E-02 -.196E-01   0.236E-03 -.656E-04 -.188E-03
   0.228E-01 -.189E-02 -.187E+00   -.264E-01 0.175E-02 0.190E+00   -.174E-01 0.333E-03 0.433E-02   -.201E-03 -.133E-03 -.210E-03
   -.117E-01 -.231E-01 -.189E+00   -.879E-03 0.168E-01 0.191E+00   -.115E-01 0.356E-02 0.517E-02   0.695E-04 0.185E-03 -.226E-03
   -.924E-02 0.212E-01 -.190E+00   -.119E-02 -.124E-01 0.190E+00   -.117E-01 -.275E-02 0.499E-02   -.819E-04 0.635E-04 -.200E-03
   0.148E+00 -.274E-01 0.272E-01   -.161E+00 0.315E-01 -.247E-01   -.804E-02 -.164E-02 -.325E-03   -.896E-04 0.133E-03 0.792E-03
   -.265E+00 -.209E+00 -.284E+00   0.294E+00 0.228E+00 0.349E+00   0.106E-02 0.512E-02 -.448E-02   0.732E-04 0.234E-03 0.815E-03
   0.980E-01 0.241E+00 -.130E+00   -.104E+00 -.265E+00 0.161E+00   -.984E-02 -.488E-02 -.104E-02   -.151E-03 -.181E-03 0.804E-03
   -.690E-01 0.298E-02 -.148E-01   0.672E-01 -.232E-02 0.203E-01   0.388E-02 -.378E-03 -.811E-02   0.159E-03 -.120E-03 0.792E-03
   -.262E+00 0.208E+00 -.282E+00   0.291E+00 -.228E+00 0.346E+00   0.522E-02 -.701E-02 -.746E-03   -.362E-04 0.816E-04 -.775E-05
   0.147E+00 0.300E-01 0.249E-01   -.163E+00 -.364E-01 -.210E-01   -.100E-01 -.242E-02 0.720E-03   0.338E-04 0.209E-03 -.396E-04
   0.962E-01 -.233E+00 -.132E+00   -.102E+00 0.259E+00 0.163E+00   -.771E-02 0.727E-02 0.157E-02   -.167E-03 -.121E-03 -.256E-04
   -.675E-01 0.158E-02 -.400E-02   0.663E-01 -.235E-02 0.211E-01   0.185E-02 0.106E-02 -.138E-01   0.172E-03 -.101E-03 -.517E-04
   0.167E+01 0.186E-01 0.650E+00   -.190E+01 -.187E-01 -.770E+00   -.191E-01 -.147E-02 0.835E-01   -.443E-05 0.918E-04 -.623E-03
   -.413E+00 0.940E-02 0.196E+00   0.412E+00 -.709E-02 -.207E+00   0.203E-01 0.281E-02 0.416E-01   0.379E-04 0.161E-03 -.570E-03
   -.487E-01 0.214E+00 0.192E+00   0.468E-01 -.218E+00 -.207E+00   0.707E-02 -.728E-02 0.450E-01   -.426E-04 -.206E-03 -.562E-03
   -.439E-01 -.202E+00 0.195E+00   0.467E-01 0.204E+00 -.207E+00   0.679E-02 0.640E-02 0.435E-01   0.457E-04 -.803E-04 -.557E-03
   0.634E-01 0.103E-01 -.368E+00   -.366E-01 -.706E-02 0.296E+00   0.858E-02 -.645E-03 0.703E-01   -.175E-04 0.975E-04 -.123E-03
   -.524E-01 0.796E-02 -.138E+00   0.550E-01 -.707E-02 0.139E+00   0.225E-02 0.637E-03 0.157E-01   0.320E-04 0.155E-03 -.223E-03
   -.202E-01 0.191E-01 -.139E+00   0.133E-01 -.312E-01 0.139E+00   0.471E-02 -.665E-03 0.165E-01   -.481E-04 -.224E-03 -.237E-03
   -.133E-01 -.109E-01 -.145E+00   0.133E-01 0.170E-01 0.139E+00   0.616E-03 -.111E-02 0.233E-01   0.182E-04 -.582E-04 -.253E-03
   -.261E+00 0.218E+00 -.304E+00   0.278E+00 -.223E+00 0.349E+00   -.740E-02 0.731E-02 -.565E-01   0.122E-04 0.724E-04 0.804E-03
   0.175E+00 0.160E-01 0.402E-01   -.177E+00 -.264E-01 -.247E-01   -.379E-02 -.165E-03 -.418E-01   -.319E-04 -.109E-03 0.820E-03
   0.128E+00 -.258E+00 -.134E+00   -.120E+00 0.270E+00 0.161E+00   -.164E-02 -.345E-02 -.463E-01   0.893E-04 0.597E-05 0.802E-03
   -.418E-01 -.827E-02 -.683E-02   0.514E-01 0.738E-02 0.203E-01   -.252E-02 0.122E-03 -.443E-01   -.862E-04 -.509E-04 0.793E-03
   0.170E+00 -.326E-01 0.343E-01   -.178E+00 0.415E-01 -.211E-01   -.314E-02 0.147E-02 -.419E-01   -.398E-05 0.712E-04 -.109E-04
   -.253E+00 -.229E+00 -.309E+00   0.275E+00 0.233E+00 0.346E+00   -.884E-02 -.486E-02 -.460E-01   -.823E-05 -.810E-04 -.182E-04
   0.125E+00 0.236E+00 -.141E+00   -.118E+00 -.254E+00 0.163E+00   -.181E-02 0.328E-02 -.406E-01   0.644E-04 -.217E-04 -.653E-05
   -.402E-01 -.912E-02 -.120E-01   0.505E-01 0.737E-02 0.211E-01   -.166E-02 -.218E-02 -.426E-01   -.724E-04 -.466E-04 -.275E-04
 -----------------------------------------------------------------------------------------------
   0.383E-01 -.422E-02 -.329E-01   -.110E-13 -.244E-13 0.686E-13   -.383E-01 0.420E-02 0.329E-01   -.120E-04 0.164E-04 0.774E-05
 
 
 POSITION                                       TOTAL-FORCE (eV/Angst)
 -----------------------------------------------------------------------------------
      2.46715     -0.00011      0.75665        -0.009579      0.002773     -0.002910
      4.93431     -0.00022      0.75665         0.018163      0.000615     -0.039853
      1.23348      2.13645      0.75665         0.110056      0.052788     -0.042711
      3.70064      2.13634      0.75665         0.103765     -0.045724     -0.040178
      2.46715     -0.00011      3.78323        -0.003576      0.003437     -0.017992
      4.93431     -0.00022      3.78323        -0.021168      0.000051      0.007308
      1.23348      2.13645      3.78323        -0.024034     -0.002540      0.006842
      3.70064      2.13634      3.78323        -0.022235      0.006042      0.004859
     -1.23367      2.13656      2.26994        -0.021366      0.002543      0.002926
      1.23348      2.13645      2.26994         0.030375      0.024472      0.061337
     -2.46735      4.27313      2.26994        -0.016313     -0.029361      0.030926
     -0.00019      4.27302      2.26994         0.002287      0.000166     -0.001721
     -1.23367      2.13656      5.29652         0.033377     -0.026701      0.063200
      1.23348      2.13645      5.29652        -0.025561     -0.008653      0.004582
     -2.46735      4.27313      5.29652        -0.013798      0.033976      0.032811
     -0.00019      4.27302      5.29652         0.000886      0.000192      0.003306
      0.00613      1.42441      0.76440        -0.246584     -0.001509     -0.038039
      2.46696      1.42430      0.75665         0.019620      0.005276      0.029919
     -1.23387      3.56098      0.75665         0.005088     -0.011692      0.029485
      1.23329      3.56086      0.75665         0.009625      0.008414      0.030573
     -0.00019      1.42441      3.78323         0.035284      0.002688     -0.001454
      2.46696      1.42430      3.78323         0.004878      0.001669      0.016917
     -1.23387      3.56098      3.78323        -0.002258     -0.012964      0.016582
      1.23329      3.56086      3.78323         0.000575      0.004978      0.017719
      1.23367      0.71204      2.26994         0.009644      0.001704     -0.010691
      3.70083      0.71193      2.26994        -0.006234     -0.010677     -0.025546
     -0.00000      2.84860      2.26994         0.006324      0.008303     -0.018369
      2.46715      2.84849      2.26994         0.007073     -0.000814     -0.029952
      1.23367      0.71204      5.29652        -0.010949      0.010433     -0.028692
      3.70083      0.71193      5.29652         0.012696     -0.000710     -0.009246
     -0.00000      2.84860      5.29652         0.005305     -0.015211     -0.018470
      2.46715      2.84849      5.29652         0.008635     -0.003965     -0.033467
 -----------------------------------------------------------------------------------
    total drift:                                0.000014     -0.000001     -0.000007


--------------------------------------------------------------------------------------------------------



  FREE ENERGIE OF THE ION-ELECTRON SYSTEM (eV)
  ---------------------------------------------------
  free  energy   TOTEN  =      -172.15078443 eV

  energy  without entropy=     -172.15078443  energy(sigma->0) =     -172.15078443
 


--------------------------------------------------------------------------------------------------------


    POTLOK:  cpu time    0.07: real time    0.07


--------------------------------------------------------------------------------------------------------


     LOOP+:  cpu time 1324.17: real time 1324.93
    4ORBIT:  cpu time    0.00: real time    0.00
 BZINTS: Fermi energy: 17.563784;128.000000 electrons
         Band energy: 669.544376;  BLOECHL correction: -0.263739

 total amount of memory used by VASP on root node   255958. kBytes
========================================================================

   base      :      30000. kBytes
   nonl-proj :      47081. kBytes
   fftplans  :       3955. kBytes
   grid      :       8330. kBytes
   one-center:         98. kBytes
   wavefun   :     166494. kBytes
 
  
  
 General timing and accounting informations for this job:
 ========================================================
  
                  Total CPU time used (sec):     1344.699
                            User time (sec):     1071.642
                          System time (sec):      273.056
                         Elapsed time (sec):     1345.634
  
                   Maximum memory used (kb):      406904.
                   Average memory used (kb):           0.
  
                          Minor page faults:     30166920
                          Major page faults:            0
                 Voluntary context switches:          929
