  32  32   0   0
  0.8992511E+01  0.4932875E-09  0.4932875E-09  0.1366141E-08  0.5000000E-15
  1.000000000000000E-004
  CAR 
 graphite                                
     15.30939102    -17.09240761  301      4.52060463      1.00000000
    -17.092  0.0000E+00  0.0000E+00
    -16.984  0.0000E+00  0.0000E+00
    -16.876  0.0000E+00  0.0000E+00
    -16.768  0.0000E+00  0.0000E+00
    -16.660  0.0000E+00  0.0000E+00
    -16.552  0.0000E+00  0.0000E+00
    -16.444  0.0000E+00  0.0000E+00
    -16.336  0.0000E+00  0.0000E+00
    -16.228  0.0000E+00  0.0000E+00
    -16.120  0.0000E+00  0.0000E+00
    -16.012  0.0000E+00  0.0000E+00
    -15.904  0.0000E+00  0.0000E+00
    -15.796  0.0000E+00  0.0000E+00
    -15.688  0.0000E+00  0.0000E+00
    -15.580  0.0000E+00  0.0000E+00
    -15.472  0.0000E+00  0.0000E+00
    -15.364  0.0000E+00  0.0000E+00
    -15.256  0.0000E+00  0.0000E+00
    -15.148  0.0000E+00  0.0000E+00
    -15.040  0.1094E+01  0.2200E-01
    -14.932  0.2565E+01  0.2328E+00
    -14.824  0.4422E+01  0.6000E+00
    -14.716  0.4826E+01  0.1122E+01
    -14.608  0.4997E+01  0.1657E+01
    -14.500  0.4916E+01  0.2189E+01
    -14.392  0.4950E+01  0.2722E+01
    -14.284  0.4907E+01  0.3254E+01
    -14.176  0.4987E+01  0.3789E+01
    -14.068  0.4984E+01  0.4327E+01
    -13.960  0.4992E+01  0.4866E+01
    -13.852  0.5626E+01  0.5433E+01
    -13.744  0.5913E+01  0.6060E+01
    -13.636  0.6771E+01  0.6768E+01
    -13.528  0.4637E+01  0.7363E+01
    -13.420  0.1769E+01  0.7724E+01
    -13.312  0.3333E+01  0.7968E+01
    -13.204  0.4297E+01  0.8416E+01
    -13.096  0.4583E+01  0.8900E+01
    -12.988  0.6010E+01  0.9640E+01
    -12.880  0.6733E+01  0.1035E+02
    -12.772  0.4348E+01  0.1089E+02
    -12.664  0.4514E+01  0.1137E+02
    -12.556  0.4644E+01  0.1187E+02
    -12.448  0.4758E+01  0.1237E+02
    -12.340  0.5147E+01  0.1291E+02
    -12.232  0.5523E+01  0.1348E+02
    -12.124  0.5647E+01  0.1411E+02
    -12.016  0.5520E+01  0.1471E+02
    -11.908  0.5145E+01  0.1528E+02
    -11.800  0.4935E+01  0.1583E+02
    -11.692  0.4914E+01  0.1635E+02
    -11.584  0.5010E+01  0.1689E+02
    -11.476  0.5069E+01  0.1743E+02
    -11.368  0.5145E+01  0.1798E+02
    -11.260  0.5482E+01  0.1856E+02
    -11.152  0.5894E+01  0.1917E+02
    -11.044  0.5781E+01  0.1980E+02
    -10.936  0.5723E+01  0.2042E+02
    -10.828  0.5777E+01  0.2104E+02
    -10.720  0.5414E+01  0.2166E+02
    -10.612  0.4556E+01  0.2219E+02
    -10.504  0.5154E+01  0.2271E+02
    -10.396  0.5342E+01  0.2329E+02
    -10.288  0.5430E+01  0.2387E+02
    -10.180  0.5624E+01  0.2446E+02
    -10.072  0.5869E+01  0.2508E+02
     -9.964  0.7195E+01  0.2577E+02
     -9.856  0.1073E+02  0.2670E+02
     -9.748  0.7326E+01  0.2767E+02
     -9.640  0.5431E+01  0.2833E+02
     -9.532  0.5847E+01  0.2904E+02
     -9.424  0.3657E+01  0.2959E+02
     -9.316  0.3288E+01  0.2997E+02
     -9.208  0.2919E+01  0.3030E+02
     -9.100  0.2550E+01  0.3060E+02
     -8.992  0.2324E+01  0.3085E+02
     -8.884  0.3466E+01  0.3116E+02
     -8.776  0.2131E+01  0.3145E+02
     -8.668  0.1498E+01  0.3162E+02
     -8.560  0.2374E+01  0.3183E+02
     -8.452  0.5529E+01  0.3219E+02
     -8.344  0.4887E+01  0.3296E+02
     -8.236  0.3859E+01  0.3341E+02
     -8.128  0.4186E+01  0.3384E+02
     -8.020  0.7351E+01  0.3442E+02
     -7.912  0.6076E+01  0.3521E+02
     -7.804  0.7142E+01  0.3592E+02
     -7.696  0.8229E+01  0.3675E+02
     -7.588  0.8568E+01  0.3770E+02
     -7.480  0.6338E+01  0.3849E+02
     -7.372  0.6078E+01  0.3916E+02
     -7.264  0.5819E+01  0.3980E+02
     -7.156  0.5581E+01  0.4042E+02
     -7.048  0.5385E+01  0.4101E+02
     -6.940  0.5205E+01  0.4158E+02
     -6.832  0.5014E+01  0.4213E+02
     -6.724  0.4858E+01  0.4266E+02
     -6.616  0.4827E+01  0.4319E+02
     -6.508  0.4797E+01  0.4371E+02
     -6.400  0.4682E+01  0.4422E+02
     -6.292  0.4446E+01  0.4471E+02
     -6.184  0.4382E+01  0.4519E+02
     -6.076  0.3862E+01  0.4561E+02
     -5.968  0.4175E+01  0.4604E+02
     -5.860  0.4803E+01  0.4653E+02
     -5.752  0.5577E+01  0.4709E+02
     -5.644  0.6381E+01  0.4774E+02
     -5.536  0.9535E+01  0.4857E+02
     -5.428  0.9103E+01  0.4965E+02
     -5.320  0.6825E+01  0.5051E+02
     -5.212  0.4547E+01  0.5112E+02
     -5.104  0.2683E+01  0.5150E+02
     -4.996  0.2840E+01  0.5179E+02
     -4.888  0.3990E+01  0.5215E+02
     -4.780  0.5317E+01  0.5265E+02
     -4.672  0.6802E+01  0.5330E+02
     -4.564  0.8139E+01  0.5413E+02
     -4.456  0.7108E+01  0.5496E+02
     -4.348  0.5897E+01  0.5566E+02
     -4.240  0.6088E+01  0.5628E+02
     -4.132  0.7406E+01  0.5708E+02
     -4.024  0.6889E+01  0.5785E+02
     -3.916  0.6371E+01  0.5856E+02
     -3.808  0.6472E+01  0.5925E+02
     -3.700  0.6196E+01  0.5993E+02
     -3.592  0.1179E+02  0.6094E+02
     -3.484  0.8878E+01  0.6209E+02
     -3.376  0.8094E+01  0.6303E+02
     -3.268  0.7286E+01  0.6385E+02
     -3.160  0.6743E+01  0.6460E+02
     -3.052  0.7383E+01  0.6536E+02
     -2.944  0.8413E+01  0.6621E+02
     -2.836  0.9863E+01  0.6718E+02
     -2.728  0.1404E+02  0.6845E+02
     -2.620  0.1327E+02  0.7001E+02
     -2.512  0.1170E+02  0.7130E+02
     -2.404  0.1294E+02  0.7264E+02
     -2.296  0.1319E+02  0.7399E+02
     -2.188  0.1419E+02  0.7555E+02
     -2.080  0.1376E+02  0.7700E+02
     -1.972  0.1423E+02  0.7885E+02
     -1.864  0.1228E+02  0.8011E+02
     -1.756  0.1744E+02  0.8212E+02
     -1.648  0.1863E+02  0.8402E+02
     -1.540  0.1537E+02  0.8593E+02
     -1.432  0.1251E+02  0.8745E+02
     -1.324  0.1052E+02  0.8868E+02
     -1.216  0.9434E+01  0.8976E+02
     -1.108  0.7438E+01  0.9072E+02
     -1.000  0.1021E+02  0.9165E+02
     -0.892  0.1339E+02  0.9294E+02
     -0.784  0.1369E+02  0.9436E+02
     -0.675  0.1095E+02  0.9592E+02
     -0.567  0.9618E+01  0.9695E+02
     -0.459  0.1087E+02  0.9805E+02
     -0.351  0.1032E+02  0.9918E+02
     -0.243  0.1101E+02  0.1003E+03
     -0.135  0.9588E+01  0.1015E+03
     -0.027  0.9229E+01  0.1025E+03
      0.081  0.9554E+01  0.1036E+03
      0.189  0.9741E+01  0.1046E+03
      0.297  0.9349E+01  0.1056E+03
      0.405  0.9199E+01  0.1066E+03
      0.513  0.9421E+01  0.1076E+03
      0.621  0.9428E+01  0.1087E+03
      0.729  0.9287E+01  0.1097E+03
      0.837  0.9398E+01  0.1107E+03
      0.945  0.9041E+01  0.1117E+03
      1.053  0.9440E+01  0.1127E+03
      1.161  0.9598E+01  0.1137E+03
      1.269  0.1002E+02  0.1147E+03
      1.377  0.1027E+02  0.1158E+03
      1.485  0.8078E+01  0.1168E+03
      1.593  0.6679E+01  0.1175E+03
      1.701  0.6131E+01  0.1182E+03
      1.809  0.5092E+01  0.1189E+03
      1.917  0.3927E+01  0.1193E+03
      2.025  0.3915E+01  0.1198E+03
      2.133  0.5928E+01  0.1203E+03
      2.241  0.8288E+01  0.1211E+03
      2.349  0.6522E+01  0.1220E+03
      2.457  0.1016E+02  0.1228E+03
      2.565  0.7046E+01  0.1237E+03
      2.673  0.5390E+01  0.1243E+03
      2.781  0.4526E+01  0.1249E+03
      2.889  0.3835E+01  0.1253E+03
      2.997  0.3311E+01  0.1257E+03
      3.105  0.3155E+01  0.1260E+03
      3.213  0.2936E+01  0.1264E+03
      3.321  0.2512E+01  0.1267E+03
      3.429  0.2136E+01  0.1269E+03
      3.537  0.1885E+01  0.1271E+03
      3.645  0.1651E+01  0.1273E+03
      3.753  0.1412E+01  0.1275E+03
      3.861  0.1177E+01  0.1276E+03
      3.969  0.9545E+00  0.1278E+03
      4.077  0.7439E+00  0.1278E+03
      4.185  0.5413E+00  0.1279E+03
      4.293  0.3530E+00  0.1280E+03
      4.401  0.1769E+00  0.1280E+03
      4.509  0.1141E-01  0.1280E+03
      4.617  0.9738E-01  0.1280E+03
      4.725  0.2285E+00  0.1280E+03
      4.833  0.3727E+00  0.1281E+03
      4.941  0.5338E+00  0.1281E+03
      5.049  0.7164E+00  0.1282E+03
      5.157  0.9383E+00  0.1283E+03
      5.265  0.1285E+01  0.1284E+03
      5.373  0.1656E+01  0.1285E+03
      5.481  0.2005E+01  0.1287E+03
      5.589  0.2370E+01  0.1290E+03
      5.697  0.3066E+01  0.1293E+03
      5.805  0.3157E+01  0.1296E+03
      5.913  0.4104E+01  0.1300E+03
      6.021  0.6236E+01  0.1306E+03
      6.129  0.8961E+01  0.1316E+03
      6.237  0.8419E+01  0.1325E+03
      6.345  0.7894E+01  0.1333E+03
      6.453  0.8334E+01  0.1342E+03
      6.561  0.6450E+01  0.1350E+03
      6.669  0.6111E+01  0.1357E+03
      6.777  0.5799E+01  0.1363E+03
      6.885  0.5126E+01  0.1369E+03
      6.993  0.4586E+01  0.1374E+03
      7.101  0.3779E+01  0.1379E+03
      7.209  0.3561E+01  0.1383E+03
      7.317  0.3741E+01  0.1387E+03
      7.425  0.4268E+01  0.1391E+03
      7.533  0.4607E+01  0.1396E+03
      7.641  0.4725E+01  0.1401E+03
      7.749  0.4558E+01  0.1406E+03
      7.857  0.4408E+01  0.1411E+03
      7.965  0.4249E+01  0.1415E+03
      8.073  0.4091E+01  0.1420E+03
      8.181  0.3911E+01  0.1424E+03
      8.289  0.3760E+01  0.1428E+03
      8.397  0.3625E+01  0.1432E+03
      8.505  0.3535E+01  0.1436E+03
      8.613  0.3467E+01  0.1440E+03
      8.721  0.3399E+01  0.1444E+03
      8.829  0.3627E+01  0.1447E+03
      8.937  0.3786E+01  0.1451E+03
      9.045  0.3933E+01  0.1456E+03
      9.153  0.4095E+01  0.1460E+03
      9.261  0.4177E+01  0.1464E+03
      9.369  0.4249E+01  0.1469E+03
      9.477  0.4021E+01  0.1473E+03
      9.585  0.3983E+01  0.1478E+03
      9.693  0.3960E+01  0.1482E+03
      9.801  0.3970E+01  0.1486E+03
      9.909  0.3989E+01  0.1491E+03
     10.017  0.4060E+01  0.1495E+03
     10.125  0.4154E+01  0.1499E+03
     10.233  0.4305E+01  0.1504E+03
     10.341  0.4350E+01  0.1509E+03
     10.449  0.4920E+01  0.1513E+03
     10.557  0.5960E+01  0.1519E+03
     10.665  0.5265E+01  0.1525E+03
     10.773  0.4576E+01  0.1531E+03
     10.881  0.4651E+01  0.1536E+03
     10.989  0.4387E+01  0.1541E+03
     11.097  0.3432E+01  0.1545E+03
     11.205  0.3882E+01  0.1549E+03
     11.313  0.3964E+01  0.1554E+03
     11.421  0.3359E+01  0.1558E+03
     11.529  0.2382E+01  0.1561E+03
     11.637  0.2996E+01  0.1563E+03
     11.745  0.4428E+01  0.1567E+03
     11.853  0.6016E+01  0.1573E+03
     11.961  0.7642E+01  0.1581E+03
     12.069  0.9517E+01  0.1590E+03
     12.177  0.1160E+02  0.1601E+03
     12.285  0.1065E+02  0.1613E+03
     12.393  0.8624E+01  0.1624E+03
     12.501  0.5215E+01  0.1631E+03
     12.609  0.2725E+01  0.1635E+03
     12.717  0.1372E+01  0.1638E+03
     12.825  0.8624E+00  0.1639E+03
     12.933  0.4886E+00  0.1639E+03
     13.041  0.2249E+00  0.1640E+03
     13.149  0.6621E-01  0.1640E+03
     13.257  0.2571E-02  0.1640E+03
     13.365  0.0000E+00  0.1640E+03
     13.473  0.0000E+00  0.1640E+03
     13.581  0.0000E+00  0.1640E+03
     13.689  0.0000E+00  0.1640E+03
     13.797  0.0000E+00  0.1640E+03
     13.905  0.0000E+00  0.1640E+03
     14.013  0.0000E+00  0.1640E+03
     14.121  0.0000E+00  0.1640E+03
     14.229  0.0000E+00  0.1640E+03
     14.337  0.0000E+00  0.1640E+03
     14.445  0.0000E+00  0.1640E+03
     14.553  0.0000E+00  0.1640E+03
     14.661  0.0000E+00  0.1640E+03
     14.769  0.0000E+00  0.1640E+03
     14.877  0.0000E+00  0.1640E+03
     14.985  0.0000E+00  0.1640E+03
     15.093  0.0000E+00  0.1640E+03
     15.201  0.0000E+00  0.1640E+03
     15.309  0.0000E+00  0.1640E+03
