   32   32    1    1
  0.8992511E+01  0.4932875E-09  0.4932875E-09  0.1366141E-08  0.5000000E-15
  1.000000000000000E-004
  CAR 
 graphite                                
    128    163     84
 
  0.0000000E+00  0.0000000E+00  0.0000000E+00  0.3086420E-02
    1      -15.092248
    2      -14.966027
    3      -14.965296
    4      -14.831289
    5       -9.778737
    6       -9.770221
    7       -9.767614
    8       -9.727347
    9       -9.727258
   10       -9.719509
   11       -9.715627
   12       -9.715586
   13       -9.713921
   14       -9.683169
   15       -9.672636
   16       -9.669579
   17       -8.708691
   18       -8.705056
   19       -8.703066
   20       -8.681456
   21       -8.677545
   22       -8.675847
   23       -8.674954
   24       -8.674917
   25       -8.671689
   26       -8.635900
   27       -8.631291
   28       -8.629209
   29       -3.904924
   30       -3.093178
   31       -3.091560
   32       -2.111471
   33       -1.881097
   34       -1.878298
   35       -1.859967
   36       -1.858721
   37       -1.855162
   38       -1.855156
   39       -1.854514
   40       -1.836465
   41       -1.835163
   42       -1.833444
   43       -1.830947
   44       -1.812039
   45        1.506457
   46        1.517160
   47        1.521643
   48        1.527693
   49        1.531384
   50        1.537772
   51        1.541199
   52        1.551224
   53        1.805854
   54        1.806585
   55        1.808182
   56        2.164535
   57        2.166393
   58        2.168459
   59        2.172512
   60        2.172710
   61        2.174097
   62        2.420695
   63        2.433488
   64        2.436169
   65        6.031030
   66        6.033663
   67        6.034767
   68        6.174034
   69        6.179489
   70        6.184016
   71        6.185017
   72        6.185249
   73        6.189985
   74        6.652782
   75        6.665813
   76        6.668203
   77        8.683322
   78       11.181102
   79       11.184687
   80       11.742641
   81       11.745713
   82       11.778958
   83       11.910776
   84       11.918252
 
  0.1111111E+00  0.0000000E+00  0.0000000E+00  0.6172840E-02
    1      -15.018681
    2      -14.892957
    3      -14.892230
    4      -14.758838
    5      -10.561825
    6      -10.472622
    7      -10.471695
    8      -10.379452
    9      -10.024624
   10      -10.016344
   11       -9.947990
   12       -9.947421
   13       -9.938836
   14       -9.938570
   15       -9.870118
   16       -9.860878
   17       -8.400733
   18       -8.394225
   19       -8.340491
   20       -8.337273
   21       -8.332240
   22       -8.331802
   23       -8.271083
   24       -8.264136
   25       -7.879891
   26       -7.810404
   27       -7.809082
   28       -7.736540
   29       -3.815597
   30       -3.006198
   31       -3.004580
   32       -2.105306
   33       -2.086008
   34       -2.079598
   35       -2.078979
   36       -2.060655
   37       -2.058995
   38       -2.052719
   39       -2.033254
   40       -2.027611
   41       -1.807778
   42       -1.785901
   43       -1.782799
   44       -1.760967
   45        1.221805
   46        1.226505
   47        1.235394
   48        1.239355
   49        1.250225
   50        1.354785
   51        1.364945
   52        1.369450
   53        1.377632
   54        1.692581
   55        1.695010
   56        1.743147
   57        1.745917
   58        2.113025
   59        2.114701
   60        2.119554
   61        2.121450
   62        2.261339
   63        2.465332
   64        2.477673
   65        6.113984
   66        6.116365
   67        6.305315
   68        6.310669
   69        6.315543
   70        6.317022
   71        6.422834
   72        6.725690
   73        6.729003
   74        6.787971
   75        6.799432
   76        7.260707
   77        8.772805
   78       11.260298
   79       11.263833
   80       11.783704
   81       11.949475
   82       11.951845
   83       12.092250
   84       12.122215
 
  0.2222222E+00  0.0000000E+00  0.0000000E+00  0.6172840E-02
    1      -14.798181
    2      -14.674078
    3      -14.673361
    4      -14.541829
    5      -11.572027
    6      -11.472238
    7      -11.471572
    8      -11.367463
    9      -10.370576
   10      -10.364842
   11      -10.283423
   12      -10.282369
   13      -10.276863
   14      -10.276581
   15      -10.191763
   16      -10.185694
   17       -7.719052
   18       -7.709793
   19       -7.652729
   20       -7.649885
   21       -7.642213
   22       -7.641640
   23       -7.580151
   24       -7.570867
   25       -6.554668
   26       -6.489934
   27       -6.488752
   28       -6.421769
   29       -3.548442
   30       -2.745935
   31       -2.744308
   32       -2.711432
   33       -2.693179
   34       -2.679573
   35       -2.678983
   36       -2.661774
   37       -2.659951
   38       -2.646187
   39       -2.627767
   40       -1.777054
   41       -1.592940
   42       -1.571557
   43       -1.568317
   44       -1.546905
   45        0.211089
   46        0.400357
   47        0.417044
   48        0.420574
   49        0.437927
   50        0.854034
   51        0.856149
   52        0.935595
   53        0.948508
   54        0.953321
   55        0.965079
   56        1.476083
   57        1.479161
   58        1.581712
   59        1.992015
   60        1.993182
   61        1.997237
   62        1.999211
   63        2.506795
   64        2.515319
   65        6.371058
   66        6.375361
   67        6.639747
   68        6.644883
   69        6.649503
   70        6.651015
   71        7.098772
   72        7.106890
   73        7.566474
   74        7.948185
   75        7.950700
   76        8.472643
   77        9.041926
   78       11.496974
   79       11.500343
   80       11.898221
   81       12.058226
   82       12.060277
   83       12.201557
   84       12.909790
 
  0.3333333E+00  0.0000000E+00  0.0000000E+00  0.6172840E-02
    1      -14.431899
    2      -14.310536
    3      -14.309833
    4      -14.181389
    5      -12.484430
    6      -12.377608
    7      -12.376977
    8      -12.264743
    9      -10.626508
   10      -10.622891
   11      -10.535450
   12      -10.534033
   13      -10.530867
   14      -10.530575
   15      -10.439088
   16      -10.435338
   17       -6.911656
   18       -6.900955
   19       -6.850691
   20       -6.847720
   21       -6.838942
   22       -6.838068
   23       -6.784767
   24       -6.774298
   25       -5.121661
   26       -5.065803
   27       -5.064433
   28       -5.007034
   29       -3.526202
   30       -3.510293
   31       -3.488239
   32       -3.488005
   33       -3.472998
   34       -3.471025
   35       -3.448872
   36       -3.432710
   37       -3.106210
   38       -2.315663
   39       -2.314040
   40       -1.363803
   41       -1.243901
   42       -1.223642
   43       -1.220187
   44       -1.199549
   45       -0.807348
   46       -0.784038
   47       -0.758281
   48       -0.755045
   49       -0.729032
   50       -0.099564
   51       -0.097728
   52        0.373611
   53        0.389099
   54        0.393584
   55        0.408693
   56        0.729354
   57        1.287953
   58        1.290594
   59        1.868231
   60        1.869071
   61        1.871851
   62        1.874125
   63        2.500492
   64        2.505727
   65        6.735857
   66        6.741246
   67        7.031339
   68        7.036301
   69        7.039586
   70        7.041143
   71        7.413322
   72        7.418064
   73        9.074106
   74        9.425624
   75        9.427592
   76        9.491533
   77        9.885244
   78       11.812102
   79       11.876304
   80       11.879265
   81       12.138889
   82       12.223328
   83       12.225663
   84       12.487735
 
  0.4444444E+00  0.0000000E+00  0.0000000E+00  0.6172840E-02
    1      -13.921812
    2      -13.804202
    3      -13.803506
    4      -13.679362
    5      -13.270887
    6      -13.158123
    7      -13.157492
    8      -13.038700
    9      -10.758316
   10      -10.756312
   11      -10.666120
   12      -10.664159
   13      -10.663113
   14      -10.662466
   15      -10.567482
   16      -10.565430
   17       -6.163112
   18       -6.155152
   19       -6.119714
   20       -6.116044
   21       -6.111081
   22       -6.109279
   23       -6.072870
   24       -6.065855
   25       -4.274373
   26       -4.265651
   27       -4.243373
   28       -4.242413
   29       -4.234813
   30       -4.232381
   31       -4.207978
   32       -4.198327
   33       -3.641613
   34       -3.595726
   35       -3.593960
   36       -3.546870
   37       -2.494016
   38       -2.170153
   39       -2.134488
   40       -2.132236
   41       -2.095395
   42       -1.722809
   43       -1.720184
   44       -1.718964
   45       -0.975287
   46       -0.973552
   47       -0.795752
   48       -0.777993
   49       -0.758673
   50       -0.754894
   51       -0.735568
   52       -0.222918
   53       -0.205228
   54       -0.201222
   55       -0.183384
   56       -0.087783
   57        1.183732
   58        1.185707
   59        1.793654
   60        1.794866
   61        1.795939
   62        1.798812
   63        2.482071
   64        2.484901
   65        7.024113
   66        7.027666
   67        7.298939
   68        7.304039
   69        7.305051
   70        7.306294
   71        7.591323
   72        7.594209
   73       10.116798
   74       10.694388
   75       10.911307
   76       10.963658
   77       10.967240
   78       11.347689
   79       12.200537
   80       12.209445
   81       12.283732
   82       12.349561
   83       12.404820
   84       12.408114
 
  0.6776264E-20  0.1111111E+00  0.0000000E+00  0.6172840E-02
    1      -15.018683
    2      -14.892960
    3      -14.892230
    4      -14.758839
    5      -10.561750
    6      -10.472455
    7      -10.471691
    8      -10.379353
    9      -10.024634
   10      -10.016614
   11       -9.947991
   12       -9.947413
   13       -9.939375
   14       -9.938642
   15       -9.870076
   16       -9.861276
   17       -8.400847
   18       -8.393010
   19       -8.340786
   20       -8.337273
   21       -8.331819
   22       -8.329595
   23       -8.271182
   24       -8.262791
   25       -7.880816
   26       -7.810988
   27       -7.810379
   28       -7.737497
   29       -3.815592
   30       -3.006190
   31       -3.004577
   32       -2.106621
   33       -2.085854
   34       -2.082010
   35       -2.078982
   36       -2.060655
   37       -2.058977
   38       -2.054056
   39       -2.033413
   40       -2.027605
   41       -1.806298
   42       -1.783371
   43       -1.782797
   44       -1.759847
   45        1.220008
   46        1.226375
   47        1.235141
   48        1.235394
   49        1.245557
   50        1.359720
   51        1.369450
   52        1.369803
   53        1.379557
   54        1.692338
   55        1.694214
   56        1.744708
   57        1.746266
   58        2.112855
   59        2.114815
   60        2.117968
   61        2.120627
   62        2.262551
   63        2.465392
   64        2.476205
   65        6.114835
   66        6.117631
   67        6.305662
   68        6.310646
   69        6.316261
   70        6.320083
   71        6.420903
   72        6.724681
   73        6.726479
   74        6.788107
   75        6.801377
   76        7.259062
   77        8.772811
   78       11.260321
   79       11.263855
   80       11.784183
   81       11.950419
   82       11.951473
   83       12.084012
   84       12.121175
 
  0.1111111E+00  0.1111111E+00  0.0000000E+00  0.6172840E-02
    1      -14.871507
    2      -14.746864
    3      -14.746144
    4      -14.613990
    5      -11.026722
    6      -11.023739
    7      -10.933304
    8      -10.929654
    9      -10.929630
   10      -10.927329
   11      -10.832156
   12      -10.829141
   13       -9.589632
   14       -9.539319
   15       -9.538512
   16       -9.495963
   17       -8.524385
   18       -8.498279
   19       -8.494627
   20       -8.455009
   21       -7.197781
   22       -7.194656
   23       -7.131223
   24       -7.128234
   25       -7.128212
   26       -7.124796
   27       -7.058781
   28       -7.055438
   29       -3.637235
   30       -2.832411
   31       -2.830791
   32       -2.768533
   33       -2.736679
   34       -2.735071
   35       -2.702665
   36       -1.962203
   37       -1.959211
   38       -1.938380
   39       -1.934041
   40       -1.934035
   41       -1.933226
   42       -1.910036
   43       -1.907686
   44       -1.860243
   45        0.696908
   46        0.706581
   47        0.709863
   48        0.720335
   49        0.792941
   50        0.795759
   51        1.039641
   52        1.049283
   53        1.053571
   54        1.060994
   55        1.383025
   56        1.386686
   57        1.386742
   58        1.388457
   59        2.026096
   60        2.028573
   61        2.073693
   62        2.430789
   63        2.433349
   64        2.682468
   65        6.011691
   66        6.101654
   67        6.106582
   68        6.488109
   69        6.911699
   70        6.914383
   71        7.266456
   72        7.268296
   73        7.268662
   74        7.272219
   75        7.786768
   76        7.789195
   77        8.952419
   78       11.419368
   79       11.422803
   80       12.155300
   81       12.159292
   82       12.320017
   83       12.324569
   84       12.326057
 
  0.2222222E+00  0.1111111E+00  0.0000000E+00  0.6172840E-02
    1      -14.578073
    2      -14.455572
    3      -14.454866
    4      -14.325162
    5      -11.991310
    6      -11.888341
    7      -11.887671
    8      -11.779884
    9      -11.367284
   10      -11.269343
   11      -11.268612
   12      -11.166169
   13       -9.638904
   14       -9.565064
   15       -9.564821
   16       -9.490568
   17       -8.054006
   18       -7.998119
   19       -7.994950
   20       -7.933677
   21       -6.413380
   22       -6.351353
   23       -6.350370
   24       -6.286581
   25       -5.814424
   26       -5.754715
   27       -5.753510
   28       -5.692171
   29       -3.676099
   30       -3.637053
   31       -3.635482
   32       -3.595411
   33       -3.282375
   34       -2.487184
   35       -2.486230
   36       -2.485342
   37       -2.455361
   38       -2.455103
   39       -2.423582
   40       -1.675214
   41       -1.651843
   42       -1.648672
   43       -1.625010
   44       -1.528204
   45       -0.257172
   46       -0.245422
   47       -0.239634
   48       -0.234331
   49       -0.217671
   50        0.433538
   51        0.435579
   52        0.460921
   53        0.496754
   54        0.509112
   55        0.514069
   56        0.525697
   57        1.098039
   58        1.099510
   59        1.217790
   60        1.818569
   61        2.212522
   62        2.633179
   63        2.635597
   64        2.984741
   65        5.992650
   66        6.110032
   67        6.114781
   68        6.437446
   69        7.489208
   70        7.836859
   71        7.839050
   72        8.272671
   73        8.280681
   74        8.638963
   75        8.641053
   76        9.112439
   77        9.312489
   78       11.735289
   79       11.738478
   80       12.258505
   81       12.454225
   82       12.460576
   83       12.462558
   84       12.808119
 
  0.3333333E+00  0.1111111E+00  0.0000000E+00  0.6172840E-02
    1      -14.139738
    2      -14.020509
    3      -14.019821
    4      -13.893843
    5      -12.841338
    6      -12.731828
    7      -12.731176
    8      -12.616050
    9      -11.576087
   10      -11.476417
   11      -11.475651
   12      -11.371245
   13       -9.782168
   14       -9.699566
   15       -9.699134
   16       -9.613706
   17       -7.287936
   18       -7.231950
   19       -7.228922
   20       -7.170940
   21       -5.615103
   22       -5.564386
   23       -5.562708
   24       -5.511081
   25       -4.614271
   26       -4.573486
   27       -4.571765
   28       -4.528968
   29       -4.365548
   30       -4.315508
   31       -4.314100
   32       -4.262832
   33       -3.184531
   34       -3.151227
   35       -3.150638
   36       -3.115799
   37       -2.754846
   38       -1.974645
   39       -1.973041
   40       -1.502755
   41       -1.473949
   42       -1.470825
   43       -1.442644
   44       -1.259037
   45       -1.237044
   46       -1.233710
   47       -1.216523
   48       -1.211483
   49       -1.036938
   50       -0.489972
   51       -0.488238
   52       -0.126681
   53       -0.110023
   54       -0.105227
   55       -0.088818
   56        0.252801
   57        0.368898
   58        0.913932
   59        0.915388
   60        1.676621
   61        2.214825
   62        2.723508
   63        2.725535
   64        3.239227
   65        6.001290
   66        6.229556
   67        6.233702
   68        6.538175
   69        7.996018
   70        8.291093
   71        8.293728
   72        8.617754
   73        9.834822
   74        9.853156
   75       10.144867
   76       10.147127
   77       10.539840
   78       11.442740
   79       12.173905
   80       12.177099
   81       12.550589
   82       12.629538
   83       12.631953
   84       12.863571
 
  0.4444444E+00  0.1111111E+00  0.0000000E+00  0.6172840E-02
    1      -13.561095
    2      -13.558153
    3      -13.447445
    4      -13.444515
    5      -13.443553
    6      -13.441782
    7      -13.324305
    8      -13.321324
    9      -11.646671
   10      -11.546491
   11      -11.545708
   12      -11.440707
   13       -9.836881
   14       -9.752630
   15       -9.752035
   16       -9.664579
   17       -6.780001
   18       -6.744603
   19       -6.741710
   20       -6.708193
   21       -5.145061
   22       -5.139131
   23       -5.117617
   24       -5.117132
   25       -5.114966
   26       -5.112790
   27       -5.088979
   28       -5.084908
   29       -3.600258
   30       -3.580919
   31       -3.578526
   32       -3.555116
   33       -2.907232
   34       -2.904131
   35       -2.867325
   36       -2.867184
   37       -2.865204
   38       -2.861156
   39       -2.825748
   40       -2.821845
   41       -2.063169
   42       -2.060777
   43       -1.305740
   44       -1.302600
   45       -1.301824
   46       -1.300117
   47       -0.735503
   48       -0.728352
   49       -0.714960
   50       -0.708459
   51       -0.706565
   52       -0.706261
   53       -0.688867
   54       -0.685034
   55       -0.399081
   56       -0.396387
   57        0.181532
   58        0.850272
   59        0.851742
   60        1.626135
   61        2.204814
   62        2.746653
   63        2.748297
   64        3.331939
   65        6.019686
   66        6.297808
   67        6.301094
   68        6.594152
   69        8.212942
   70        8.467665
   71        8.470821
   72        8.725136
   73       10.564759
   74       10.566364
   75       11.424648
   76       11.428104
   77       11.631939
   78       11.635529
   79       11.636638
   80       11.641254
   81       11.961087
   82       11.964127
   83       12.674056
   84       12.677889
 
 -0.4444444E+00  0.1111111E+00  0.0000000E+00  0.6172840E-02
    1      -14.140504
    2      -14.021277
    3      -14.020567
    4      -13.894604
    5      -12.840132
    6      -12.730608
    7      -12.729988
    8      -12.614848
    9      -11.577869
   10      -11.478151
   11      -11.477367
   12      -11.373044
   13       -9.779469
   14       -9.696790
   15       -9.696130
   16       -9.610717
   17       -7.279557
   18       -7.222787
   19       -7.221440
   20       -7.162776
   21       -5.626476
   22       -5.576208
   23       -5.573091
   24       -5.521902
   25       -4.626434
   26       -4.585083
   27       -4.584939
   28       -4.541554
   29       -4.367759
   30       -4.317891
   31       -4.316135
   32       -4.265035
   33       -3.170128
   34       -3.137420
   35       -3.135114
   36       -3.100912
   37       -2.755589
   38       -1.975328
   39       -1.973757
   40       -1.502656
   41       -1.473319
   42       -1.471593
   43       -1.442994
   44       -1.257012
   45       -1.235136
   46       -1.231429
   47       -1.215439
   48       -1.209363
   49       -1.037636
   50       -0.488964
   51       -0.487160
   52       -0.126296
   53       -0.109671
   54       -0.106225
   55       -0.089415
   56        0.251381
   57        0.369858
   58        0.912239
   59        0.913764
   60        1.674523
   61        2.215674
   62        2.726230
   63        2.727701
   64        3.244839
   65        6.002718
   66        6.233317
   67        6.235790
   68        6.539942
   69        7.990523
   70        8.285946
   71        8.289545
   72        8.615226
   73        9.835002
   74        9.852268
   75       10.144328
   76       10.146833
   77       10.538854
   78       11.444219
   79       12.173522
   80       12.176667
   81       12.547271
   82       12.626259
   83       12.629354
   84       12.859423
 
 -0.3333333E+00  0.1111111E+00  0.0000000E+00  0.6172840E-02
    1      -14.578624
    2      -14.456118
    3      -14.455397
    4      -14.325717
    5      -11.989886
    6      -11.886963
    7      -11.886338
    8      -11.778460
    9      -11.370874
   10      -11.272970
   11      -11.272210
   12      -11.169808
   13       -9.633058
   14       -9.558979
   15       -9.558300
   16       -9.483710
   17       -8.047178
   18       -7.989780
   19       -7.988979
   20       -7.926280
   21       -6.424963
   22       -6.363650
   23       -6.361028
   24       -6.297945
   25       -5.816817
   26       -5.757133
   27       -5.755789
   28       -5.694348
   29       -3.691943
   30       -3.652426
   31       -3.651942
   32       -3.611399
   33       -3.282916
   34       -2.487503
   35       -2.485889
   36       -2.468104
   37       -2.437863
   38       -2.435893
   39       -2.405115
   40       -1.673516
   41       -1.650230
   42       -1.646832
   43       -1.623283
   44       -1.528717
   45       -0.260968
   46       -0.246014
   47       -0.242539
   48       -0.238036
   49       -0.223007
   50        0.434686
   51        0.436763
   52        0.458222
   53        0.502472
   54        0.514109
   55        0.516724
   56        0.528924
   57        1.094720
   58        1.096364
   59        1.218746
   60        1.814301
   61        2.213299
   62        2.638211
   63        2.639741
   64        2.995779
   65        5.992423
   66        6.116357
   67        6.118337
   68        6.443488
   69        7.482059
   70        7.828474
   71        7.832374
   72        8.272547
   73        8.274548
   74        8.638034
   75        8.640412
   76        9.111199
   77        9.311739
   78       11.734681
   79       11.737860
   80       12.256859
   81       12.453604
   82       12.458226
   83       12.460432
   84       12.807082
 
 -0.2222222E+00  0.1111111E+00  0.0000000E+00  0.6172840E-02
    1      -14.871838
    2      -14.747202
    3      -14.746472
    4      -14.614325
    5      -11.030604
    6      -11.023580
    7      -10.935810
    8      -10.935119
    9      -10.928755
   10      -10.928032
   11      -10.836250
   12      -10.829130
   13       -9.579988
   14       -9.528644
   15       -9.527977
   16       -9.484224
   17       -8.521282
   18       -8.493150
   19       -8.492514
   20       -8.450759
   21       -7.206515
   22       -7.197852
   23       -7.139639
   24       -7.137187
   25       -7.130400
   26       -7.129181
   27       -7.067489
   28       -7.058923
   29       -3.637563
   30       -2.832729
   31       -2.831120
   32       -2.786310
   33       -2.754057
   34       -2.753405
   35       -2.720565
   36       -1.960180
   37       -1.940281
   38       -1.936021
   39       -1.932847
   40       -1.915579
   41       -1.913702
   42       -1.908430
   43       -1.888645
   44       -1.860555
   45        0.684855
   46        0.695283
   47        0.696645
   48        0.706663
   49        0.790948
   50        0.795155
   51        1.054994
   52        1.063069
   53        1.063399
   54        1.072273
   55        1.380908
   56        1.382769
   57        1.385750
   58        1.388197
   59        2.021217
   60        2.027559
   61        2.074173
   62        2.437240
   63        2.438872
   64        2.696793
   65        6.009835
   66        6.109430
   67        6.111250
   68        6.498310
   69        6.905918
   70        6.913595
   71        7.257492
   72        7.261643
   73        7.267390
   74        7.270355
   75        7.778689
   76        7.787438
   77        8.951955
   78       11.418938
   79       11.422370
   80       12.155553
   81       12.191561
   82       12.321968
   83       12.328635
   84       12.358011
 
 -0.1111111E+00  0.1111111E+00  0.0000000E+00  0.6172840E-02
    1      -15.018792
    2      -14.893067
    3      -14.892334
    4      -14.758947
    5      -10.569126
    6      -10.479847
    7      -10.479308
    8      -10.387015
    9      -10.016247
   10      -10.014096
   11       -9.940493
   12       -9.937266
   13       -9.937234
   14       -9.935991
   15       -9.861067
   16       -9.858725
   17       -8.396173
   18       -8.394317
   19       -8.334739
   20       -8.333433
   21       -8.333409
   22       -8.330985
   23       -8.266222
   24       -8.264328
   25       -7.888482
   26       -7.819573
   27       -7.817073
   28       -7.745186
   29       -3.815702
   30       -3.006296
   31       -3.004685
   32       -2.107082
   33       -2.104388
   34       -2.082750
   35       -2.078582
   36       -2.078575
   37       -2.078115
   38       -2.054149
   39       -2.052055
   40       -2.027713
   41       -1.786617
   42       -1.764207
   43       -1.762357
   44       -1.739927
   45        1.205439
   46        1.216971
   47        1.223298
   48        1.223637
   49        1.232572
   50        1.372989
   51        1.381622
   52        1.385199
   53        1.395743
   54        1.693992
   55        1.696019
   56        1.738637
   57        1.740784
   58        2.116354
   59        2.120798
   60        2.120981
   61        2.121809
   62        2.253331
   63        2.475675
   64        2.478273
   65        6.115088
   66        6.118020
   67        6.314221
   68        6.315735
   69        6.315962
   70        6.320515
   71        6.417053
   72        6.715154
   73        6.719610
   74        6.798331
   75        6.800806
   76        7.249206
   77        8.772653
   78       11.260167
   79       11.263700
   80       11.818688
   81       11.985239
   82       11.986594
   83       12.078976
   84       12.092978
 
  0.1355253E-19  0.2222222E+00  0.0000000E+00  0.6172840E-02
    1      -14.798188
    2      -14.674090
    3      -14.673361
    4      -14.541836
    5      -11.572064
    6      -11.472305
    7      -11.471575
    8      -11.367496
    9      -10.370735
   10      -10.364791
   11      -10.283881
   12      -10.282371
   13      -10.276739
   14      -10.276386
   15      -10.191848
   16      -10.185653
   17       -7.719214
   18       -7.708723
   19       -7.653113
   20       -7.649885
   21       -7.641659
   22       -7.639725
   23       -7.580207
   24       -7.569632
   25       -6.555531
   26       -6.490554
   27       -6.489912
   28       -6.422687
   29       -3.548423
   30       -2.745905
   31       -2.744295
   32       -2.712736
   33       -2.693233
   34       -2.681913
   35       -2.678987
   36       -2.661774
   37       -2.660147
   38       -2.647335
   39       -2.627910
   40       -1.777025
   41       -1.591386
   42       -1.568942
   43       -1.568315
   44       -1.545757
   45        0.211528
   46        0.398576
   47        0.416164
   48        0.417046
   49        0.434912
   50        0.854880
   51        0.856408
   52        0.939351
   53        0.952812
   54        0.953322
   55        0.966718
   56        1.475625
   57        1.478667
   58        1.582448
   59        1.991421
   60        1.992874
   61        1.996750
   62        1.998341
   63        2.506699
   64        2.514051
   65        6.371308
   66        6.377182
   67        6.640208
   68        6.644866
   69        6.650356
   70        6.653834
   71        7.099038
   72        7.108745
   73        7.564976
   74        7.947237
   75        7.949034
   76        8.471393
   77        9.041940
   78       11.497058
   79       11.500423
   80       11.898806
   81       12.059344
   82       12.060318
   83       12.202121
   84       12.904572
 
  0.1111111E+00  0.2222222E+00  0.0000000E+00  0.6172840E-02
    1      -14.578077
    2      -14.455580
    3      -14.454867
    4      -14.325167
    5      -11.991362
    6      -11.888440
    7      -11.887676
    8      -11.779935
    9      -11.367246
   10      -11.269275
   11      -11.268609
   12      -11.166137
   13       -9.638895
   14       -9.565060
   15       -9.564809
   16       -9.490561
   17       -8.053948
   18       -7.998002
   19       -7.994950
   20       -7.933616
   21       -6.412409
   22       -6.350386
   23       -6.349343
   24       -6.285558
   25       -5.815375
   26       -5.755495
   27       -5.754699
   28       -5.693191
   29       -3.676174
   30       -3.637054
   31       -3.635642
   32       -3.595498
   33       -3.282360
   34       -2.487989
   35       -2.486838
   36       -2.485345
   37       -2.458002
   38       -2.455113
   39       -2.424810
   40       -1.673620
   41       -1.649079
   42       -1.648668
   43       -1.623771
   44       -1.528181
   45       -0.257984
   46       -0.245460
   47       -0.239635
   48       -0.235761
   49       -0.219504