 vasp.5.3.5 31Mar14 (build Nov 02 2014 15:17:37) complex                        
  
 executed on        ion-Intel-MKL date 2016.10.09  14:41:37
 running on    2 total cores
 distrk:  each k-point on    2 cores,    1 groups
 distr:  one band on NCORES_PER_BAND=   1 cores,    2 groups


--------------------------------------------------------------------------------------------------------


 INCAR:
 POTCAR:   PAW_PBE C 08Apr2002                    
 POTCAR:   PAW_PBE C 08Apr2002                    
   VRHFIN =C: s2p2                                                              
   LEXCH  = PE                                                                  
   EATOM  =   147.1560 eV,   10.8157 Ry                                         
                                                                                
   TITEL  = PAW_PBE C 08Apr2002                                                 
   LULTRA =        F    use ultrasoft PP ?                                      
   IUNSCR =        0    unscreen: 0-lin 1-nonlin 2-no                           
   RPACOR =     .000    partial core radius                                     
   POMASS =   12.011; ZVAL   =    4.000    mass and valenz                      
   RCORE  =    1.500    outmost cutoff radius                                   
   RWIGS  =    1.630; RWIGS  =     .863    wigner-seitz radius (au A)           
   ENMAX  =  400.000; ENMIN  =  300.000 eV                                      
   ICORE  =        2    local potential                                         
   LCOR   =        T    correct aug charges                                     
   LPAW   =        T    paw PP                                                  
   EAUG   =  644.873                                                            
   DEXC   =     .000                                                            
   RMAX   =    2.266    core radius for proj-oper                               
   RAUG   =    1.300    factor for augmentation sphere                          
   RDEP   =    1.501    radius for radial grids                                 
   RDEPT  =    1.300    core radius for aug-charge                              
   QCUT   =   -5.516; QGAM   =   11.032    optimization parameters              
                                                                                
   Description                                                                  
     l     E      TYP  RCUT    TYP  RCUT                                        
     0   .000     23  1.200                                                     
     0   .000     23  1.200                                                     
     1   .000     23  1.500                                                     
     1  2.500     23  1.500                                                     
     2   .000      7  1.500                                                     
  local pseudopotential read in
  atomic valenz-charges read in
  non local Contribution for L=           0  read in
    real space projection operators read in
  non local Contribution for L=           0  read in
    real space projection operators read in
  non local Contribution for L=           1  read in
    real space projection operators read in
  non local Contribution for L=           1  read in
    real space projection operators read in
    PAW grid and wavefunctions read in
 
   number of l-projection  operators is LMAX  =           4
   number of lm-projection operators is LMMAX =           8
 

 ----------------------------------------------------------------------------- 
|                                                                             |
|  ADVICE TO THIS USER RUNNING 'VASP/VAMP'   (HEAR YOUR MASTER'S VOICE ...):  |
|                                                                             |
|      You have a (more or less) 'large supercell' and for larger cells       |
|      it might be more efficient to use real space projection operators      |
|      So try LREAL= Auto  in the INCAR   file.                               |
|      Mind: If you want to do a very accurate calculations keep the          |
|      reciprocal projection scheme          (i.e. LREAL=.FALSE.)             |
|                                                                             |
 ----------------------------------------------------------------------------- 

 PAW_PBE C 08Apr2002                    :
 energy of atom  1       EATOM= -147.1560
 kinetic energy error for atom=    0.0057 (will be added to EATOM!!)
 
 
 POSCAR: C                                       
  positions in direct lattice
  No initial velocities read in
 exchange correlation table for  LEXCH =        8
   RHO(1)=    0.500       N(1)  =     2000
   RHO(2)=  100.500       N(2)  =     4000
 


--------------------------------------------------------------------------------------------------------


 ion  position               nearest neighbor table
   1  0.500  0.000  0.126-  20 1.42  18 1.42  19 1.43
   2  1.000  0.000  0.125-  17 1.42  20 1.42  19 1.42
   3  0.500  0.500  0.125-  20 1.42  17 1.42  18 1.42
   4  1.000  0.500  0.125-  19 1.42  18 1.42  17 1.42
   5  0.500  0.000  0.625-  22 1.42  23 1.42  24 1.42
   6  1.000  0.000  0.625-  21 1.42  24 1.42  23 1.42
   7  0.500  0.500  0.625-  24 1.42  21 1.42  22 1.42
   8  1.000  0.500  0.625-  23 1.42  22 1.42  21 1.42
   9  0.000  0.500  0.375-  27 1.42  26 1.42  28 1.42
  10  0.500  0.500  0.375-  28 1.42  25 1.42  27 1.42
  11  0.000  1.000  0.375-  25 1.42  28 1.42  26 1.42
  12  0.500  1.000  0.375-  26 1.42  27 1.42  25 1.42
  13  0.000  0.500  0.875-  31 1.42  30 1.42  32 1.42
  14  0.500  0.500  0.875-  32 1.42  29 1.42  31 1.42
  15  0.000  1.000  0.875-  29 1.42  32 1.42  30 1.42
  16  0.500  1.000  0.875-  30 1.42  31 1.42  29 1.42
  17  0.166  0.334  0.125-   2 1.42   3 1.42   4 1.42
  18  0.666  0.334  0.125-   4 1.42   1 1.42   3 1.42
  19  0.166  0.834  0.125-   4 1.42   2 1.42   1 1.43
  20  0.666  0.834  0.125-   1 1.42   3 1.42   2 1.42
  21  0.166  0.334  0.625-   6 1.42   7 1.42   8 1.42
  22  0.666  0.334  0.625-   5 1.42   8 1.42   7 1.42
  23  0.166  0.834  0.625-   8 1.42   5 1.42   6 1.42
  24  0.666  0.834  0.625-   7 1.42   6 1.42   5 1.42
  25  0.334  0.166  0.375-  11 1.42  10 1.42  12 1.42
  26  0.834  0.166  0.375-  12 1.42   9 1.42  11 1.42
  27  0.334  0.666  0.375-   9 1.42  12 1.42  10 1.42
  28  0.834  0.666  0.375-  10 1.42  11 1.42   9 1.42
  29  0.334  0.166  0.875-  15 1.42  14 1.42  16 1.42
  30  0.834  0.166  0.875-  16 1.42  13 1.42  15 1.42
  31  0.334  0.666  0.875-  13 1.42  16 1.42  14 1.42
  32  0.834  0.666  0.875-  14 1.42  15 1.42  13 1.42
 
  LATTYP: Found a base centered orthorhombic cell.
 ALAT       =     4.9295501972
 B/A-ratio  =     1.7336081796
 C/A-ratio  =     2.7713292194
  
  Lattice vectors:
  
 A1 = (   4.9328744980,  -0.0019192860,   0.0000000000)
 A2 = (  -2.4680993993,   4.2710349859,   0.0000000000)
 A3 = (   0.0000000000,   0.0000000000,  13.6614065000)


Analysis of symmetry for initial positions (statically):
=====================================================================
 Subroutine PRICEL returns:
 Original cell was already a primitive cell.
 

 Routine SETGRP: Setting up the symmetry group for a 
 base centered orthorhombic supercell.


 Subroutine GETGRP returns: Found  1 space group operations
 (whereof  1 operations were pure point group operations)
 out of a pool of  8 trial point group operations.


The static configuration has the point symmetry C_1 .


Analysis of symmetry for dynamics (positions and initial velocities):
=====================================================================
 Subroutine PRICEL returns:
 Original cell was already a primitive cell.
 

 Routine SETGRP: Setting up the symmetry group for a 
 base centered orthorhombic supercell.


 Subroutine GETGRP returns: Found  1 space group operations
 (whereof  1 operations were pure point group operations)
 out of a pool of  8 trial point group operations.


The dynamic configuration has the point symmetry C_1 .
 
 
 KPOINTS: B4C B11C-CBC                            

Automatic generation of k-mesh.
Space group operators:
 irot       det(A)        alpha          n_x          n_y          n_z        tau_x        tau_y        tau_z
    1     1.000000     0.000001     1.000000     0.000000     0.000000     0.000000     0.000000     0.000000
 
 Subroutine IBZKPT returns following result:
 ===========================================
 
 Found    163 irreducible k-points:
 
 Following reciprocal coordinates:
            Coordinates               Weight
  0.000000  0.000000  0.000000      1.000000
  0.111111  0.000000  0.000000      2.000000
  0.222222  0.000000  0.000000      2.000000
  0.333333  0.000000  0.000000      2.000000
  0.444444  0.000000  0.000000      2.000000
  0.000000  0.111111  0.000000      2.000000
  0.111111  0.111111  0.000000      2.000000
  0.222222  0.111111  0.000000      2.000000
  0.333333  0.111111  0.000000      2.000000
  0.444444  0.111111  0.000000      2.000000
 -0.444444  0.111111  0.000000      2.000000
 -0.333333  0.111111  0.000000      2.000000
 -0.222222  0.111111  0.000000      2.000000
 -0.111111  0.111111  0.000000      2.000000
  0.000000  0.222222  0.000000      2.000000
  0.111111  0.222222  0.000000      2.000000
  0.222222  0.222222  0.000000      2.000000
  0.333333  0.222222  0.000000      2.000000
  0.444444  0.222222  0.000000      2.000000
 -0.444444  0.222222  0.000000      2.000000
 -0.333333  0.222222  0.000000      2.000000
 -0.222222  0.222222  0.000000      2.000000
 -0.111111  0.222222  0.000000      2.000000
  0.000000  0.333333  0.000000      2.000000
  0.111111  0.333333  0.000000      2.000000
  0.222222  0.333333  0.000000      2.000000
  0.333333  0.333333  0.000000      2.000000
  0.444444  0.333333  0.000000      2.000000
 -0.444444  0.333333  0.000000      2.000000
 -0.333333  0.333333  0.000000      2.000000
 -0.222222  0.333333  0.000000      2.000000
 -0.111111  0.333333  0.000000      2.000000
  0.000000  0.444444  0.000000      2.000000
  0.111111  0.444444  0.000000      2.000000
  0.222222  0.444444  0.000000      2.000000
  0.333333  0.444444  0.000000      2.000000
  0.444444  0.444444  0.000000      2.000000
 -0.444444  0.444444  0.000000      2.000000
 -0.333333  0.444444  0.000000      2.000000
 -0.222222  0.444444  0.000000      2.000000
 -0.111111  0.444444  0.000000      2.000000
  0.000000  0.000000  0.250000      2.000000
  0.111111  0.000000  0.250000      2.000000
  0.222222  0.000000  0.250000      2.000000
  0.333333  0.000000  0.250000      2.000000
  0.444444  0.000000  0.250000      2.000000
 -0.444444  0.000000  0.250000      2.000000
 -0.333333  0.000000  0.250000      2.000000
 -0.222222  0.000000  0.250000      2.000000
 -0.111111  0.000000  0.250000      2.000000
  0.000000  0.111111  0.250000      2.000000
  0.111111  0.111111  0.250000      2.000000
  0.222222  0.111111  0.250000      2.000000
  0.333333  0.111111  0.250000      2.000000
  0.444444  0.111111  0.250000      2.000000
 -0.444444  0.111111  0.250000      2.000000
 -0.333333  0.111111  0.250000      2.000000
 -0.222222  0.111111  0.250000      2.000000
 -0.111111  0.111111  0.250000      2.000000
  0.000000  0.222222  0.250000      2.000000
  0.111111  0.222222  0.250000      2.000000
  0.222222  0.222222  0.250000      2.000000
  0.333333  0.222222  0.250000      2.000000
  0.444444  0.222222  0.250000      2.000000
 -0.444444  0.222222  0.250000      2.000000
 -0.333333  0.222222  0.250000      2.000000
 -0.222222  0.222222  0.250000      2.000000
 -0.111111  0.222222  0.250000      2.000000
  0.000000  0.333333  0.250000      2.000000
  0.111111  0.333333  0.250000      2.000000
  0.222222  0.333333  0.250000      2.000000
  0.333333  0.333333  0.250000      2.000000
  0.444444  0.333333  0.250000      2.000000
 -0.444444  0.333333  0.250000      2.000000
 -0.333333  0.333333  0.250000      2.000000
 -0.222222  0.333333  0.250000      2.000000
 -0.111111  0.333333  0.250000      2.000000
  0.000000  0.444444  0.250000      2.000000
  0.111111  0.444444  0.250000      2.000000
  0.222222  0.444444  0.250000      2.000000
  0.333333  0.444444  0.250000      2.000000
  0.444444  0.444444  0.250000      2.000000
 -0.444444  0.444444  0.250000      2.000000
 -0.333333  0.444444  0.250000      2.000000
 -0.222222  0.444444  0.250000      2.000000
 -0.111111  0.444444  0.250000      2.000000
 -0.000000 -0.444444  0.250000      2.000000
  0.111111 -0.444444  0.250000      2.000000
  0.222222 -0.444444  0.250000      2.000000
  0.333333 -0.444444  0.250000      2.000000
  0.444444 -0.444444  0.250000      2.000000
 -0.444444 -0.444444  0.250000      2.000000
 -0.333333 -0.444444  0.250000      2.000000
 -0.222222 -0.444444  0.250000      2.000000
 -0.111111 -0.444444  0.250000      2.000000
  0.000000 -0.333333  0.250000      2.000000
  0.111111 -0.333333  0.250000      2.000000
  0.222222 -0.333333  0.250000      2.000000
  0.333333 -0.333333  0.250000      2.000000
  0.444444 -0.333333  0.250000      2.000000
 -0.444444 -0.333333  0.250000      2.000000
 -0.333333 -0.333333  0.250000      2.000000
 -0.222222 -0.333333  0.250000      2.000000
 -0.111111 -0.333333  0.250000      2.000000
 -0.000000 -0.222222  0.250000      2.000000
  0.111111 -0.222222  0.250000      2.000000
  0.222222 -0.222222  0.250000      2.000000
  0.333333 -0.222222  0.250000      2.000000
  0.444444 -0.222222  0.250000      2.000000
 -0.444444 -0.222222  0.250000      2.000000
 -0.333333 -0.222222  0.250000      2.000000
 -0.222222 -0.222222  0.250000      2.000000
 -0.111111 -0.222222  0.250000      2.000000
 -0.000000 -0.111111  0.250000      2.000000
  0.111111 -0.111111  0.250000      2.000000
  0.222222 -0.111111  0.250000      2.000000
  0.333333 -0.111111  0.250000      2.000000
  0.444444 -0.111111  0.250000      2.000000
 -0.444444 -0.111111  0.250000      2.000000
 -0.333333 -0.111111  0.250000      2.000000
 -0.222222 -0.111111  0.250000      2.000000
 -0.111111 -0.111111  0.250000      2.000000
  0.000000  0.000000  0.500000      1.000000
  0.111111  0.000000  0.500000      2.000000
  0.222222  0.000000  0.500000      2.000000
  0.333333  0.000000  0.500000      2.000000
  0.444444  0.000000  0.500000      2.000000
  0.000000  0.111111  0.500000      2.000000
  0.111111  0.111111  0.500000      2.000000
  0.222222  0.111111  0.500000      2.000000
  0.333333  0.111111  0.500000      2.000000
  0.444444  0.111111  0.500000      2.000000
 -0.444444  0.111111  0.500000      2.000000
 -0.333333  0.111111  0.500000      2.000000
 -0.222222  0.111111  0.500000      2.000000
 -0.111111  0.111111  0.500000      2.000000
  0.000000  0.222222  0.500000      2.000000
  0.111111  0.222222  0.500000      2.000000
  0.222222  0.222222  0.500000      2.000000
  0.333333  0.222222  0.500000      2.000000
  0.444444  0.222222  0.500000      2.000000
 -0.444444  0.222222  0.500000      2.000000
 -0.333333  0.222222  0.500000      2.000000
 -0.222222  0.222222  0.500000      2.000000
 -0.111111  0.222222  0.500000      2.000000
  0.000000  0.333333  0.500000      2.000000
  0.111111  0.333333  0.500000      2.000000
  0.222222  0.333333  0.500000      2.000000
  0.333333  0.333333  0.500000      2.000000
  0.444444  0.333333  0.500000      2.000000
 -0.444444  0.333333  0.500000      2.000000
 -0.333333  0.333333  0.500000      2.000000
 -0.222222  0.333333  0.500000      2.000000
 -0.111111  0.333333  0.500000      2.000000
  0.000000  0.444444  0.500000      2.000000
  0.111111  0.444444  0.500000      2.000000
  0.222222  0.444444  0.500000      2.000000
  0.333333  0.444444  0.500000      2.000000
  0.444444  0.444444  0.500000      2.000000
 -0.444444  0.444444  0.500000      2.000000
 -0.333333  0.444444  0.500000      2.000000
 -0.222222  0.444444  0.500000      2.000000
 -0.111111  0.444444  0.500000      2.000000
 
 Following cartesian coordinates:
            Coordinates               Weight
  0.000000  0.000000  0.000000      1.000000
  0.022530  0.013019  0.000000      2.000000
  0.045059  0.026038  0.000000      2.000000
  0.067589  0.039058  0.000000      2.000000
  0.090119  0.052077  0.000000      2.000000
  0.000010  0.026021  0.000000      2.000000
  0.022540  0.039040  0.000000      2.000000
  0.045069  0.052059  0.000000      2.000000
  0.067599  0.065079  0.000000      2.000000
  0.090129  0.078098  0.000000      2.000000
 -0.090109 -0.026056  0.000000      2.000000
 -0.067579 -0.013037  0.000000      2.000000
 -0.045049 -0.000018  0.000000      2.000000
 -0.022520  0.013002  0.000000      2.000000
  0.000020  0.052042  0.000000      2.000000
  0.022550  0.065061  0.000000      2.000000
  0.045080  0.078080  0.000000      2.000000
  0.067609  0.091099  0.000000      2.000000
  0.090139  0.104119  0.000000      2.000000
 -0.090098 -0.000035  0.000000      2.000000
 -0.067569  0.012984  0.000000      2.000000
 -0.045039  0.026003  0.000000      2.000000
 -0.022509  0.039023  0.000000      2.000000
  0.000030  0.078063  0.000000      2.000000
  0.022560  0.091082  0.000000      2.000000
  0.045090  0.104101  0.000000      2.000000
  0.067619  0.117120  0.000000      2.000000
  0.090149  0.130139  0.000000      2.000000
 -0.090088  0.025986  0.000000      2.000000
 -0.067559  0.039005  0.000000      2.000000
 -0.045029  0.052024  0.000000      2.000000
 -0.022499  0.065043  0.000000      2.000000
  0.000040  0.104084  0.000000      2.000000
  0.022570  0.117103  0.000000      2.000000
  0.045100  0.130122  0.000000      2.000000
  0.067630  0.143141  0.000000      2.000000
  0.090159  0.156160  0.000000      2.000000
 -0.090078  0.052007  0.000000      2.000000
 -0.067549  0.065026  0.000000      2.000000
 -0.045019  0.078045  0.000000      2.000000
 -0.022489  0.091064  0.000000      2.000000
  0.000000  0.000000  0.018300      2.000000
  0.022530  0.013019  0.018300      2.000000
  0.045059  0.026038  0.018300      2.000000
  0.067589  0.039058  0.018300      2.000000
  0.090119  0.052077  0.018300      2.000000
 -0.090119 -0.052077  0.018300      2.000000
 -0.067589 -0.039058  0.018300      2.000000
 -0.045059 -0.026038  0.018300      2.000000
 -0.022530 -0.013019  0.018300      2.000000
  0.000010  0.026021  0.018300      2.000000
  0.022540  0.039040  0.018300      2.000000
  0.045069  0.052059  0.018300      2.000000
  0.067599  0.065079  0.018300      2.000000
  0.090129  0.078098  0.018300      2.000000
 -0.090109 -0.026056  0.018300      2.000000
 -0.067579 -0.013037  0.018300      2.000000
 -0.045049 -0.000018  0.018300      2.000000
 -0.022520  0.013002  0.018300      2.000000
  0.000020  0.052042  0.018300      2.000000
  0.022550  0.065061  0.018300      2.000000
  0.045080  0.078080  0.018300      2.000000
  0.067609  0.091099  0.018300      2.000000
  0.090139  0.104119  0.018300      2.000000
 -0.090098 -0.000035  0.018300      2.000000
 -0.067569  0.012984  0.018300      2.000000
 -0.045039  0.026003  0.018300      2.000000
 -0.022509  0.039023  0.018300      2.000000
  0.000030  0.078063  0.018300      2.000000
  0.022560  0.091082  0.018300      2.000000
  0.045090  0.104101  0.018300      2.000000
  0.067619  0.117120  0.018300      2.000000
  0.090149  0.130139  0.018300      2.000000
 -0.090088  0.025986  0.018300      2.000000
 -0.067559  0.039005  0.018300      2.000000
 -0.045029  0.052024  0.018300      2.000000
 -0.022499  0.065043  0.018300      2.000000
  0.000040  0.104084  0.018300      2.000000
  0.022570  0.117103  0.018300      2.000000
  0.045100  0.130122  0.018300      2.000000
  0.067630  0.143141  0.018300      2.000000
  0.090159  0.156160  0.018300      2.000000
 -0.090078  0.052007  0.018300      2.000000
 -0.067549  0.065026  0.018300      2.000000
 -0.045019  0.078045  0.018300      2.000000
 -0.022489  0.091064  0.018300      2.000000
 -0.000040 -0.104084  0.018300      2.000000
  0.022489 -0.091064  0.018300      2.000000
  0.045019 -0.078045  0.018300      2.000000
  0.067549 -0.065026  0.018300      2.000000
  0.090078 -0.052007  0.018300      2.000000
 -0.090159 -0.156160  0.018300      2.000000
 -0.067630 -0.143141  0.018300      2.000000
 -0.045100 -0.130122  0.018300      2.000000
 -0.022570 -0.117103  0.018300      2.000000
 -0.000030 -0.078063  0.018300      2.000000
  0.022499 -0.065043  0.018300      2.000000
  0.045029 -0.052024  0.018300      2.000000
  0.067559 -0.039005  0.018300      2.000000
  0.090088 -0.025986  0.018300      2.000000
 -0.090149 -0.130139  0.018300      2.000000
 -0.067619 -0.117120  0.018300      2.000000
 -0.045090 -0.104101  0.018300      2.000000
 -0.022560 -0.091082  0.018300      2.000000
 -0.000020 -0.052042  0.018300      2.000000
  0.022509 -0.039023  0.018300      2.000000
  0.045039 -0.026003  0.018300      2.000000
  0.067569 -0.012984  0.018300      2.000000
  0.090098  0.000035  0.018300      2.000000
 -0.090139 -0.104119  0.018300      2.000000
 -0.067609 -0.091099  0.018300      2.000000
 -0.045080 -0.078080  0.018300      2.000000
 -0.022550 -0.065061  0.018300      2.000000
 -0.000010 -0.026021  0.018300      2.000000
  0.022520 -0.013002  0.018300      2.000000
  0.045049  0.000018  0.018300      2.000000
  0.067579  0.013037  0.018300      2.000000
  0.090109  0.026056  0.018300      2.000000
 -0.090129 -0.078098  0.018300      2.000000
 -0.067599 -0.065079  0.018300      2.000000
 -0.045069 -0.052059  0.018300      2.000000
 -0.022540 -0.039040  0.018300      2.000000
  0.000000  0.000000  0.036599      1.000000
  0.022530  0.013019  0.036599      2.000000
  0.045059  0.026038  0.036599      2.000000
  0.067589  0.039058  0.036599      2.000000
  0.090119  0.052077  0.036599      2.000000
  0.000010  0.026021  0.036599      2.000000
  0.022540  0.039040  0.036599      2.000000
  0.045069  0.052059  0.036599      2.000000
  0.067599  0.065079  0.036599      2.000000
  0.090129  0.078098  0.036599      2.000000
 -0.090109 -0.026056  0.036599      2.000000
 -0.067579 -0.013037  0.036599      2.000000
 -0.045049 -0.000018  0.036599      2.000000
 -0.022520  0.013002  0.036599      2.000000
  0.000020  0.052042  0.036599      2.000000
  0.022550  0.065061  0.036599      2.000000
  0.045080  0.078080  0.036599      2.000000
  0.067609  0.091099  0.036599      2.000000
  0.090139  0.104119  0.036599      2.000000
 -0.090098 -0.000035  0.036599      2.000000
 -0.067569  0.012984  0.036599      2.000000
 -0.045039  0.026003  0.036599      2.000000
 -0.022509  0.039023  0.036599      2.000000
  0.000030  0.078063  0.036599      2.000000
  0.022560  0.091082  0.036599      2.000000
  0.045090  0.104101  0.036599      2.000000
  0.067619  0.117120  0.036599      2.000000
  0.090149  0.130139  0.036599      2.000000
 -0.090088  0.025986  0.036599      2.000000
 -0.067559  0.039005  0.036599      2.000000
 -0.045029  0.052024  0.036599      2.000000
 -0.022499  0.065043  0.036599      2.000000
  0.000040  0.104084  0.036599      2.000000
  0.022570  0.117103  0.036599      2.000000
  0.045100  0.130122  0.036599      2.000000
  0.067630  0.143141  0.036599      2.000000
  0.090159  0.156160  0.036599      2.000000
 -0.090078  0.052007  0.036599      2.000000
 -0.067549  0.065026  0.036599      2.000000
 -0.045019  0.078045  0.036599      2.000000
 -0.022489  0.091064  0.036599      2.000000
 
 TETIRR: Found    970 inequivalent tetrahedra from     1944


--------------------------------------------------------------------------------------------------------




 Dimension of arrays:
   k-points           NKPTS =    163   k-points in BZ     NKDIM =    163   number of bands    NBANDS=     82
   number of dos      NEDOS =    301   number of ions     NIONS =     32
   non local maximal  LDIM  =      4   non local SUM 2l+1 LMDIM =      8
   total plane-waves  NPLWV = 179200
   max r-space proj   IRMAX =      1   max aug-charges    IRDMAX=   7548
   dimension x,y,z NGX =    40 NGY =   40 NGZ =  112
   dimension x,y,z NGXF=    80 NGYF=   80 NGZF=  224
   support grid    NGXF=    80 NGYF=   80 NGZF=  224
   ions per type =              32
 NGX,Y,Z   is equivalent  to a cutoff of  13.48, 13.48, 13.63 a.u.
 NGXF,Y,Z  is equivalent  to a cutoff of  26.96, 26.96, 27.26 a.u.


 I would recommend the setting:
   dimension x,y,z NGX =    39 NGY =   39 NGZ =  109
 SYSTEM =  graphite                                
 POSCAR =  C                                       

 Startparameter for this run:
   NWRITE =      2    write-flag & timer
   PREC   = accura    normal or accurate (medium, high low for compatibility)
   ISTART =      0    job   : 0-new  1-cont  2-samecut
   ICHARG =      2    charge: 1-file 2-atom 10-const
   ISPIN  =      1    spin polarized calculation?
   LNONCOLLINEAR =      F non collinear calculations
   LSORBIT =      F    spin-orbit coupling
   INIWAV =      1    electr: 0-lowe 1-rand  2-diag
   LASPH  =      F    aspherical Exc in radial PAW
   METAGGA=      F    non-selfconsistent MetaGGA calc.

 Electronic Relaxation 1
   ENCUT  =  600.0 eV  44.10 Ry    6.64 a.u.   9.85  9.85 27.29*2*pi/ulx,y,z
   ENINI  =  600.0     initial cutoff
   ENAUG  =  644.9 eV  augmentation charge cutoff
   NELM   =    200;   NELMIN=  2; NELMDL=  0     # of ELM steps 
   EDIFF  = 0.1E-05   stopping-criterion for ELM
   LREAL  =      F    real-space projection
   NLSPLINE    = F    spline interpolate recip. space projectors
   LCOMPAT=      F    compatible to vasp.4.4
   GGA_COMPAT  = T    GGA compatible to vasp.4.4-vasp.4.6
   LMAXPAW     = -100 max onsite density
   LMAXMIX     =    2 max onsite mixed and CHGCAR
   VOSKOWN=      0    Vosko Wilk Nusair interpolation
   ROPT   =    0.00000
 Ionic relaxation
   EDIFFG = 0.1E-02   stopping-criterion for IOM
   NSW    =      0    number of steps for IOM
   NBLOCK =      1;   KBLOCK =      1    inner block; outer block 
   IBRION =     -1    ionic relax: 0-MD 1-quasi-New 2-CG
   NFREE  =      0    steps in history (QN), initial steepest desc. (CG)
   ISIF   =      2    stress and relaxation
   IWAVPR =     10    prediction:  0-non 1-charg 2-wave 3-comb
   ISYM   =      2    0-nonsym 1-usesym 2-fastsym
   LCORR  =      T    Harris-Foulkes like correction to forces

   POTIM  = 0.5000    time-step for ionic-motion
   TEIN   =    0.0    initial temperature
   TEBEG  =    0.0;   TEEND  =   0.0 temperature during run
   SMASS  =  -3.00    Nose mass-parameter (am)
   estimated Nose-frequenzy (Omega)   =  0.10E-29 period in steps =****** mass=  -0.556E-27a.u.
   SCALEE = 1.0000    scale energy and forces
   NPACO  =    256;   APACO  = 16.0  distance and # of slots for P.C.
   PSTRESS=    0.0 pullay stress

  Mass of Ions in am
   POMASS =  12.01
  Ionic Valenz
   ZVAL   =   4.00
  Atomic Wigner-Seitz radii
   RWIGS  =  -1.00
  virtual crystal weights 
   VCA    =   1.00
   NELECT =     128.0000    total number of electrons
   NUPDOWN=      -1.0000    fix difference up-down

 DOS related values:
   EMIN   =  10.00;   EMAX   =-10.00  energy-range for DOS
   EFERMI =   0.00
   ISMEAR =    -5;   SIGMA  =   0.20  broadening in eV -4-tet -1-fermi 0-gaus

 Electronic relaxation 2 (details)
   IALGO  =     38    algorithm
   LDIAG  =      T    sub-space diagonalisation (order eigenvalues)
   LSUBROT=      F    optimize rotation matrix (better conditioning)
   TURBO    =      0    0=normal 1=particle mesh
   IRESTART =      0    0=no restart 2=restart with 2 vectors
   NREBOOT  =      0    no. of reboots
   NMIN     =      0    reboot dimension
   EREF     =   0.00    reference energy to select bands
   IMIX   =      4    mixing-type and parameters
     AMIX     =   0.40;   BMIX     =  1.00
     AMIX_MAG =   1.60;   BMIX_MAG =  1.00
     AMIN     =   0.10
     WC   =   100.;   INIMIX=   1;  MIXPRE=   1;  MAXMIX= -45

 Intra band minimization:
   WEIMIN = 0.0000     energy-eigenvalue tresh-hold
   EBREAK =  0.30E-08  absolut break condition
   DEPER  =   0.30     relativ break condition  

   TIME   =   0.40     timestep for ELM

  volume/ion in A,a.u.               =       8.99        60.68
  Fermi-wavevector in a.u.,A,eV,Ry     =   1.249687  2.361566 21.248450  1.561717
  Thomas-Fermi vector in A             =   2.383716
 
 Write flags
   LWAVE  =      F    write WAVECAR
   LCHARG =      F    write CHGCAR
   LVTOT  =      F    write LOCPOT, total local potential
   LVHAR  =      F    write LOCPOT, Hartree potential only
   LELF   =      F    write electronic localiz. function (ELF)
   LORBIT =      0    0 simple, 1 ext, 2 COOP (PROOUT)


 Dipole corrections
   LMONO  =      F    monopole corrections only (constant potential shift)
   LDIPOL =      F    correct potential (dipole corrections)
   IDIPOL =      0    1-x, 2-y, 3-z, 4-all directions 
   EPSILON=  1.0000000 bulk dielectric constant

 Exchange correlation treatment:
   GGA     =    PE    GGA type
   LEXCH   =     8    internal setting for exchange type
   VOSKOWN=      0    Vosko Wilk Nusair interpolation
   LHFCALC =     F    Hartree Fock is set to
   LHFONE  =     F    Hartree Fock one center treatment
   AEXX    =    0.0000 exact exchange contribution

 Linear response parameters
   LEPSILON=     F    determine dielectric tensor
   LRPA    =     F    only Hartree local field effects (RPA)
   LNABLA  =     F    use nabla operator in PAW spheres
   LVEL    =     F    velocity operator in full k-point grid
   LINTERFAST=   F  fast interpolation
   KINTER  =     0    interpolate to denser k-point grid
   CSHIFT  =0.1000    complex shift for real part using Kramers Kronig
   OMEGAMAX=  -1.0    maximum frequency
   DEG_THRESHOLD= 0.2000000E-02 threshold for treating states as degnerate
   RTIME   =    0.100 relaxation time in fs

 Orbital magnetization related:
   ORBITALMAG=     F  switch on orbital magnetization
   LCHIMAG   =     F  perturbation theory with respect to B field
   DQ        =  0.001000  dq finite difference perturbation B field



--------------------------------------------------------------------------------------------------------


 Static calculation
 charge density and potential will be updated during run
 non-spin polarized calculation
 Variant of blocked Davidson
 Davidson routine will perform the subspace rotation
 perform sub-space diagonalisation
    after iterative eigenvector-optimisation
 modified Broyden-mixing scheme, WC =      100.0
 initial mixing is a Kerker type mixing with AMIX =  0.4000 and BMIX =      1.0000
 Hartree-type preconditioning will be used
 using additional bands           18
 reciprocal scheme for non local part
 calculate Harris-corrections to forces 
   (improved forces if not selfconsistent)
 use gradient corrections 
 use of overlap-Matrix (Vanderbilt PP)
 Fermi weights with tetrahedron method with Bloechl corrections


--------------------------------------------------------------------------------------------------------


  energy-cutoff  :      600.00
  volume of cell :      287.76
      direct lattice vectors                 reciprocal lattice vectors
     4.932874498 -0.001919286  0.000000000     0.202767147  0.117172881  0.000000000
    -2.468099399  4.271034986  0.000000000     0.000091118  0.234187941  0.000000000
     0.000000000  0.000000000 13.661406500     0.000000000  0.000000000  0.073198905

  length of vectors
     4.932874871  4.932874871 13.661406500     0.234187958  0.234187958  0.073198905


 
 k-points in units of 2pi/SCALE and weight: B4C B11C-CBC                            
   0.00000000  0.00000000  0.00000000       0.003
   0.02252968  0.01301921  0.00000000       0.006
   0.04505937  0.02603842  0.00000000       0.006
   0.06758905  0.03905763  0.00000000       0.006
   0.09011873  0.05207684  0.00000000       0.006
   0.00001012  0.02602088  0.00000000       0.006
   0.02253981  0.03904009  0.00000000       0.006
   0.04506949  0.05205930  0.00000000       0.006
   0.06759917  0.06507851  0.00000000       0.006
   0.09012886  0.07809772  0.00000000       0.006
  -0.09010861 -0.02605595  0.00000000       0.006
  -0.06757892 -0.01303674  0.00000000       0.006
  -0.04504924 -0.00001754  0.00000000       0.006
  -0.02251956  0.01300167  0.00000000       0.006
   0.00002025  0.05204176  0.00000000       0.006
   0.02254993  0.06506097  0.00000000       0.006
   0.04507961  0.07808018  0.00000000       0.006
   0.06760930  0.09109939  0.00000000       0.006
   0.09013898  0.10411860  0.00000000       0.006
  -0.09009848 -0.00003507  0.00000000       0.006
  -0.06756880  0.01298414  0.00000000       0.006
  -0.04503912  0.02600335  0.00000000       0.006
  -0.02250943  0.03902256  0.00000000       0.006
   0.00003037  0.07806265  0.00000000       0.006
   0.02256006  0.09108186  0.00000000       0.006
   0.04508974  0.10410106  0.00000000       0.006
   0.06761942  0.11712027  0.00000000       0.006
   0.09014910  0.13013948  0.00000000       0.006
  -0.09008836  0.02598581  0.00000000       0.006
  -0.06755868  0.03900502  0.00000000       0.006
  -0.04502899  0.05202423  0.00000000       0.006
  -0.02249931  0.06504344  0.00000000       0.006
   0.00004050  0.10408353  0.00000000       0.006
   0.02257018  0.11710274  0.00000000       0.006
   0.04509986  0.13012195  0.00000000       0.006
   0.06762955  0.14314116  0.00000000       0.006
   0.09015923  0.15616037  0.00000000       0.006
  -0.09007824  0.05200669  0.00000000       0.006
  -0.06754855  0.06502590  0.00000000       0.006
  -0.04501887  0.07804511  0.00000000       0.006
  -0.02248919  0.09106432  0.00000000       0.006
   0.00000000  0.00000000  0.01829973       0.006
   0.02252968  0.01301921  0.01829973       0.006
   0.04505937  0.02603842  0.01829973       0.006
   0.06758905  0.03905763  0.01829973       0.006
   0.09011873  0.05207684  0.01829973       0.006
  -0.09011873 -0.05207684  0.01829973       0.006
  -0.06758905 -0.03905763  0.01829973       0.006
  -0.04505937 -0.02603842  0.01829973       0.006
  -0.02252968 -0.01301921  0.01829973       0.006
   0.00001012  0.02602088  0.01829973       0.006
   0.02253981  0.03904009  0.01829973       0.006
   0.04506949  0.05205930  0.01829973       0.006
   0.06759917  0.06507851  0.01829973       0.006
   0.09012886  0.07809772  0.01829973       0.006
  -0.09010861 -0.02605595  0.01829973       0.006
  -0.06757892 -0.01303674  0.01829973       0.006
  -0.04504924 -0.00001754  0.01829973       0.006
  -0.02251956  0.01300167  0.01829973       0.006
   0.00002025  0.05204176  0.01829973       0.006
   0.02254993  0.06506097  0.01829973       0.006
   0.04507961  0.07808018  0.01829973       0.006
   0.06760930  0.09109939  0.01829973       0.006
   0.09013898  0.10411860  0.01829973       0.006
  -0.09009848 -0.00003507  0.01829973       0.006
  -0.06756880  0.01298414  0.01829973       0.006
  -0.04503912  0.02600335  0.01829973       0.006
  -0.02250943  0.03902256  0.01829973       0.006
   0.00003037  0.07806265  0.01829973       0.006
   0.02256006  0.09108186  0.01829973       0.006
   0.04508974  0.10410106  0.01829973       0.006
   0.06761942  0.11712027  0.01829973       0.006
   0.09014910  0.13013948  0.01829973       0.006
  -0.09008836  0.02598581  0.01829973       0.006
  -0.06755868  0.03900502  0.01829973       0.006
  -0.04502899  0.05202423  0.01829973       0.006
  -0.02249931  0.06504344  0.01829973       0.006
   0.00004050  0.10408353  0.01829973       0.006
   0.02257018  0.11710274  0.01829973       0.006
   0.04509986  0.13012195  0.01829973       0.006
   0.06762955  0.14314116  0.01829973       0.006
   0.09015923  0.15616037  0.01829973       0.006
  -0.09007824  0.05200669  0.01829973       0.006
  -0.06754855  0.06502590  0.01829973       0.006
  -0.04501887  0.07804511  0.01829973       0.006
  -0.02248919  0.09106432  0.01829973       0.006
  -0.00004050 -0.10408353  0.01829973       0.006
   0.02248919 -0.09106432  0.01829973       0.006
   0.04501887 -0.07804511  0.01829973       0.006
   0.06754855 -0.06502590  0.01829973       0.006
   0.09007824 -0.05200669  0.01829973       0.006
  -0.09015923 -0.15616037  0.01829973       0.006
  -0.06762955 -0.14314116  0.01829973       0.006
  -0.04509986 -0.13012195  0.01829973       0.006
  -0.02257018 -0.11710274  0.01829973       0.006
  -0.00003037 -0.07806265  0.01829973       0.006
   0.02249931 -0.06504344  0.01829973       0.006
   0.04502899 -0.05202423  0.01829973       0.006
   0.06755868 -0.03900502  0.01829973       0.006
   0.09008836 -0.02598581  0.01829973       0.006
  -0.09014910 -0.13013948  0.01829973       0.006
  -0.06761942 -0.11712027  0.01829973       0.006
  -0.04508974 -0.10410106  0.01829973       0.006
  -0.02256006 -0.09108186  0.01829973       0.006
  -0.00002025 -0.05204176  0.01829973       0.006
   0.02250943 -0.03902256  0.01829973       0.006
   0.04503912 -0.02600335  0.01829973       0.006
   0.06756880 -0.01298414  0.01829973       0.006
   0.09009848  0.00003507  0.01829973       0.006
  -0.09013898 -0.10411860  0.01829973       0.006
  -0.06760930 -0.09109939  0.01829973       0.006
  -0.04507961 -0.07808018  0.01829973       0.006
  -0.02254993 -0.06506097  0.01829973       0.006
  -0.00001012 -0.02602088  0.01829973       0.006
   0.02251956 -0.01300167  0.01829973       0.006
   0.04504924  0.00001754  0.01829973       0.006
   0.06757892  0.01303674  0.01829973       0.006
   0.09010861  0.02605595  0.01829973       0.006
  -0.09012886 -0.07809772  0.01829973       0.006
  -0.06759917 -0.06507851  0.01829973       0.006
  -0.04506949 -0.05205930  0.01829973       0.006
  -0.02253981 -0.03904009  0.01829973       0.006
   0.00000000  0.00000000  0.03659945       0.003
   0.02252968  0.01301921  0.03659945       0.006
   0.04505937  0.02603842  0.03659945       0.006
   0.06758905  0.03905763  0.03659945       0.006
   0.09011873  0.05207684  0.03659945       0.006
   0.00001012  0.02602088  0.03659945       0.006
   0.02253981  0.03904009  0.03659945       0.006
   0.04506949  0.05205930  0.03659945       0.006
   0.06759917  0.06507851  0.03659945       0.006
   0.09012886  0.07809772  0.03659945       0.006
  -0.09010861 -0.02605595  0.03659945       0.006
  -0.06757892 -0.01303674  0.03659945       0.006
  -0.04504924 -0.00001754  0.03659945       0.006
  -0.02251956  0.01300167  0.03659945       0.006
   0.00002025  0.05204176  0.03659945       0.006
   0.02254993  0.06506097  0.03659945       0.006
   0.04507961  0.07808018  0.03659945       0.006
   0.06760930  0.09109939  0.03659945       0.006
   0.09013898  0.10411860  0.03659945       0.006
  -0.09009848 -0.00003507  0.03659945       0.006
  -0.06756880  0.01298414  0.03659945       0.006
  -0.04503912  0.02600335  0.03659945       0.006
  -0.02250943  0.03902256  0.03659945       0.006
   0.00003037  0.07806265  0.03659945       0.006
   0.02256006  0.09108186  0.03659945       0.006
   0.04508974  0.10410106  0.03659945       0.006
   0.06761942  0.11712027  0.03659945       0.006
   0.09014910  0.13013948  0.03659945       0.006
  -0.09008836  0.02598581  0.03659945       0.006
  -0.06755868  0.03900502  0.03659945       0.006
  -0.04502899  0.05202423  0.03659945       0.006
  -0.02249931  0.06504344  0.03659945       0.006
   0.00004050  0.10408353  0.03659945       0.006
   0.02257018  0.11710274  0.03659945       0.006
   0.04509986  0.13012195  0.03659945       0.006
   0.06762955  0.14314116  0.03659945       0.006
   0.09015923  0.15616037  0.03659945       0.006
  -0.09007824  0.05200669  0.03659945       0.006
  -0.06754855  0.06502590  0.03659945       0.006
  -0.04501887  0.07804511  0.03659945       0.006
  -0.02248919  0.09106432  0.03659945       0.006
 
 k-points in reciprocal lattice and weights: B4C B11C-CBC                            
   0.00000000  0.00000000  0.00000000       0.003
   0.11111111  0.00000000  0.00000000       0.006
   0.22222222  0.00000000  0.00000000       0.006
   0.33333333  0.00000000  0.00000000       0.006
   0.44444444  0.00000000  0.00000000       0.006
   0.00000000  0.11111111  0.00000000       0.006
   0.11111111  0.11111111  0.00000000       0.006
   0.22222222  0.11111111  0.00000000       0.006
   0.33333333  0.11111111  0.00000000       0.006
   0.44444444  0.11111111  0.00000000       0.006
  -0.44444444  0.11111111  0.00000000       0.006
  -0.33333333  0.11111111  0.00000000       0.006
  -0.22222222  0.11111111  0.00000000       0.006
  -0.11111111  0.11111111  0.00000000       0.006
   0.00000000  0.22222222  0.00000000       0.006
   0.11111111  0.22222222  0.00000000       0.006
   0.22222222  0.22222222  0.00000000       0.006
   0.33333333  0.22222222  0.00000000       0.006
   0.44444444  0.22222222  0.00000000       0.006
  -0.44444444  0.22222222  0.00000000       0.006
  -0.33333333  0.22222222  0.00000000       0.006
  -0.22222222  0.22222222  0.00000000       0.006
  -0.11111111  0.22222222  0.00000000       0.006
   0.00000000  0.33333333  0.00000000       0.006
   0.11111111  0.33333333  0.00000000       0.006
   0.22222222  0.33333333  0.00000000       0.006
   0.33333333  0.33333333  0.00000000       0.006
   0.44444444  0.33333333  0.00000000       0.006
  -0.44444444  0.33333333  0.00000000       0.006
  -0.33333333  0.33333333  0.00000000       0.006
  -0.22222222  0.33333333  0.00000000       0.006
  -0.11111111  0.33333333  0.00000000       0.006
   0.00000000  0.44444444  0.00000000       0.006
   0.11111111  0.44444444  0.00000000       0.006
   0.22222222  0.44444444  0.00000000       0.006
   0.33333333  0.44444444  0.00000000       0.006
   0.44444444  0.44444444  0.00000000       0.006
  -0.44444444  0.44444444  0.00000000       0.006
  -0.33333333  0.44444444  0.00000000       0.006
  -0.22222222  0.44444444  0.00000000       0.006
  -0.11111111  0.44444444  0.00000000       0.006
   0.00000000  0.00000000  0.25000000       0.006
   0.11111111  0.00000000  0.25000000       0.006
   0.22222222  0.00000000  0.25000000       0.006
   0.33333333  0.00000000  0.25000000       0.006
   0.44444444  0.00000000  0.25000000       0.006
  -0.44444444  0.00000000  0.25000000       0.006
  -0.33333333  0.00000000  0.25000000       0.006
  -0.22222222  0.00000000  0.25000000       0.006
  -0.11111111  0.00000000  0.25000000       0.006
   0.00000000  0.11111111  0.25000000       0.006
   0.11111111  0.11111111  0.25000000       0.006
   0.22222222  0.11111111  0.25000000       0.006
   0.33333333  0.11111111  0.25000000       0.006
   0.44444444  0.11111111  0.25000000       0.006
  -0.44444444  0.11111111  0.25000000       0.006
  -0.33333333  0.11111111  0.25000000       0.006
  -0.22222222  0.11111111  0.25000000       0.006
  -0.11111111  0.11111111  0.25000000       0.006
   0.00000000  0.22222222  0.25000000       0.006
   0.11111111  0.22222222  0.25000000       0.006
   0.22222222  0.22222222  0.25000000       0.006
   0.33333333  0.22222222  0.25000000       0.006
   0.44444444  0.22222222  0.25000000       0.006
  -0.44444444  0.22222222  0.25000000       0.006
  -0.33333333  0.22222222  0.25000000       0.006
  -0.22222222  0.22222222  0.25000000       0.006
  -0.11111111  0.22222222  0.25000000       0.006
   0.00000000  0.33333333  0.25000000       0.006
   0.11111111  0.33333333  0.25000000       0.006
   0.22222222  0.33333333  0.25000000       0.006
   0.33333333  0.33333333  0.25000000       0.006
   0.44444444  0.33333333  0.25000000       0.006
  -0.44444444  0.33333333  0.25000000       0.006
  -0.33333333  0.33333333  0.25000000       0.006
  -0.22222222  0.33333333  0.25000000       0.006
  -0.11111111  0.33333333  0.25000000       0.006
   0.00000000  0.44444444  0.25000000       0.006
   0.11111111  0.44444444  0.25000000       0.006
   0.22222222  0.44444444  0.25000000       0.006
   0.33333333  0.44444444  0.25000000       0.006
   0.44444444  0.44444444  0.25000000       0.006
  -0.44444444  0.44444444  0.25000000       0.006
  -0.33333333  0.44444444  0.25000000       0.006
  -0.22222222  0.44444444  0.25000000       0.006
  -0.11111111  0.44444444  0.25000000       0.006
  -0.00000000 -0.44444444  0.25000000       0.006
   0.11111111 -0.44444444  0.25000000       0.006
   0.22222222 -0.44444444  0.25000000       0.006
   0.33333333 -0.44444444  0.25000000       0.006
   0.44444444 -0.44444444  0.25000000       0.006
  -0.44444444 -0.44444444  0.25000000       0.006
  -0.33333333 -0.44444444  0.25000000       0.006
  -0.22222222 -0.44444444  0.25000000       0.006
  -0.11111111 -0.44444444  0.25000000       0.006
   0.00000000 -0.33333333  0.25000000       0.006
   0.11111111 -0.33333333  0.25000000       0.006
   0.22222222 -0.33333333  0.25000000       0.006
   0.33333333 -0.33333333  0.25000000       0.006
   0.44444444 -0.33333333  0.25000000       0.006
  -0.44444444 -0.33333333  0.25000000       0.006
  -0.33333333 -0.33333333  0.25000000       0.006
  -0.22222222 -0.33333333  0.25000000       0.006
  -0.11111111 -0.33333333  0.25000000       0.006
  -0.00000000 -0.22222222  0.25000000       0.006
   0.11111111 -0.22222222  0.25000000       0.006
   0.22222222 -0.22222222  0.25000000       0.006
   0.33333333 -0.22222222  0.25000000       0.006
   0.44444444 -0.22222222  0.25000000       0.006
  -0.44444444 -0.22222222  0.25000000       0.006
  -0.33333333 -0.22222222  0.25000000       0.006
  -0.22222222 -0.22222222  0.25000000       0.006
  -0.11111111 -0.22222222  0.25000000       0.006
  -0.00000000 -0.11111111  0.25000000       0.006
   0.11111111 -0.11111111  0.25000000       0.006
   0.22222222 -0.11111111  0.25000000       0.006
   0.33333333 -0.11111111  0.25000000       0.006
   0.44444444 -0.11111111  0.25000000       0.006
  -0.44444444 -0.11111111  0.25000000       0.006
  -0.33333333 -0.11111111  0.25000000       0.006
  -0.22222222 -0.11111111  0.25000000       0.006
  -0.11111111 -0.11111111  0.25000000       0.006
   0.00000000  0.00000000  0.50000000       0.003
   0.11111111  0.00000000  0.50000000       0.006
   0.22222222  0.00000000  0.50000000       0.006
   0.33333333  0.00000000  0.50000000       0.006
   0.44444444  0.00000000  0.50000000       0.006
   0.00000000  0.11111111  0.50000000       0.006
   0.11111111  0.11111111  0.50000000       0.006
   0.22222222  0.11111111  0.50000000       0.006
   0.33333333  0.11111111  0.50000000       0.006
   0.44444444  0.11111111  0.50000000       0.006
  -0.44444444  0.11111111  0.50000000       0.006
  -0.33333333  0.11111111  0.50000000       0.006
  -0.22222222  0.11111111  0.50000000       0.006
  -0.11111111  0.11111111  0.50000000       0.006
   0.00000000  0.22222222  0.50000000       0.006
   0.11111111  0.22222222  0.50000000       0.006
   0.22222222  0.22222222  0.50000000       0.006
   0.33333333  0.22222222  0.50000000       0.006
   0.44444444  0.22222222  0.50000000       0.006
  -0.44444444  0.22222222  0.50000000       0.006
  -0.33333333  0.22222222  0.50000000       0.006
  -0.22222222  0.22222222  0.50000000       0.006
  -0.11111111  0.22222222  0.50000000       0.006
   0.00000000  0.33333333  0.50000000       0.006
   0.11111111  0.33333333  0.50000000       0.006
   0.22222222  0.33333333  0.50000000       0.006
   0.33333333  0.33333333  0.50000000       0.006
   0.44444444  0.33333333  0.50000000       0.006
  -0.44444444  0.33333333  0.50000000       0.006
  -0.33333333  0.33333333  0.50000000       0.006
  -0.22222222  0.33333333  0.50000000       0.006
  -0.11111111  0.33333333  0.50000000       0.006
   0.00000000  0.44444444  0.50000000       0.006
   0.11111111  0.44444444  0.50000000       0.006
   0.22222222  0.44444444  0.50000000       0.006
   0.33333333  0.44444444  0.50000000       0.006
   0.44444444  0.44444444  0.50000000       0.006
  -0.44444444  0.44444444  0.50000000       0.006
  -0.33333333  0.44444444  0.50000000       0.006
  -0.22222222  0.44444444  0.50000000       0.006
  -0.11111111  0.44444444  0.50000000       0.006
 
 position of ions in fractional coordinates (direct lattice) 
   0.50036179  0.00032672  0.12568848
   0.99967330  0.00032672  0.12500000
   0.49967330  0.50032672  0.12500000
   0.99967330  0.50032672  0.12500000
   0.49967330  0.00032672  0.62500000
   0.99967330  0.00032672  0.62500000
   0.49967330  0.50032672  0.62500000
   0.99967330  0.50032672  0.62500000
   0.00032672  0.49967330  0.37500000
   0.50032672  0.49967330  0.37500000
   0.00032672  0.99967330  0.37500000
   0.50032672  0.99967330  0.37500000
   0.00032672  0.49967330  0.87500000
   0.50032672  0.49967330  0.87500000
   0.00032672  0.99967330  0.87500000
   0.50032672  0.99967330  0.87500000
   0.16629246  0.33370753  0.12500000
   0.66629246  0.33370753  0.12500000
   0.16629246  0.83370753  0.12500000
   0.66629246  0.83370753  0.12500000
   0.16629246  0.33370753  0.62500000
   0.66629246  0.33370753  0.62500000
   0.16629246  0.83370753  0.62500000
   0.66629246  0.83370753  0.62500000
   0.33370753  0.16629246  0.37500000
   0.83370753  0.16629246  0.37500000
   0.33370753  0.66629246  0.37500000
   0.83370753  0.66629246  0.37500000
   0.33370753  0.16629246  0.87500000
   0.83370753  0.16629246  0.87500000
   0.33370753  0.66629246  0.87500000
   0.83370753  0.66629246  0.87500000
 
 position of ions in cartesian coordinates  (Angst):
   2.46741552  0.00043509  1.71708144
   4.93045658 -0.00052323  1.70767581
   1.22996963  2.13595390  1.70767581
   3.69640688  2.13499426  1.70767581
   2.46401933  0.00043641  8.53837906
   4.93045658 -0.00052323  8.53837906
   1.22996963  2.13595390  8.53837906
   3.69640688  2.13499426  8.53837906
  -1.23163172  2.13412154  5.12302744
   1.23480553  2.13316189  5.12302744
  -2.46568142  4.26963903  5.12302744
   0.00075583  4.26867939  5.12302744
  -1.23163172  2.13412154 11.95373069
   1.23480553  2.13316189 11.95373069
  -2.46568142  4.26963903 11.95373069
   0.00075583  4.26867939 11.95373069
  -0.00332350  1.42495737  1.70767581
   2.46311374  1.42399773  1.70767581
  -1.23737320  3.56047486  1.70767581
   1.22906405  3.55951522  1.70767581
  -0.00332350  1.42495737  8.53837906
   2.46311374  1.42399773  8.53837906
  -1.23737320  3.56047486  8.53837906
   1.22906405  3.55951522  8.53837906
   1.23571103  0.70960044  5.12302744
   3.70214828  0.70864080  5.12302744
   0.00166133  2.84511794  5.12302744
   2.46809858  2.84415829  5.12302744
   1.23571103  0.70960044 11.95373069
   3.70214828  0.70864080 11.95373069
   0.00166133  2.84511794 11.95373069
   2.46809858  2.84415829 11.95373069
 


--------------------------------------------------------------------------------------------------------


 k-point  1 :   0.0000 0.0000 0.0000  plane waves:    9527
 k-point  2 :   0.1111 0.0000 0.0000  plane waves:    9579
 k-point  3 :   0.2222 0.0000 0.0000  plane waves:    9605
 k-point  4 :   0.3333 0.0000 0.0000  plane waves:    9605
 k-point  5 :   0.4444 0.0000 0.0000  plane waves:    9633
 k-point  6 :   0.0000 0.1111 0.0000  plane waves:    9579
 k-point  7 :   0.1111 0.1111 0.0000  plane waves:    9582
 k-point  8 :   0.2222 0.1111 0.0000  plane waves:    9606
 k-point  9 :   0.3333 0.1111 0.0000  plane waves:    9612
 k-point 10 :   0.4444 0.1111 0.0000  plane waves:    9610
 k-point 11 :  -0.4444 0.1111 0.0000  plane waves:    9606
 k-point 12 :  -0.3333 0.1111 0.0000  plane waves:    9606
 k-point 13 :  -0.2222 0.1111 0.0000  plane waves:    9584
 k-point 14 :  -0.1111 0.1111 0.0000  plane waves:    9575
 k-point 15 :   0.0000 0.2222 0.0000  plane waves:    9605
 k-point 16 :   0.1111 0.2222 0.0000  plane waves:    9606
 k-point 17 :   0.2222 0.2222 0.0000  plane waves:    9608
 k-point 18 :   0.3333 0.2222 0.0000  plane waves:    9600
 k-point 19 :   0.4444 0.2222 0.0000  plane waves:    9604
 k-point 20 :  -0.4444 0.2222 0.0000  plane waves:    9604
 k-point 21 :  -0.3333 0.2222 0.0000  plane waves:    9608
 k-point 22 :  -0.2222 0.2222 0.0000  plane waves:    9609
 k-point 23 :  -0.1111 0.2222 0.0000  plane waves:    9584
 k-point 24 :   0.0000 0.3333 0.0000  plane waves:    9605
 k-point 25 :   0.1111 0.3333 0.0000  plane waves:    9612
 k-point 26 :   0.2222 0.3333 0.0000  plane waves:    9600
 k-point 27 :   0.3333 0.3333 0.0000  plane waves:    9640
 k-point 28 :   0.4444 0.3333 0.0000  plane waves:    9604
 k-point 29 :  -0.4444 0.3333 0.0000  plane waves:    9612
 k-point 30 :  -0.3333 0.3333 0.0000  plane waves:    9605
 k-point 31 :  -0.2222 0.3333 0.0000  plane waves:    9608
 k-point 32 :  -0.1111 0.3333 0.0000  plane waves:    9606
 k-point 33 :   0.0000 0.4444 0.0000  plane waves:    9633
 k-point 34 :   0.1111 0.4444 0.0000  plane waves:    9610
 k-point 35 :   0.2222 0.4444 0.0000  plane waves:    9604
 k-point 36 :   0.3333 0.4444 0.0000  plane waves:    9604
 k-point 37 :   0.4444 0.4444 0.0000  plane waves:    9616
 k-point 38 :  -0.4444 0.4444 0.0000  plane waves:    9635
 k-point 39 :  -0.3333 0.4444 0.0000  plane waves:    9612
 k-point 40 :  -0.2222 0.4444 0.0000  plane waves:    9604
 k-point 41 :  -0.1111 0.4444 0.0000  plane waves:    9606
 k-point 42 :   0.0000 0.0000 0.2500  plane waves:    9517
 k-point 43 :   0.1111 0.0000 0.2500  plane waves:    9581
 k-point 44 :   0.2222 0.0000 0.2500  plane waves:    9603
 k-point 45 :   0.3333 0.0000 0.2500  plane waves:    9620
 k-point 46 :   0.4444 0.0000 0.2500  plane waves:    9619
 k-point 47 :  -0.4444 0.0000 0.2500  plane waves:    9619
 k-point 48 :  -0.3333 0.0000 0.2500  plane waves:    9620
 k-point 49 :  -0.2222 0.0000 0.2500  plane waves:    9603
 k-point 50 :  -0.1111 0.0000 0.2500  plane waves:    9581
 k-point 51 :   0.0000 0.1111 0.2500  plane waves:    9581
 k-point 52 :   0.1111 0.1111 0.2500  plane waves:    9580
 k-point 53 :   0.2222 0.1111 0.2500  plane waves:    9603
 k-point 54 :   0.3333 0.1111 0.2500  plane waves:    9607
 k-point 55 :   0.4444 0.1111 0.2500  plane waves:    9628
 k-point 56 :  -0.4444 0.1111 0.2500  plane waves:    9610
 k-point 57 :  -0.3333 0.1111 0.2500  plane waves:    9602
 k-point 58 :  -0.2222 0.1111 0.2500  plane waves:    9587
 k-point 59 :  -0.1111 0.1111 0.2500  plane waves:    9580
 k-point 60 :   0.0000 0.2222 0.2500  plane waves:    9603
 k-point 61 :   0.1111 0.2222 0.2500  plane waves:    9603
 k-point 62 :   0.2222 0.2222 0.2500  plane waves:    9596
 k-point 63 :   0.3333 0.2222 0.2500  plane waves:    9612
 k-point 64 :   0.4444 0.2222 0.2500  plane waves:    9610
 k-point 65 :  -0.4444 0.2222 0.2500  plane waves:    9598
 k-point 66 :  -0.3333 0.2222 0.2500  plane waves:    9603
 k-point 67 :  -0.2222 0.2222 0.2500  plane waves:    9614
 k-point 68 :  -0.1111 0.2222 0.2500  plane waves:    9587
 k-point 69 :   0.0000 0.3333 0.2500  plane waves:    9620
 k-point 70 :   0.1111 0.3333 0.2500  plane waves:    9607
 k-point 71 :   0.2222 0.3333 0.2500  plane waves:    9612
 k-point 72 :   0.3333 0.3333 0.2500  plane waves:    9625
 k-point 73 :   0.4444 0.3333 0.2500  plane waves:    9615
 k-point 74 :  -0.4444 0.3333 0.2500  plane waves:    9609
 k-point 75 :  -0.3333 0.3333 0.2500  plane waves:    9620
 k-point 76 :  -0.2222 0.3333 0.2500  plane waves:    9603
 k-point 77 :  -0.1111 0.3333 0.2500  plane waves:    9602
 k-point 78 :   0.0000 0.4444 0.2500  plane waves:    9619
 k-point 79 :   0.1111 0.4444 0.2500  plane waves:    9628
 k-point 80 :   0.2222 0.4444 0.2500  plane waves:    9610
 k-point 81 :   0.3333 0.4444 0.2500  plane waves:    9615
 k-point 82 :   0.4444 0.4444 0.2500  plane waves:    9625
 k-point 83 :  -0.4444 0.4444 0.2500  plane waves:    9617
 k-point 84 :  -0.3333 0.4444 0.2500  plane waves:    9609
 k-point 85 :  -0.2222 0.4444 0.2500  plane waves:    9598
 k-point 86 :  -0.1111 0.4444 0.2500  plane waves:    9610
 k-point 87 :  -0.0000-0.4444 0.2500  plane waves:    9619
 k-point 88 :   0.1111-0.4444 0.2500  plane waves:    9610
 k-point 89 :   0.2222-0.4444 0.2500  plane waves:    9598
 k-point 90 :   0.3333-0.4444 0.2500  plane waves:    9609
 k-point 91 :   0.4444-0.4444 0.2500  plane waves:    9617
 k-point 92 :  -0.4444-0.4444 0.2500  plane waves:    9625
 k-point 93 :  -0.3333-0.4444 0.2500  plane waves:    9615
 k-point 94 :  -0.2222-0.4444 0.2500  plane waves:    9610
 k-point 95 :  -0.1111-0.4444 0.2500  plane waves:    9628
 k-point 96 :   0.0000-0.3333 0.2500  plane waves:    9620
 k-point 97 :   0.1111-0.3333 0.2500  plane waves:    9602
 k-point 98 :   0.2222-0.3333 0.2500  plane waves:    9603
 k-point 99 :   0.3333-0.3333 0.2500  plane waves:    9620
 k-point ** :   0.4444-0.3333 0.2500  plane waves:    9609
 k-point ** :  -0.4444-0.3333 0.2500  plane waves:    9615
 k-point ** :  -0.3333-0.3333 0.2500  plane waves:    9625
 k-point ** :  -0.2222-0.3333 0.2500  plane waves:    9612
 k-point ** :  -0.1111-0.3333 0.2500  plane waves:    9607
 k-point ** :  -0.0000-0.2222 0.2500  plane waves:    9603
 k-point ** :   0.1111-0.2222 0.2500  plane waves:    9587
 k-point ** :   0.2222-0.2222 0.2500  plane waves:    9614
 k-point ** :   0.3333-0.2222 0.2500  plane waves:    9603
 k-point ** :   0.4444-0.2222 0.2500  plane waves:    9598
 k-point ** :  -0.4444-0.2222 0.2500  plane waves:    9610
 k-point ** :  -0.3333-0.2222 0.2500  plane waves:    9612
 k-point ** :  -0.2222-0.2222 0.2500  plane waves:    9596
 k-point ** :  -0.1111-0.2222 0.2500  plane waves:    9603
 k-point ** :  -0.0000-0.1111 0.2500  plane waves:    9581
 k-point ** :   0.1111-0.1111 0.2500  plane waves:    9580
 k-point ** :   0.2222-0.1111 0.2500  plane waves:    9587
 k-point ** :   0.3333-0.1111 0.2500  plane waves:    9602
 k-point ** :   0.4444-0.1111 0.2500  plane waves:    9610
 k-point ** :  -0.4444-0.1111 0.2500  plane waves:    9628
 k-point ** :  -0.3333-0.1111 0.2500  plane waves:    9607
 k-point ** :  -0.2222-0.1111 0.2500  plane waves:    9603
 k-point ** :  -0.1111-0.1111 0.2500  plane waves:    9580
 k-point ** :   0.0000 0.0000 0.5000  plane waves:    9586
 k-point ** :   0.1111 0.0000 0.5000  plane waves:    9566
 k-point ** :   0.2222 0.0000 0.5000  plane waves:    9592
 k-point ** :   0.3333 0.0000 0.5000  plane waves:    9626
 k-point ** :   0.4444 0.0000 0.5000  plane waves:    9612
 k-point ** :   0.0000 0.1111 0.5000  plane waves:    9566
 k-point ** :   0.1111 0.1111 0.5000  plane waves:    9578
 k-point ** :   0.2222 0.1111 0.5000  plane waves:    9606
 k-point ** :   0.3333 0.1111 0.5000  plane waves:    9602
 k-point ** :   0.4444 0.1111 0.5000  plane waves:    9604
 k-point ** :  -0.4444 0.1111 0.5000  plane waves:    9608
 k-point ** :  -0.3333 0.1111 0.5000  plane waves:    9604
 k-point ** :  -0.2222 0.1111 0.5000  plane waves:    9580
 k-point ** :  -0.1111 0.1111 0.5000  plane waves:    9566
 k-point ** :   0.0000 0.2222 0.5000  plane waves:    9592
 k-point ** :   0.1111 0.2222 0.5000  plane waves:    9606
 k-point ** :   0.2222 0.2222 0.5000  plane waves:    9614
 k-point ** :   0.3333 0.2222 0.5000  plane waves:    9614
 k-point ** :   0.4444 0.2222 0.5000  plane waves:    9612
 k-point ** :  -0.4444 0.2222 0.5000  plane waves:    9618
 k-point ** :  -0.3333 0.2222 0.5000  plane waves:    9606
 k-point ** :  -0.2222 0.2222 0.5000  plane waves:    9594
 k-point ** :  -0.1111 0.2222 0.5000  plane waves:    9580
 k-point ** :   0.0000 0.3333 0.5000  plane waves:    9626
 k-point ** :   0.1111 0.3333 0.5000  plane waves:    9602
 k-point ** :   0.2222 0.3333 0.5000  plane waves:    9614
 k-point ** :   0.3333 0.3333 0.5000  plane waves:    9582
 k-point ** :   0.4444 0.3333 0.5000  plane waves:    9614
 k-point ** :  -0.4444 0.3333 0.5000  plane waves:    9606
 k-point ** :  -0.3333 0.3333 0.5000  plane waves:    9626
 k-point ** :  -0.2222 0.3333 0.5000  plane waves:    9606
 k-point ** :  -0.1111 0.3333 0.5000  plane waves:    9604
 k-point ** :   0.0000 0.4444 0.5000  plane waves:    9612
 k-point ** :   0.1111 0.4444 0.5000  plane waves:    9604
 k-point ** :   0.2222 0.4444 0.5000  plane waves:    9612
 k-point ** :   0.3333 0.4444 0.5000  plane waves:    9614
 k-point ** :   0.4444 0.4444 0.5000  plane waves:    9606
 k-point ** :  -0.4444 0.4444 0.5000  plane waves:    9618
 k-point ** :  -0.3333 0.4444 0.5000  plane waves:    9606
 k-point ** :  -0.2222 0.4444 0.5000  plane waves:    9618
 k-point ** :  -0.1111 0.4444 0.5000  plane waves:    9608

 maximum and minimum number of plane-waves per node :      9640     9517

 maximum number of plane-waves:      9640
 maximum index in each direction: 
   IXMAX=   10   IYMAX=   10   IZMAX=   27
   IXMIN=  -10   IYMIN=  -10   IZMIN=  -27

 WARNING: aliasing errors must be expected set NGX to  42 to avoid them
 WARNING: aliasing errors must be expected set NGY to  42 to avoid them
 NGZ is ok and might be reduce to 110
 aliasing errors are usually negligible using standard VASP settings
 and one can safely disregard these warnings

 serial   3D FFT for wavefunctions
 parallel 3D FFT for charge:
    minimum data exchange during FFTs selected (reduces bandwidth)


 total amount of memory used by VASP on root node  1260518. kBytes
========================================================================

   base      :      30000. kBytes
   nonl-proj :     105500. kBytes
   fftplans  :      24957. kBytes
   grid      :      41804. kBytes
   one-center:         98. kBytes
   wavefun   :    1058159. kBytes
 
     INWAV:  cpu time    0.00: real time    0.01
 Broyden mixing: mesh for mixing (old mesh)
   NGX = 19   NGY = 19   NGZ = 55
  (NGX  = 80   NGY  = 80   NGZ  =224)
  gives a total of  19855 points

 initial charge density was supplied:
 charge density of overlapping atoms calculated
 number of electron     128.0000000 magnetization 
 keeping initial charge density in first step


--------------------------------------------------------------------------------------------------------


 Maximum index for augmentation-charges         3597 (set IRDMAX)


--------------------------------------------------------------------------------------------------------


 First call to EWALD:  gamma=   0.268
 Maximum number of real-space cells 4x 4x 2
 Maximum number of reciprocal cells 2x 2x 5

 FEWALD executed in parallel
    FEWALD:  cpu time    0.00: real time    0.00


----------------------------------------- Iteration    1(   1)  ---------------------------------------


    POTLOK:  cpu time    0.63: real time    1.24
    SETDIJ:  cpu time    0.04: real time    0.08
     EDDAV:  cpu time  424.10: real time  848.62
 BZINTS: Fermi energy: 16.140059;128.000000 electrons
         Band energy:  66.114073;  BLOECHL correction: -0.122742
       DOS:  cpu time    0.19: real time    0.37
    --------------------------------------------
      LOOP:  cpu time  424.95: real time  850.33

 eigenvalue-minimisations  : 26756
 total energy-change (2. order) : 0.6275777E+03  (-0.7122800E+04)
 number of electron     128.0000000 magnetization 
 augmentation part      128.0000000 magnetization 

 Free energy of the ion-electron system (eV)
  ---------------------------------------------------
  alpha Z        PSCENC =       289.94852147
  Ewald energy   TEWEN  =     -3597.11238061
  -Hartree energ DENC   =     -1246.23131636
  -exchange      EXHF   =         0.00000000
  -V(xc)+E(xc)   XCENC  =       442.86491945
  PAW double counting   =      1210.60617908    -1247.42152856
  entropy T*S    EENTRO =         0.00000000
  eigenvalues    EBANDS =        66.11407334
  atomic energy  EATOM  =      4708.80920826
  ---------------------------------------------------
  free energy    TOTEN  =       627.57767608 eV

  energy without entropy =      627.57767608  energy(sigma->0) =      627.57767608


--------------------------------------------------------------------------------------------------------




----------------------------------------- Iteration    1(   2)  ---------------------------------------


     EDDAV:  cpu time  513.44: real time 1027.40
 BZINTS: Fermi energy:  3.728076;128.000000 electrons
         Band energy:-818.506306;  BLOECHL correction: -0.000399
       DOS:  cpu time    0.15: real time    0.28
    --------------------------------------------
      LOOP:  cpu time  513.59: real time 1027.69

 eigenvalue-minimisations  : 33502
 total energy-change (2. order) :-0.8846204E+03  (-0.8395124E+03)
 number of electron     128.0000000 magnetization 
 augmentation part      128.0000000 magnetization 

 Free energy of the ion-electron system (eV)
  ---------------------------------------------------
  alpha Z        PSCENC =       289.94852147
  Ewald energy   TEWEN  =     -3597.11238061
  -Hartree energ DENC   =     -1246.23131636
  -exchange      EXHF   =         0.00000000
  -V(xc)+E(xc)   XCENC  =       442.86491945
  PAW double counting   =      1210.60617908    -1247.42152856
  entropy T*S    EENTRO =         0.00000000
  eigenvalues    EBANDS =      -818.50630625
  atomic energy  EATOM  =      4708.80920826
  ---------------------------------------------------
  free energy    TOTEN  =      -257.04270351 eV

  energy without entropy =     -257.04270351  energy(sigma->0) =     -257.04270351


--------------------------------------------------------------------------------------------------------




----------------------------------------- Iteration    1(   3)  ---------------------------------------


     EDDAV:  cpu time  490.20: real time  980.88
 BZINTS: Fermi energy:  3.009277;128.000000 electrons
         Band energy:-874.011331;  BLOECHL correction: -0.000018
       DOS:  cpu time    0.12: real time    0.23
    --------------------------------------------
      LOOP:  cpu time  490.32: real time  981.14

 eigenvalue-minimisations  : 31612
 total energy-change (2. order) :-0.5550502E+02  (-0.5478920E+02)
 number of electron     128.0000000 magnetization 
 augmentation part      128.0000000 magnetization 

 Free energy of the ion-electron system (eV)
  ---------------------------------------------------
  alpha Z        PSCENC =       289.94852147
  Ewald energy   TEWEN  =     -3597.11238061
  -Hartree energ DENC   =     -1246.23131636
  -exchange      EXHF   =         0.00000000
  -V(xc)+E(xc)   XCENC  =       442.86491945
  PAW double counting   =      1210.60617908    -1247.42152856
  entropy T*S    EENTRO =         0.00000000
  eigenvalues    EBANDS =      -874.01133078
  atomic energy  EATOM  =      4708.80920826
  ---------------------------------------------------
  free energy    TOTEN  =      -312.54772803 eV

  energy without entropy =     -312.54772803  energy(sigma->0) =     -312.54772803


--------------------------------------------------------------------------------------------------------




----------------------------------------- Iteration    1(   4)  ---------------------------------------


     EDDAV:  cpu time  509.03: real time 1018.55
 BZINTS: Fermi energy:  2.992532;128.000000 electrons
         Band energy:-875.273511;  BLOECHL correction:  0.000000
       DOS:  cpu time    0.06: real time    0.12
    --------------------------------------------
      LOOP:  cpu time  509.09: real time 1018.69

 eigenvalue-minimisations  : 33168
 total energy-change (2. order) :-0.1262180E+01  (-0.1258837E+01)
 number of electron     128.0000000 magnetization 
 augmentation part      128.0000000 magnetization 

 Free energy of the ion-electron system (eV)
  ---------------------------------------------------
  alpha Z        PSCENC =       289.94852147
  Ewald energy   TEWEN  =     -3597.11238061
  -Hartree energ DENC   =     -1246.23131636
  -exchange      EXHF   =         0.00000000
  -V(xc)+E(xc)   XCENC  =       442.86491945
  PAW double counting   =      1210.60617908    -1247.42152856
  entropy T*S    EENTRO =         0.00000000
  eigenvalues    EBANDS =      -875.27351123
  atomic energy  EATOM  =      4708.80920826
  ---------------------------------------------------
  free energy    TOTEN  =      -313.80990849 eV

  energy without entropy =     -313.80990849  energy(sigma->0) =     -313.80990849


--------------------------------------------------------------------------------------------------------




----------------------------------------- Iteration    1(   5)  ---------------------------------------


     EDDAV:  cpu time  525.46: real time 1051.41
 BZINTS: Fermi energy:  2.991997;128.000000 electrons
         Band energy:-875.316940;  BLOECHL correction:  0.000000
       DOS:  cpu time    0.07: real time    0.13
    CHARGE:  cpu time   19.37: real time   38.77
    MIXING:  cpu time    0.02: real time    0.03
    --------------------------------------------
      LOOP:  cpu time  544.92: real time 1090.35

 eigenvalue-minimisations  : 33856
 total energy-change (2. order) :-0.4342886E-01  (-0.4340807E-01)
 number of electron     128.0000007 magnetization 
 augmentation part        3.4010970 magnetization 

 Broyden mixing:
  rms(total) = 0.22086E+01    rms(broyden)= 0.22083E+01
  rms(prec ) = 0.25981E+01
  weight for this iteration     100.00

 Free energy of the ion-electron system (eV)
  ---------------------------------------------------
  alpha Z        PSCENC =       289.94852147
  Ewald energy   TEWEN  =     -3597.11238061
  -Hartree energ DENC   =     -1246.23131636
  -exchange      EXHF   =         0.00000000
  -V(xc)+E(xc)   XCENC  =       442.86491945
  PAW double counting   =      1210.60617908    -1247.42152856
  entropy T*S    EENTRO =         0.00000000
  eigenvalues    EBANDS =      -875.31694009
  atomic energy  EATOM  =      4708.80920826
  ---------------------------------------------------
  free energy    TOTEN  =      -313.85333735 eV

  energy without entropy =     -313.85333735  energy(sigma->0) =     -313.85333735


--------------------------------------------------------------------------------------------------------




----------------------------------------- Iteration    1(   6)  ---------------------------------------


    POTLOK:  cpu time    0.60: real time    1.19
    SETDIJ:  cpu time    0.04: real time    0.08
     EDDAV:  cpu time  472.97: real time  946.39
 BZINTS: Fermi energy:  3.768075;128.000000 electrons
         Band energy:-733.188428;  BLOECHL correction:  0.000000
       DOS:  cpu time    0.05: real time    0.10
    CHARGE:  cpu time   19.89: real time   39.81
    MIXING:  cpu time    0.03: real time    0.06
    --------------------------------------------
      LOOP:  cpu time  493.57: real time  987.64

 eigenvalue-minimisations  : 29918
 total energy-change (2. order) : 0.1452903E+02  (-0.1501792E+01)
 number of electron     128.0000007 magnetization 
 augmentation part        3.2452276 magnetization 

 Broyden mixing:
  rms(total) = 0.11583E+01    rms(broyden)= 0.11583E+01
  rms(prec ) = 0.13540E+01
  weight for this iteration     100.00

 eigenvalues of (default mixing * dielectric matrix)
  average eigenvalue GAMMA=   2.0331
  2.0331

 Free energy of the ion-electron system (eV)
  ---------------------------------------------------
  alpha Z        PSCENC =       289.94852147
  Ewald energy   TEWEN  =     -3597.11238061
  -Hartree energ DENC   =     -1379.29642125
  -exchange      EXHF   =         0.00000000
  -V(xc)+E(xc)   XCENC  =       451.26350824
  PAW double counting   =      1642.16953505    -1681.91784995
  entropy T*S    EENTRO =         0.00000000
  eigenvalues    EBANDS =      -733.18842767
  atomic energy  EATOM  =      4708.80920826
  ---------------------------------------------------
  free energy    TOTEN  =      -299.32430644 eV

  energy without entropy =     -299.32430644  energy(sigma->0) =     -299.32430644


--------------------------------------------------------------------------------------------------------




----------------------------------------- Iteration    1(   7)  ---------------------------------------


    POTLOK:  cpu time    0.53: real time    1.06
    SETDIJ:  cpu time    0.03: real time    0.07
     EDDAV:  cpu time  463.98: real time  928.42
 BZINTS: Fermi energy:  4.528429;128.000000 electrons
         Band energy:-587.786046;  BLOECHL correction:  0.000000
       DOS:  cpu time    0.04: real time    0.08
    CHARGE:  cpu time   19.56: real time   39.13
    MIXING:  cpu time    0.04: real time    0.09
    --------------------------------------------
      LOOP:  cpu time  484.20: real time  968.88

 eigenvalue-minimisations  : 29338
 total energy-change (2. order) : 0.4622533E+01  (-0.1587789E+01)
 number of electron     128.0000006 magnetization 
 augmentation part        3.0789557 magnetization 

 Broyden mixing:
  rms(total) = 0.19458E+00    rms(broyden)= 0.19443E+00
  rms(prec ) = 0.20804E+00
  weight for this iteration     100.00

 eigenvalues of (default mixing * dielectric matrix)
  average eigenvalue GAMMA=   2.1723
  2.1723  2.1723

 Free energy of the ion-electron system (eV)
  ---------------------------------------------------
  alpha Z        PSCENC =       289.94852147
  Ewald energy   TEWEN  =     -3597.11238061
  -Hartree energ DENC   =     -1527.25890605
  -exchange      EXHF   =         0.00000000
  -V(xc)+E(xc)   XCENC  =       460.83606914
  PAW double counting   =      2180.91839238    -2223.05663248
  entropy T*S    EENTRO =         0.00000000
  eigenvalues    EBANDS =      -587.78604606
  atomic energy  EATOM  =      4708.80920826
  ---------------------------------------------------
  free energy    TOTEN  =      -294.70177393 eV

  energy without entropy =     -294.70177393  energy(sigma->0) =     -294.70177393


--------------------------------------------------------------------------------------------------------




----------------------------------------- Iteration    1(   8)  ---------------------------------------


    POTLOK:  cpu time    0.71: real time    1.41
    SETDIJ:  cpu time    0.04: real time    0.08
     EDDAV:  cpu time  475.76: real time  951.99
 BZINTS: Fermi energy:  4.488949;128.000000 electrons
         Band energy:-590.685355;  BLOECHL correction:  0.000000
       DOS:  cpu time    0.05: real time    0.10
    CHARGE:  cpu time   19.59: real time   39.21
    MIXING:  cpu time    0.06: real time    0.12
    --------------------------------------------
      LOOP:  cpu time  496.22: real time  992.93

 eigenvalue-minimisations  : 30230
 total energy-change (2. order) :-0.6569308E-01  (-0.3659022E-01)
 number of electron     128.0000006 magnetization 
 augmentation part        3.0729515 magnetization 

 Broyden mixing:
  rms(total) = 0.33346E-01    rms(broyden)= 0.33316E-01
  rms(prec ) = 0.47898E-01
  weight for this iteration     100.00

 eigenvalues of (default mixing * dielectric matrix)
  average eigenvalue GAMMA=   1.7118
  2.4143  2.0126  0.7085

 Free energy of the ion-electron system (eV)
  ---------------------------------------------------
  alpha Z        PSCENC =       289.94852147
  Ewald energy   TEWEN  =     -3597.11238061
  -Hartree energ DENC   =     -1525.09189898
  -exchange      EXHF   =         0.00000000
  -V(xc)+E(xc)   XCENC  =       460.71590356
  PAW double counting   =      2211.08113006    -2252.43259568
  entropy T*S    EENTRO =         0.00000000
  eigenvalues    EBANDS =      -590.68535511
  atomic energy  EATOM  =      4708.80920826
  ---------------------------------------------------
  free energy    TOTEN  =      -294.76746701 eV

  energy without entropy =     -294.76746701  energy(sigma->0) =     -294.76746701


--------------------------------------------------------------------------------------------------------




----------------------------------------- Iteration    1(   9)  ---------------------------------------


    POTLOK:  cpu time    0.60: real time    1.20
    SETDIJ:  cpu time    0.04: real time    0.09
     EDDAV:  cpu time  488.79: real time  978.07
 BZINTS: Fermi energy:  4.511891;128.000000 electrons
         Band energy:-588.759387;  BLOECHL correction:  0.000000
       DOS:  cpu time    0.06: real time    0.11
    CHARGE:  cpu time   19.74: real time   39.51
    MIXING:  cpu time    0.02: real time    0.04
    --------------------------------------------
      LOOP:  cpu time  509.26: real time 1019.04

 eigenvalue-minimisations  : 31214
 total energy-change (2. order) :-0.7863515E-03  (-0.1668097E-02)
 number of electron     128.0000006 magnetization 
 augmentation part        3.0696313 magnetization 

 Broyden mixing:
  rms(total) = 0.16563E-01    rms(broyden)= 0.16557E-01
  rms(prec ) = 0.23575E-01
  weight for this iteration     100.00

 eigenvalues of (default mixing * dielectric matrix)
  average eigenvalue GAMMA=   1.4652
  2.4527  1.9970  0.7055  0.7055

 Free energy of the ion-electron system (eV)
  ---------------------------------------------------
  alpha Z        PSCENC =       289.94852147
  Ewald energy   TEWEN  =     -3597.11238061
  -Hartree energ DENC   =     -1527.18118293
  -exchange      EXHF   =         0.00000000
  -V(xc)+E(xc)   XCENC  =       460.86043319
  PAW double counting   =      2219.56398419    -2260.89745023
  entropy T*S    EENTRO =         0.00000000
  eigenvalues    EBANDS =      -588.75938672
  atomic energy  EATOM  =      4708.80920826
  ---------------------------------------------------
  free energy    TOTEN  =      -294.76825336 eV

  energy without entropy =     -294.76825336  energy(sigma->0) =     -294.76825336


--------------------------------------------------------------------------------------------------------




----------------------------------------- Iteration    1(  10)  ---------------------------------------


    POTLOK:  cpu time    0.67: real time    1.37
    SETDIJ:  cpu time    0.03: real time    0.07
     EDDAV:  cpu time  505.70: real time 1011.91
 BZINTS: Fermi energy:  4.512931;128.000000 electrons
         Band energy:-588.135751;  BLOECHL correction: -0.000000
       DOS:  cpu time    0.09: real time    0.17
    CHARGE:  cpu time   20.04: real time   40.09
    MIXING:  cpu time    0.02: real time    0.04
    --------------------------------------------
      LOOP:  cpu time  526.55: real time 1053.66

 eigenvalue-minimisations  : 31832
 total energy-change (2. order) :-0.2423835E-03  (-0.2241109E-03)
 number of electron     128.0000006 magnetization 
 augmentation part        3.0684898 magnetization 

 Broyden mixing:
  rms(total) = 0.10422E-01    rms(broyden)= 0.10420E-01
  rms(prec ) = 0.14192E-01
  weight for this iteration     100.00

 eigenvalues of (default mixing * dielectric matrix)
  average eigenvalue GAMMA=   1.4253
  2.5127  1.9790  1.3577  0.7277  0.5495

 Free energy of the ion-electron system (eV)
  ---------------------------------------------------
  alpha Z        PSCENC =       289.94852147
  Ewald energy   TEWEN  =     -3597.11238061
  -Hartree energ DENC   =     -1527.85448896
  -exchange      EXHF   =         0.00000000
  -V(xc)+E(xc)   XCENC  =       460.90762327
  PAW double counting   =      2221.35259623    -2262.68382452
  entropy T*S    EENTRO =         0.00000000
  eigenvalues    EBANDS =      -588.13575090
  atomic energy  EATOM  =      4708.80920826
  ---------------------------------------------------
  free energy    TOTEN  =      -294.76849574 eV

  energy without entropy =     -294.76849574  energy(sigma->0) =     -294.76849574


--------------------------------------------------------------------------------------------------------




----------------------------------------- Iteration    1(  11)  ---------------------------------------


    POTLOK:  cpu time    0.65: real time    1.30
    SETDIJ:  cpu time    0.04: real time    0.07
     EDDAV:  cpu time  484.08: real time  968.64
 BZINTS: Fermi energy:  4.516273;128.000000 electrons
         Band energy:-587.554313;  BLOECHL correction:  0.000000
       DOS:  cpu time    0.06: real time    0.11
    CHARGE:  cpu time   19.93: real time   39.90
    MIXING:  cpu time    0.02: real time    0.06
    --------------------------------------------
      LOOP:  cpu time  504.79: real time 1010.09

 eigenvalue-minimisations  : 30540
 total energy-change (2. order) :-0.6833765E-03  (-0.7364080E-04)
 number of electron     128.0000006 magnetization 
 augmentation part        3.0679293 magnetization 

 Broyden mixing:
[...]
     73       9.9007      0.00000
     74       9.9038      0.00000
     75      10.4084      0.00000
     76      10.4112      0.00000
     77      10.5134      0.00000
     78      10.5155      0.00000
     79      12.0435      0.00000
     80      12.0472      0.00000
     81      12.6267      0.00000
     82      12.6580      0.00000

 k-point   162 :      -0.2222    0.4444    0.5000
  band No.  band energies     occupation 
      1     -14.1795      2.00000
      2     -14.1794      2.00000
      3     -14.0051      2.00000
      4     -14.0047      2.00000
      5     -12.2478      2.00000
      6     -12.2464      2.00000
      7     -12.2415      2.00000
      8     -12.2402      2.00000
      9     -12.0950      2.00000
     10     -12.0936      2.00000
     11     -12.0888      2.00000
     12     -12.0873      2.00000
     13      -9.0021      2.00000
     14      -9.0005      2.00000
     15      -8.9378      2.00000
     16      -8.9362      2.00000
     17      -8.0290      2.00000
     18      -8.0259      2.00000
     19      -7.9919      2.00000
     20      -7.9884      2.00000
     21      -5.0284      2.00000
     22      -5.0254      2.00000
     23      -5.0180      2.00000
     24      -5.0164      2.00000
     25      -4.9525      2.00000
     26      -4.9499      2.00000
     27      -4.9428      2.00000
     28      -4.9410      2.00000
     29      -4.7232      2.00000
     30      -4.7212      2.00000
     31      -4.6594      2.00000
     32      -4.6575      2.00000
     33      -2.6258      2.00000
     34      -2.6250      2.00000
     35      -2.1044      2.00000
     36      -2.1030      2.00000
     37      -2.0899      2.00000
     38      -2.0876      2.00000
     39      -2.0626      2.00000
     40      -2.0617      2.00000
     41      -2.0486      2.00000
     42      -2.0456      2.00000
     43      -1.4177      2.00000
     44      -1.4164      2.00000
     45      -1.1643      2.00000
     46      -1.1593      2.00000
     47      -1.1387      2.00000
     48      -1.1354      2.00000
     49      -0.3619      2.00000
     50      -0.3609      2.00000
     51      -0.3567      2.00000
     52      -0.3557      2.00000
     53      -0.1934      2.00000
     54      -0.1897      2.00000
     55      -0.1764      2.00000
     56      -0.1708      2.00000
     57       0.7034      2.00000
     58       0.7048      2.00000
     59       0.7089      2.00000
     60       0.7105      2.00000
     61       2.9770      2.00000
     62       2.9795      2.00000
     63       3.4147      2.00000
     64       3.4175      2.00000
     65       5.7186      0.00000
     66       5.7223      0.00000
     67       5.7504      0.00000
     68       5.7539      0.00000
     69       9.0032      0.00000
     70       9.0061      0.00000
     71       9.0124      0.00000
     72       9.0140      0.00000
     73       9.4939      0.00000
     74       9.4966      0.00000
     75       9.4986      0.00000
     76       9.5007      0.00000
     77      10.4313      0.00000
     78      10.4331      0.00000
     79      12.7249      0.00000
     80      12.7256      0.00000
     81      12.7292      0.00000
     82      12.7326      0.00000

 k-point   163 :      -0.1111    0.4444    0.5000
  band No.  band energies     occupation 
      1     -14.1063      2.00000
      2     -14.1063      2.00000
      3     -13.9328      2.00000
      4     -13.9323      2.00000
      5     -12.8087      2.00000
      6     -12.8087      2.00000
      7     -12.6497      2.00000
      8     -12.6493      2.00000
      9     -11.5492      2.00000
     10     -11.5492      2.00000
     11     -11.4046      2.00000
     12     -11.4042      2.00000
     13      -9.7559      2.00000
     14      -9.7556      2.00000
     15      -9.6366      2.00000
     16      -9.6362      2.00000
     17      -7.2628      2.00000
     18      -7.2611      2.00000
     19      -7.1801      2.00000
     20      -7.1785      2.00000
     21      -5.6118      2.00000
     22      -5.6102      2.00000
     23      -5.5380      2.00000
     24      -5.5365      2.00000
     25      -4.6168      2.00000
     26      -4.6151      2.00000
     27      -4.5568      2.00000
     28      -4.5551      2.00000
     29      -4.3544      2.00000
     30      -4.3540      2.00000
     31      -4.2820      2.00000
     32      -4.2814      2.00000
     33      -3.1620      2.00000
     34      -3.1603      2.00000
     35      -3.1132      2.00000
     36      -3.1113      2.00000
     37      -2.5387      2.00000
     38      -2.5379      2.00000
     39      -1.4973      2.00000
     40      -1.4956      2.00000
     41      -1.4548      2.00000
     42      -1.4532      2.00000
     43      -1.3344      2.00000
     44      -1.3328      2.00000
     45      -1.2489      2.00000
     46      -1.2485      2.00000
     47      -1.2155      2.00000
     48      -1.2151      2.00000
     49      -1.0128      2.00000
     50      -1.0120      2.00000
     51      -0.1195      2.00000
     52      -0.1179      2.00000
     53      -0.0938      2.00000
     54      -0.0922      2.00000
     55       0.0999      2.00000
     56       0.1013      2.00000
     57       0.4364      2.00000
     58       0.4373      2.00000
     59       1.4371      2.00000
     60       1.4385      2.00000
     61       2.3619      2.00000
     62       2.3631      2.00000
     63       3.0925      2.00000
     64       3.0944      2.00000
     65       6.0608      0.00000
     66       6.0633      0.00000
     67       6.4445      0.00000
     68       6.4464      0.00000
     69       8.0728      0.00000
     70       8.0747      0.00000
     71       8.5167      0.00000
     72       8.5183      0.00000
     73       9.9101      0.00000
     74       9.9125      0.00000
     75      10.4148      0.00000
     76      10.4161      0.00000
     77      10.5146      0.00000
     78      10.5167      0.00000
     79      12.0443      0.00000
     80      12.0480      0.00000
     81      12.5868      0.00000
     82      12.5893      0.00000


--------------------------------------------------------------------------------------------------------


 soft charge-density along one line, spin component           1
         0         1         2         3         4         5         6         7         8         9
 total charge-density along one line
 
 pseudopotential strength for first ion, spin component:           1
  9.783   0.005  -0.000  -0.000   0.000   0.000   0.000  -0.000
  0.005  -0.002   0.000   0.000   0.000   0.000   0.000  -0.000
 -0.000   0.000  -3.953   0.000   0.000  -0.015   0.000   0.000
 -0.000   0.000   0.000  -3.947   0.000   0.000  -0.012   0.000
  0.000   0.000   0.000   0.000  -3.953   0.000   0.000  -0.015
  0.000   0.000  -0.015   0.000   0.000  -0.764   0.000   0.000
  0.000   0.000   0.000  -0.012   0.000   0.000  -0.764  -0.000
 -0.000  -0.000   0.000   0.000  -0.015   0.000  -0.000  -0.764
 total augmentation occupancy for first ion, spin component:           1
  1.470  -1.108   0.000   0.001   0.003   0.000  -0.001   0.001
 -1.108   1.040  -0.000   0.007  -0.002  -0.000   0.002  -0.001
  0.000  -0.000   1.224  -0.000  -0.002   0.225  -0.000  -0.001
  0.001   0.007  -0.000   0.928  -0.000  -0.000   0.103  -0.000
  0.003  -0.002  -0.002  -0.000   1.224  -0.001  -0.000   0.225
  0.000  -0.000   0.225  -0.000  -0.001   0.047  -0.000  -0.000
 -0.001   0.002  -0.000   0.103  -0.000  -0.000   0.013  -0.000
  0.001  -0.001  -0.001  -0.000   0.225  -0.000  -0.000   0.047


------------------------ aborting loop because EDIFF is reached ----------------------------------------


    CHARGE:  cpu time   19.95: real time   39.92
    FORLOC:  cpu time    0.15: real time    0.30
    FORNL :  cpu time  138.10: real time  276.34
    STRESS:  cpu time  216.37: real time  432.96
    FORHAR:  cpu time    0.26: real time    0.52
    MIXING:  cpu time    0.02: real time    0.04
    OFIELD:  cpu time    0.00: real time    0.00

 ---------------------------------------------------------------------------------------------

         DFTD3 V3.0 Rev 1        
 IVDW         = 12
 DF pbe       
 parameters
 VDW_S6       =    1.0000
 VDW_S8       =    0.7875
 VDW_A1       =    0.4289
 VDW_A2       =    4.4407
 k1-k3        =   16.0000    1.3333   -4.0000
 VDW_RADIUS   =   50.2022 A
 VDW_CNRADIUS =   21.1671 A
 Edisp (eV)   -4.89664

 E6    (eV) :    -3.5124
 E8    (eV) :    -1.3842
 % E8        : 28.27
    FORVDW:  cpu time    0.25: real time    0.50

  FORCE on cell =-STRESS in cart. coord.  units (eV):
  Direction    XX          YY          ZZ          XY          YZ          ZX
  --------------------------------------------------------------------------------------
  Alpha Z   289.94852   289.94852   289.94852
  Ewald     706.34276   705.86668 -5009.33974    -1.15618    -0.00059    -0.00700
  Hartree  1348.80934  1348.81594 -1168.35168    -0.09687    -0.00016    -0.00147
  E(xc)    -467.51610  -467.52293  -484.84479    -0.00874    -0.00002     0.00001
  Local   -3673.93577 -3673.56397  4288.90631     1.02662     0.00037     0.00718
  n-local  -112.45596  -112.56654  -102.65738    -0.10138    -0.00029     0.00041
  augment   -12.37469   -12.37378   -11.33841     0.00196     0.00000     0.00000
  Kinetic  1921.50989  1922.32521  2202.23136     0.82669     0.00408    -0.00438
  Fock        0.00000     0.00000     0.00000     0.00000     0.00000     0.00000
  vdW        -0.77899    -0.76937    -5.88418     0.00872     0.00000    -0.00001
  -------------------------------------------------------------------------------------
  Total      -0.45100     0.15976    -1.32997     0.50083     0.00339    -0.00525
  in kB      -2.51108     0.88949    -7.40496     2.78849     0.01888    -0.02924
  external pressure =       -3.01 kB  Pullay stress =        0.00 kB


 VOLUME and BASIS-vectors are now :
 -----------------------------------------------------------------------------
  energy-cutoff  :      600.00
  volume of cell :      287.76
      direct lattice vectors                 reciprocal lattice vectors
     4.932874498 -0.001919286  0.000000000     0.202767147  0.117172881  0.000000000
    -2.468099399  4.271034986  0.000000000     0.000091118  0.234187941  0.000000000
     0.000000000  0.000000000 13.661406500     0.000000000  0.000000000  0.073198905

  length of vectors
     4.932874871  4.932874871 13.661406500     0.234187958  0.234187958  0.073198905


 FORCES acting on ions
    electron-ion (+dipol)            ewald-force                    non-local-force                 convergence-correction
 -----------------------------------------------------------------------------------------------
   0.626E+00 0.628E-01 -.177E+01   -.748E+00 -.580E-01 0.181E+01   -.971E-01 0.283E-02 -.175E+00   -.170E-03 -.369E-04 0.848E-02
   -.310E+00 0.661E-01 0.379E+00   0.322E+00 -.622E-01 -.370E+00   0.135E-01 0.274E-02 -.226E-01   0.358E-03 -.528E-04 0.845E-02
   -.138E+00 0.165E+00 0.379E+00   0.126E+00 -.175E+00 -.370E+00   0.290E-02 -.343E-02 -.227E-01   0.974E-04 -.161E-03 0.845E-02
   -.138E+00 -.333E-01 0.380E+00   0.126E+00 0.514E-01 -.371E+00   0.298E-02 0.872E-02 -.226E-01   0.703E-04 0.144E-03 0.845E-02
   -.115E+00 0.659E-01 -.858E-01   0.107E+00 -.621E-01 0.951E-01   -.486E-02 0.260E-02 0.159E-02   -.965E-04 -.277E-04 -.920E-02
   -.115E+00 0.659E-01 -.851E-01   0.108E+00 -.621E-01 0.945E-01   -.487E-02 0.260E-02 0.161E-02   -.728E-04 -.167E-04 -.921E-02
   -.115E+00 0.659E-01 -.851E-01   0.107E+00 -.621E-01 0.945E-01   -.486E-02 0.261E-02 0.161E-02   -.918E-04 -.291E-04 -.920E-02
   -.115E+00 0.658E-01 -.851E-01   0.107E+00 -.620E-01 0.945E-01   -.486E-02 0.260E-02 0.161E-02   -.775E-04 -.165E-04 -.920E-02
   0.114E+00 -.702E-01 -.835E-01   -.107E+00 0.658E-01 0.820E-01   0.461E-02 -.292E-02 -.157E-02   0.651E-04 0.118E-04 0.140E-02
   0.114E+00 -.630E-01 -.833E-01   -.107E+00 0.584E-01 0.819E-01   0.450E-02 -.277E-02 -.180E-02   0.347E-04 -.483E-05 0.141E-02
   0.108E+00 -.665E-01 -.834E-01   -.101E+00 0.620E-01 0.819E-01   0.443E-02 -.274E-02 -.168E-02   0.632E-04 -.119E-05 0.140E-02
   0.121E+00 -.664E-01 -.136E+00   -.115E+00 0.620E-01 0.135E+00   0.465E-02 -.281E-02 -.132E-02   0.381E-04 -.194E-04 0.142E-02
   0.114E+00 -.688E-01 -.818E-01   -.107E+00 0.658E-01 0.822E-01   0.452E-02 -.247E-02 -.188E-02   0.511E-04 -.103E-03 -.409E-03
   0.114E+00 -.615E-01 -.819E-01   -.107E+00 0.582E-01 0.821E-01   0.462E-02 -.233E-02 -.164E-02   0.992E-04 -.106E-03 -.410E-03
   0.108E+00 -.653E-01 -.819E-01   -.101E+00 0.621E-01 0.821E-01   0.444E-02 -.250E-02 -.176E-02   0.737E-04 -.587E-04 -.410E-03
   0.121E+00 -.653E-01 -.134E+00   -.115E+00 0.621E-01 0.134E+00   0.465E-02 -.244E-02 -.130E-02   0.760E-04 -.335E-04 -.396E-03
   0.361E-01 -.658E-01 0.317E+00   -.316E-01 0.621E-01 -.324E+00   0.488E-02 -.253E-02 0.104E-01   0.286E-04 0.244E-04 0.844E-02
   0.343E+00 -.576E-01 0.840E+00   -.336E+00 0.529E-01 -.881E+00   0.294E-01 -.232E-02 0.801E-01   -.184E-03 0.551E-04 0.843E-02
   -.217E+00 -.388E+00 0.836E+00   0.278E+00 0.415E+00 -.877E+00   0.209E-01 -.734E-02 0.799E-01   -.114E-03 0.733E-04 0.843E-02
   -.206E+00 0.253E+00 0.843E+00   0.266E+00 -.287E+00 -.885E+00   0.219E-01 0.183E-02 0.804E-01   -.574E-04 -.475E-04 0.843E-02
   0.114E+00 -.654E-01 -.851E-01   -.107E+00 0.618E-01 0.944E-01   0.467E-02 -.251E-02 -.368E-03   0.118E-03 0.242E-04 -.919E-02
   0.114E+00 -.654E-01 -.855E-01   -.107E+00 0.618E-01 0.947E-01   0.467E-02 -.251E-02 -.361E-03   0.716E-04 0.279E-04 -.920E-02
   0.114E+00 -.655E-01 -.855E-01   -.107E+00 0.619E-01 0.947E-01   0.467E-02 -.251E-02 -.361E-03   0.947E-04 0.326E-04 -.920E-02
   0.114E+00 -.654E-01 -.855E-01   -.107E+00 0.618E-01 0.947E-01   0.467E-02 -.251E-02 -.358E-03   0.941E-04 0.426E-05 -.920E-02
   -.950E-01 0.573E-01 -.949E-01   0.884E-01 -.531E-01 0.934E-01   -.444E-02 0.277E-02 0.893E-03   -.715E-04 -.295E-05 0.140E-02
   -.133E+00 0.533E-01 -.108E+00   0.126E+00 -.489E-01 0.107E+00   -.440E-02 0.267E-02 0.566E-03   -.379E-04 0.281E-05 0.142E-02
   -.110E+00 0.876E-01 -.101E+00   0.104E+00 -.836E-01 0.100E+00   -.433E-02 0.269E-02 0.730E-03   -.604E-04 0.134E-04 0.140E-02
   -.116E+00 0.659E-01 -.786E-01   0.110E+00 -.618E-01 0.771E-01   -.454E-02 0.271E-02 0.289E-03   -.477E-04 0.352E-04 0.140E-02
   -.132E+00 0.773E-01 -.106E+00   0.126E+00 -.747E-01 0.107E+00   -.426E-02 0.235E-02 0.496E-03   -.571E-04 0.935E-04 -.413E-03
   -.949E-01 0.732E-01 -.930E-01   0.887E-01 -.704E-01 0.933E-01   -.431E-02 0.225E-02 0.809E-03   -.895E-04 0.974E-04 -.421E-03
   -.110E+00 0.434E-01 -.995E-01   0.104E+00 -.404E-01 0.100E+00   -.420E-02 0.235E-02 0.643E-03   -.773E-04 0.712E-04 -.418E-03
   -.116E+00 0.648E-01 -.771E-01   0.110E+00 -.619E-01 0.774E-01   -.441E-02 0.232E-02 0.235E-03   -.695E-04 0.515E-04 -.408E-03
 -----------------------------------------------------------------------------------------------
   -.146E-03 -.282E-04 -.605E-02   -.137E-13 -.514E-14 -.641E-13   0.426E-04 0.112E-04 0.495E-02   0.598E-04 0.442E-04 0.193E-02
 
 
 POSITION                                       TOTAL-FORCE (eV/Angst)
 -----------------------------------------------------------------------------------
      2.46742      0.00044      1.71708        -0.220631      0.007594     -0.134313
      4.93046     -0.00052      1.70768         0.027062      0.006652     -0.005335
      1.22997      2.13595      1.70768        -0.008954     -0.014164     -0.005271
      3.69641      2.13499      1.70768        -0.009043      0.027566     -0.005496
      2.46402      0.00044      8.53838        -0.012623      0.006430      0.001698
      4.93046     -0.00052      8.53838        -0.012607      0.006430      0.001717
      1.22997      2.13595      8.53838        -0.012613      0.006428      0.001718
      3.69641      2.13499      8.53838        -0.012615      0.006436      0.001719
     -1.23163      2.13412      5.12303         0.011497     -0.007318     -0.001750
      1.23481      2.13316      5.12303         0.011347     -0.007394     -0.001801
     -2.46568      4.26964      5.12303         0.011487     -0.007219     -0.001773
      0.00076      4.26868      5.12303         0.011337     -0.007314     -0.001178
     -1.23163      2.13412     11.95373         0.011322     -0.005629     -0.001970
      1.23481      2.13316     11.95373         0.011452     -0.005701     -0.001921
     -2.46568      4.26964     11.95373         0.011448     -0.005794     -0.001946
      0.00076      4.26868     11.95373         0.011294     -0.005720     -0.001277
     -0.00332      1.42496      1.70768         0.009520     -0.006247      0.012137
      2.46311      1.42400      1.70768         0.036372     -0.006971      0.047334
     -1.23737      3.56047      1.70768         0.081334      0.019597      0.047747
      1.22906      3.55952      1.70768         0.081424     -0.032300      0.046871
     -0.00332      1.42496      8.53838         0.011953     -0.006097     -0.000350
      2.46311      1.42400      8.53838         0.011958     -0.006097     -0.000338
     -1.23737      3.56047      8.53838         0.011956     -0.006101     -0.000339
      1.22906      3.55952      8.53838         0.011955     -0.006098     -0.000336
      1.23571      0.70960      5.12303        -0.011137      0.007027      0.000781
      3.70215      0.70864      5.12303        -0.010733      0.007116      0.000803
      0.00166      2.84512      5.12303        -0.011012      0.006729      0.000793
      2.46810      2.84416      5.12303        -0.010870      0.006955      0.000167
      1.23571      0.70960     11.95373        -0.010301      0.005154      0.000647
      3.70215      0.70864     11.95373        -0.010625      0.005251      0.000614
      0.00166      2.84512     11.95373        -0.010547      0.005493      0.000621
      2.46810      2.84416     11.95373        -0.010405      0.005306      0.000027
 -----------------------------------------------------------------------------------
    total drift:                               -0.000044      0.000027      0.000833


--------------------------------------------------------------------------------------------------------



  FREE ENERGIE OF THE ION-ELECTRON SYSTEM (eV)
  ---------------------------------------------------
  free  energy   TOTEN  =      -299.66619197 eV

  energy  without entropy=     -299.66619197  energy(sigma->0) =     -299.66619197
 


--------------------------------------------------------------------------------------------------------


    POTLOK:  cpu time    0.65: real time    1.30


--------------------------------------------------------------------------------------------------------


     LOOP+:  cpu time 8417.53: real time16843.52
    4ORBIT:  cpu time    0.00: real time    0.00
 BZINTS: Fermi energy:  4.520605;128.000000 electrons
         Band energy:-586.852065;  BLOECHL correction:  0.000000

 total amount of memory used by VASP on root node  1260518. kBytes
========================================================================

   base      :      30000. kBytes
   nonl-proj :     105500. kBytes
   fftplans  :      24957. kBytes
   grid      :      41804. kBytes
   one-center:         98. kBytes
   wavefun   :    1058159. kBytes
 
  
  
 General timing and accounting informations for this job:
 ========================================================
  
                  Total CPU time used (sec):     8472.932
                            User time (sec):     7088.121
                          System time (sec):     1384.810
                         Elapsed time (sec):    16954.577
  
                   Maximum memory used (kb):     1347892.
                   Average memory used (kb):           0.
  
                          Minor page faults:     97204908
                          Major page faults:            0
                 Voluntary context switches:          952
