32   
4    

1    
  0.0059152734967632  -0.0000002666141408   0.0080628493342867
  -0.2666042600    0.0082138500    0.1694600100
  -0.0143012300   -0.0033471600    0.0208557400
  -0.0025466500    0.0078938300    0.0146938200
  -0.0125571000    0.0046316000    0.0141285100
   0.0140422100    0.0022343200    0.1129097500
  -0.0292571500   -0.0016302900    0.0127449900
   0.0001161400    0.0215967000    0.0180056800
  -0.0113139900   -0.0093171100    0.0089607500
   0.0124305900   -0.0209739000   -0.0116112200
  -0.0014647300    0.0047132300   -0.0302991500
  -0.0168475200    0.0048930700   -0.0256389600
   0.0129906900   -0.0036479200   -0.1800831600
  -0.0128842600    0.0022243100   -0.0167692900
   0.0213844000    0.0142615200   -0.0076663100
  -0.0069811900   -0.0246889400   -0.0131698300
   0.0248924300   -0.0046018900   -0.1759720900
   0.0080209000    0.0001020300    0.0048243100
   0.0521177500   -0.0046318200   -0.0456918600
   0.1250907300    0.0408247500   -0.0442832300
   0.1345377200   -0.0369241900   -0.0489924100
  -0.0009726400   -0.0063748700    0.0045480900
   0.0033166600   -0.0034006700   -0.0235814100
  -0.0000989500   -0.0008279200   -0.0238223700
  -0.0005295800   -0.0009822600   -0.0227054100
  -0.0401466300    0.0030328500    0.0336566000
   0.0502721600    0.0428361300    0.0673618400
  -0.0329843100   -0.0507280200    0.0497271700
   0.0170570900    0.0035872300   -0.0049806700
   0.0310749300   -0.0354508900    0.0660861500
  -0.0455150000   -0.0063201300    0.0318301200
  -0.0354644900    0.0479461800    0.0495869700
   0.0231252600    0.0048563700   -0.0041131100

1    
 -0.0059152734967632   0.0000002666141408  -0.0080628493342867
   0.2535466900    0.0057538800   -0.1667910600
   0.0010105200   -0.0055562000   -0.0198725800
   0.0006062300    0.0017483200   -0.0230712000
  -0.0123120500    0.0056201300   -0.0126769200
  -0.0261635800    0.0043145200   -0.1114168800
   0.0192004700   -0.0006529100   -0.0110291200
  -0.0004529400   -0.0088149000   -0.0074918000
  -0.0124109800    0.0227279600   -0.0086601900
  -0.0074566500    0.0128503400    0.0020860800
   0.0227906800    0.0006764100    0.0197661600
   0.0201214100   -0.0211725500    0.0125852100
  -0.0106127900   -0.0062283500    0.1732779900
   0.0175672400    0.0073764500    0.0244090800
  -0.0043672200   -0.0189884500    0.0160070700
   0.0293393300    0.0076150700    0.0235191100
  -0.0007215300   -0.0044046700    0.1786726400
  -0.0032895100   -0.0047836700   -0.0022980500
  -0.0477611800   -0.0005734300    0.0470968200
  -0.1300311700   -0.0389465900    0.0488300800
  -0.1182081500    0.0393150900    0.0462155500
   0.0072433600   -0.0075142600   -0.0079058600
   0.0034971700   -0.0011444300    0.0211849400
   0.0042748500   -0.0000027100    0.0203780500
   0.0075776300   -0.0026538000    0.0221598900
   0.0352413600   -0.0083462000   -0.0314357100
  -0.0351160300   -0.0380744000   -0.0649184800
   0.0309058800    0.0513104500   -0.0484240300
  -0.0295735600    0.0030911200    0.0051501900
  -0.0574816500    0.0435566100   -0.0677288800
   0.0380999700    0.0038941000   -0.0327936100
   0.0280600100   -0.0486945500   -0.0498726600
  -0.0231238000    0.0067016400    0.0050481400

17   
  0.0059152734967632  -0.0000002666141408   0.0080628493342867
   0.0019553800    0.0064090400    0.0035245300
   0.0350696800    0.0052865000   -0.0470667600
   0.1263493400    0.0494127500   -0.0500551400
   0.1138625100   -0.0428830600   -0.0450993000
  -0.0027923200    0.0070276100    0.0016197500
  -0.0185464600    0.0074521600   -0.0238953000
  -0.0116087900    0.0071859600   -0.0181672400
  -0.0116093200   -0.0028142900   -0.0276596800
  -0.0184350400   -0.0072514400    0.0185013000
   0.0346567700    0.0338726200    0.0721286700
  -0.0317591500   -0.0319686900    0.0451943200
   0.0303295900   -0.0001531200    0.0020620100
   0.0305884300   -0.0377732000    0.0857728400
  -0.0159797100   -0.0013389200    0.0243655100
  -0.0251493400    0.0227649700    0.0557438300
   0.0281906400   -0.0071717600   -0.0075359500
  -0.2266837000   -0.0047482700   -0.1479442200
  -0.0102065600   -0.0033805100    0.0134191600
  -0.0048549800   -0.0040793500    0.0149748400
  -0.0090315400    0.0046196300    0.0143076800
   0.0414267500   -0.0012700000   -0.0140678400
  -0.0430866900   -0.0041680600   -0.0119882900
  -0.0012719000    0.0248488200   -0.0137882100
  -0.0046644000   -0.0284869700   -0.0126297800
   0.0167742600    0.0020487300    0.0192450800
  -0.0176128100   -0.0255881000   -0.0017096500
   0.0173437200    0.0143661300    0.0080637700
  -0.0188418300    0.0018859200    0.0068379900
  -0.0142650700    0.0188150700    0.0008835800
   0.0091577900   -0.0031489200    0.0206553300
   0.0149710300   -0.0060031100    0.0116722200
  -0.0142762800    0.0062318900    0.0026349200

17   
 -0.0059152734967632   0.0000002666141408  -0.0080628493342867
  -0.0142119600    0.0028057000   -0.0032310700
  -0.0478806000    0.0058884800    0.0479984800
  -0.1311364700   -0.0447196900    0.0426875500
  -0.1376457800    0.0493277100    0.0527594600
  -0.0078567000    0.0054802800   -0.0017833600
   0.0053262300    0.0079882600    0.0225722700
  -0.0049958800   -0.0023631800    0.0251848000
   0.0025338000    0.0061841200    0.0215976700
   0.0261595600    0.0016451000   -0.0267360400
  -0.0154158600   -0.0355733400   -0.0831782200
   0.0406517400    0.0204281600   -0.0546284700
  -0.0157511400   -0.0075608000    0.0076179300
  -0.0251960100    0.0344612800   -0.0757104500
   0.0320504800   -0.0089233800   -0.0160150100
   0.0443091900   -0.0319616300   -0.0460893600
  -0.0175012400    0.0002363200   -0.0025049800
   0.2362015300   -0.0062818000    0.1495551300
   0.0175102300   -0.0019219900   -0.0129789400
   0.0170151700    0.0046462200   -0.0153994600
   0.0079283500   -0.0014467200   -0.0142675700
  -0.0332256200   -0.0010950100    0.0123320700
   0.0518704200   -0.0073311700    0.0109710800
   0.0133019500   -0.0298572700    0.0116843800
   0.0074949900    0.0238907400    0.0139003000
  -0.0165039500   -0.0023190900   -0.0211695700
   0.0046732500    0.0213354500   -0.0007566500
  -0.0220661500   -0.0026053300   -0.0120411900
   0.0082500200    0.0037310900   -0.0023547000
   0.0100170000   -0.0232719000    0.0015749900
  -0.0252230600    0.0020617300   -0.0177119600
  -0.0252441000    0.0186050600   -0.0071183300
   0.0145606100   -0.0014834100   -0.0067607800
