# Thermal properties / unit cell (natom)

unit:
  temperature:   K
  free_energy:   kJ/mol
  entropy:       J/K/mol
  heat_capacity: J/K/mol

natom:     4
num_modes: 3888
num_integrated_modes: 2964

zero_point_energy:      50.0209324
high_T_entropy:        175.3446607

thermal_properties:
- temperature:         0.0000000
  free_energy:        50.0209324
  entropy:             0.0000000
  heat_capacity:       0.0000000
  energy:             50.0209324

- temperature:        10.0000000
  free_energy:        50.0207253
  entropy:             0.0785938
  heat_capacity:       0.1691132
  energy:             50.0215112

- temperature:        20.0000000
  free_energy:        50.0191121
  entropy:             0.2404250
  heat_capacity:       0.3027713
  energy:             50.0239206

- temperature:        30.0000000
  free_energy:        50.0159681
  entropy:             0.3871971
  heat_capacity:       0.4324784
  energy:             50.0275841

- temperature:        40.0000000
  free_energy:        50.0113753
  entropy:             0.5317570
  heat_capacity:       0.5863130
  energy:             50.0326456

- temperature:        50.0000000
  free_energy:        50.0053076
  entropy:             0.6839833
  heat_capacity:       0.7986748
  energy:             50.0395068

- temperature:        60.0000000
  free_energy:        49.9976340
  entropy:             0.8546523
  heat_capacity:       1.0985886
  energy:             50.0489131

- temperature:        70.0000000
  free_energy:        49.9881231
  entropy:             1.0526706
  heat_capacity:       1.4976089
  energy:             50.0618100

- temperature:        80.0000000
  free_energy:        49.9764688
  entropy:             1.2841378
  heat_capacity:       1.9968576
  energy:             50.0791998

- temperature:        90.0000000
  free_energy:        49.9623161
  entropy:             1.5528244
  heat_capacity:       2.5929716
  energy:             50.1020703

- temperature:       100.0000000
  free_energy:        49.9452811
  entropy:             1.8608286
  heat_capacity:       3.2804546
  energy:             50.1313640

- temperature:       110.0000000
  free_energy:        49.9249654
  entropy:             2.2090485
  heat_capacity:       4.0522931
  energy:             50.1679607

- temperature:       120.0000000
  free_energy:        49.9009660
  entropy:             2.5974798
  heat_capacity:       4.9002352
  energy:             50.2126636

- temperature:       130.0000000
  free_energy:        49.8728840
  entropy:             3.0254221
  heat_capacity:       5.8152105
  energy:             50.2661889

- temperature:       140.0000000
  free_energy:        49.8403299
  entropy:             3.4916439
  heat_capacity:       6.7878770
  energy:             50.3291601

- temperature:       150.0000000
  free_energy:        49.8029289
  entropy:             3.9945299
  heat_capacity:       7.8091505
  energy:             50.4021084

- temperature:       160.0000000
  free_energy:        49.7603233
  entropy:             4.5322100
  heat_capacity:       8.8706075
  energy:             50.4854769

- temperature:       170.0000000
  free_energy:        49.7121754
  entropy:             5.1026697
  heat_capacity:       9.9647201
  energy:             50.5796292

- temperature:       180.0000000
  free_energy:        49.6581676
  entropy:             5.7038370
  heat_capacity:      11.0849368
  energy:             50.6848583

- temperature:       190.0000000
  free_energy:        49.5980032
  entropy:             6.3336474
  heat_capacity:      12.2256483
  energy:             50.8013962

- temperature:       200.0000000
  free_energy:        49.5314059
  entropy:             6.9900883
  heat_capacity:      13.3820831
  energy:             50.9294236

- temperature:       210.0000000
  free_energy:        49.4581191
  entropy:             7.6712264
  heat_capacity:      14.5501724
  energy:             51.0690767

- temperature:       220.0000000
  free_energy:        49.3779052
  entropy:             8.3752224
  heat_capacity:      15.7264105
  energy:             51.2204541

- temperature:       230.0000000
  free_energy:        49.2905443
  entropy:             9.1003369
  heat_capacity:      16.9077294
  energy:             51.3836218

- temperature:       240.0000000
  free_energy:        49.1958335
  entropy:             9.8449290
  heat_capacity:      18.0913950
  energy:             51.5586165

- temperature:       250.0000000
  free_energy:        49.0935859
  entropy:            10.6074530
  heat_capacity:      19.2749275
  energy:             51.7454492

- temperature:       260.0000000
  free_energy:        48.9836296
  entropy:            11.3864516
  heat_capacity:      20.4560442
  energy:             51.9441070

- temperature:       270.0000000
  free_energy:        48.8658066
  entropy:            12.1805495
  heat_capacity:      21.6326225
  energy:             52.1545549

- temperature:       280.0000000
  free_energy:        48.7399726
  entropy:            12.9884467
  heat_capacity:      22.8026767
  energy:             52.3767377

- temperature:       290.0000000
  free_energy:        48.6059958
  entropy:            13.8089129
  heat_capacity:      23.9643465
  energy:             52.6105805

- temperature:       300.0000000
  free_energy:        48.4637563
  entropy:            14.6407817
  heat_capacity:      25.1158929
  energy:             52.8559908

- temperature:       310.0000000
  free_energy:        48.3131458
  entropy:            15.4829465
  heat_capacity:      26.2556978
  energy:             53.1128592

- temperature:       320.0000000
  free_energy:        48.1540666
  entropy:            16.3343565
  heat_capacity:      27.3822668
  energy:             53.3810607

- temperature:       330.0000000
  free_energy:        47.9864312
  entropy:            17.1940141
  heat_capacity:      28.4942314
  energy:             53.6604559

- temperature:       340.0000000
  free_energy:        47.8101620
  entropy:            18.0609720
  heat_capacity:      29.5903521
  energy:             53.9508925

- temperature:       350.0000000
  free_energy:        47.6251904
  entropy:            18.9343313
  heat_capacity:      30.6695190
  energy:             54.2522064

- temperature:       360.0000000
  free_energy:        47.4314569
  entropy:            19.8132394
  heat_capacity:      31.7307518
  energy:             54.5642230

- temperature:       370.0000000
  free_energy:        47.2289098
  entropy:            20.6968890
  heat_capacity:      32.7731982
  energy:             54.8867588

- temperature:       380.0000000
  free_energy:        47.0175058
  entropy:            21.5845161
  heat_capacity:      33.7961307
  energy:             55.2196219

- temperature:       390.0000000
  free_energy:        46.7972087
  entropy:            22.4753991
  heat_capacity:      34.7989419
  energy:             55.5626143

- temperature:       400.0000000
  free_energy:        46.5679893
  entropy:            23.3688570
  heat_capacity:      35.7811392
  energy:             55.9155321

- temperature:       410.0000000
  free_energy:        46.3298251
  entropy:            24.2642488
  heat_capacity:      36.7423384
  energy:             56.2781671

- temperature:       420.0000000
  free_energy:        46.0826998
  entropy:            25.1609715
  heat_capacity:      37.6822565
  energy:             56.6503079

- temperature:       430.0000000
  free_energy:        45.8266031
  entropy:            26.0584594
  heat_capacity:      38.6007044
  energy:             57.0317406

- temperature:       440.0000000
  free_energy:        45.5615299
  entropy:            26.9561822
  heat_capacity:      39.4975797
  energy:             57.4222501

- temperature:       450.0000000
  free_energy:        45.2874803
  entropy:            27.8536442
  heat_capacity:      40.3728581
  energy:             57.8216202

- temperature:       460.0000000
  free_energy:        45.0044594
  entropy:            28.7503825
  heat_capacity:      41.2265868
  energy:             58.2296354

- temperature:       470.0000000
  free_energy:        44.7124765
  entropy:            29.6459659
  heat_capacity:      42.0588766
  energy:             58.6460805

- temperature:       480.0000000
  free_energy:        44.4115453
  entropy:            30.5399932
  heat_capacity:      42.8698952
  energy:             59.0707420

- temperature:       490.0000000
  free_energy:        44.1016831
  entropy:            31.4320921
  heat_capacity:      43.6598599
  energy:             59.5034082

- temperature:       500.0000000
  free_energy:        43.7829110
  entropy:            32.3219177
  heat_capacity:      44.4290321
  energy:             59.9438699

- temperature:       510.0000000
  free_energy:        43.4552534
  entropy:            33.2091513
  heat_capacity:      45.1777106
  energy:             60.3919205

- temperature:       520.0000000
  free_energy:        43.1187376
  entropy:            34.0934986
  heat_capacity:      45.9062265
  energy:             60.8473569

- temperature:       530.0000000
  free_energy:        42.7733939
  entropy:            34.9746889
  heat_capacity:      46.6149384
  energy:             61.3099791

- temperature:       540.0000000
  free_energy:        42.4192552
  entropy:            35.8524735
  heat_capacity:      47.3042274
  energy:             61.7795909

- temperature:       550.0000000
  free_energy:        42.0563566
  entropy:            36.7266247
  heat_capacity:      47.9744929
  energy:             62.2560002

- temperature:       560.0000000
  free_energy:        41.6847355
  entropy:            37.5969343
  heat_capacity:      48.6261493
  energy:             62.7390187

- temperature:       570.0000000
  free_energy:        41.3044313
  entropy:            38.4632127
  heat_capacity:      49.2596220
  energy:             63.2284626

- temperature:       580.0000000
  free_energy:        40.9154853
  entropy:            39.3252875
  heat_capacity:      49.8753448
  energy:             63.7241520

- temperature:       590.0000000
  free_energy:        40.5179401
  entropy:            40.1830028
  heat_capacity:      50.4737570
  energy:             64.2259118

- temperature:       600.0000000
  free_energy:        40.1118402
  entropy:            41.0362178
  heat_capacity:      51.0553010
  energy:             64.7335709

- temperature:       610.0000000
  free_energy:        39.6972312
  entropy:            41.8848063
  heat_capacity:      51.6204204
  energy:             65.2469630

- temperature:       620.0000000
  free_energy:        39.2741599
  entropy:            42.7286551
  heat_capacity:      52.1695578
  energy:             65.7659261

- temperature:       630.0000000
  free_energy:        38.8426742
  entropy:            43.5676637
  heat_capacity:      52.7031534
  energy:             66.2903024

- temperature:       640.0000000
  free_energy:        38.4028231
  entropy:            44.4017433
  heat_capacity:      53.2216437
  energy:             66.8199388

- temperature:       650.0000000
  free_energy:        37.9546561
  entropy:            45.2308158
  heat_capacity:      53.7254602
  energy:             67.3546863

- temperature:       660.0000000
  free_energy:        37.4982237
  entropy:            46.0548134
  heat_capacity:      54.2150284
  energy:             67.8944005

- temperature:       670.0000000
  free_energy:        37.0335769
  entropy:            46.8736775
  heat_capacity:      54.6907669
  energy:             68.4389408

- temperature:       680.0000000
  free_energy:        36.5607674
  entropy:            47.6873584
  heat_capacity:      55.1530868
  energy:             68.9881711

- temperature:       690.0000000
  free_energy:        36.0798471
  entropy:            48.4958145
  heat_capacity:      55.6023909
  energy:             69.5419592

- temperature:       700.0000000
  free_energy:        35.5908686
  entropy:            49.2990117
  heat_capacity:      56.0390736
  energy:             70.1001768

- temperature:       710.0000000
  free_energy:        35.0938845
  entropy:            50.0969230
  heat_capacity:      56.4635202
  energy:             70.6626998

- temperature:       720.0000000
  free_energy:        34.5889478
  entropy:            50.8895276
  heat_capacity:      56.8761069
  energy:             71.2294077

- temperature:       730.0000000
  free_energy:        34.0761117
  entropy:            51.6768109
  heat_capacity:      57.2772000
  energy:             71.8001837

- temperature:       740.0000000
  free_energy:        33.5554294
  entropy:            52.4587638
  heat_capacity:      57.6671568
  energy:             72.3749146

- temperature:       750.0000000
  free_energy:        33.0269542
  entropy:            53.2353822
  heat_capacity:      58.0463245
  energy:             72.9534908

- temperature:       760.0000000
  free_energy:        32.4907395
  entropy:            54.0066667
  heat_capacity:      58.4150407
  energy:             73.5358062

- temperature:       770.0000000
  free_energy:        31.9468387
  entropy:            54.7726224
  heat_capacity:      58.7736334
  energy:             74.1217579

- temperature:       780.0000000
  free_energy:        31.3953048
  entropy:            55.5332582
  heat_capacity:      59.1224208
  energy:             74.7112462

- temperature:       790.0000000
  free_energy:        30.8361912
  entropy:            56.2885867
  heat_capacity:      59.4617118
  energy:             75.3041747

- temperature:       800.0000000
  free_energy:        30.2695507
  entropy:            57.0386239
  heat_capacity:      59.7918058
  energy:             75.9004498

- temperature:       810.0000000
  free_energy:        29.6954363
  entropy:            57.7833887
  heat_capacity:      60.1129927
  energy:             76.4999811

- temperature:       820.0000000
  free_energy:        29.1139005
  entropy:            58.5229030
  heat_capacity:      60.4255537
  energy:             77.1026809

- temperature:       830.0000000
  free_energy:        28.5249956
  entropy:            59.2571912
  heat_capacity:      60.7297607
  energy:             77.7084643

- temperature:       840.0000000
  free_energy:        27.9287740
  entropy:            59.9862800
  heat_capacity:      61.0258771
  energy:             78.3172492

- temperature:       850.0000000
  free_energy:        27.3252873
  entropy:            60.7101982
  heat_capacity:      61.3141577
  energy:             78.9289558

- temperature:       860.0000000
  free_energy:        26.7145871
  entropy:            61.4289766
  heat_capacity:      61.5948488
  energy:             79.5435070

- temperature:       870.0000000
  free_energy:        26.0967248
  entropy:            62.1426477
  heat_capacity:      61.8681887
  energy:             80.1608282

- temperature:       880.0000000
  free_energy:        25.4717511
  entropy:            62.8512454
  heat_capacity:      62.1344079
  energy:             80.7808471

- temperature:       890.0000000
  free_energy:        24.8397167
  entropy:            63.5548053
  heat_capacity:      62.3937290
  energy:             81.4034934

- temperature:       900.0000000
  free_energy:        24.2006717
  entropy:            64.2533641
  heat_capacity:      62.6463673
  energy:             82.0286994

- temperature:       910.0000000
  free_energy:        23.5546659
  entropy:            64.9469596
  heat_capacity:      62.8925308
  energy:             82.6563992

- temperature:       920.0000000
  free_energy:        22.9017489
  entropy:            65.6356306
  heat_capacity:      63.1324205
  energy:             83.2865291

- temperature:       930.0000000
  free_energy:        22.2419696
  entropy:            66.3194169
  heat_capacity:      63.3662305
  energy:             83.9190273

- temperature:       940.0000000
  free_energy:        21.5753767
  entropy:            66.9983589
  heat_capacity:      63.5941483
  energy:             84.5538340

- temperature:       950.0000000
  free_energy:        20.9020184
  entropy:            67.6724977
  heat_capacity:      63.8163553
  energy:             85.1908912

- temperature:       960.0000000
  free_energy:        20.2219426
  entropy:            68.3418751
  heat_capacity:      64.0330264
  energy:             85.8301427

- temperature:       970.0000000
  free_energy:        19.5351966
  entropy:            69.0065332
  heat_capacity:      64.2443306
  energy:             86.4715339

- temperature:       980.0000000
  free_energy:        18.8418275
  entropy:            69.6665147
  heat_capacity:      64.4504314
  energy:             87.1150120

- temperature:       990.0000000
  free_energy:        18.1418818
  entropy:            70.3218625
  heat_capacity:      64.6514863
  energy:             87.7605257

- temperature:      1000.0000000
  free_energy:        17.4354056
  entropy:            70.9726198
  heat_capacity:      64.8476479
  energy:             88.4080254
