  32  32   0   0
  0.8905205E+01  0.4932875E-09  0.4932875E-09  0.1352877E-08  0.5000000E-15
  1.000000000000000E-004
  CAR 
 graphite                                
     15.35787132    -17.01684890  301      4.60360472      1.00000000
    -17.017  0.0000E+00  0.0000E+00
    -16.909  0.0000E+00  0.0000E+00
    -16.801  0.0000E+00  0.0000E+00
    -16.693  0.0000E+00  0.0000E+00
    -16.585  0.0000E+00  0.0000E+00
    -16.477  0.0000E+00  0.0000E+00
    -16.369  0.0000E+00  0.0000E+00
    -16.261  0.0000E+00  0.0000E+00
    -16.154  0.0000E+00  0.0000E+00
    -16.046  0.0000E+00  0.0000E+00
    -15.938  0.0000E+00  0.0000E+00
    -15.830  0.0000E+00  0.0000E+00
    -15.722  0.0000E+00  0.0000E+00
    -15.614  0.0000E+00  0.0000E+00
    -15.506  0.0000E+00  0.0000E+00
    -15.398  0.0000E+00  0.0000E+00
    -15.290  0.0000E+00  0.0000E+00
    -15.182  0.0000E+00  0.0000E+00
    -15.074  0.0000E+00  0.0000E+00
    -14.966  0.9950E+00  0.1929E-01
    -14.859  0.2416E+01  0.2182E+00
    -14.751  0.3927E+01  0.5584E+00
    -14.643  0.4762E+01  0.1064E+01
    -14.535  0.5033E+01  0.1595E+01
    -14.427  0.4891E+01  0.2128E+01
    -14.319  0.4946E+01  0.2660E+01
    -14.211  0.4906E+01  0.3193E+01
    -14.103  0.4974E+01  0.3726E+01
    -13.995  0.4976E+01  0.4263E+01
    -13.887  0.5008E+01  0.4801E+01
    -13.779  0.5566E+01  0.5365E+01
    -13.671  0.5865E+01  0.5987E+01
    -13.564  0.7003E+01  0.6688E+01
    -13.456  0.4004E+01  0.7303E+01
    -13.348  0.1832E+01  0.7699E+01
    -13.240  0.2973E+01  0.7928E+01
    -13.132  0.4195E+01  0.8355E+01
    -13.024  0.4580E+01  0.8831E+01
    -12.916  0.5929E+01  0.9561E+01
    -12.808  0.6805E+01  0.1024E+02
    -12.700  0.4332E+01  0.1083E+02
    -12.592  0.4507E+01  0.1131E+02
    -12.484  0.4655E+01  0.1180E+02
    -12.376  0.4771E+01  0.1231E+02
    -12.269  0.5079E+01  0.1284E+02
    -12.161  0.5373E+01  0.1340E+02
    -12.053  0.5782E+01  0.1403E+02
    -11.945  0.5474E+01  0.1463E+02
    -11.837  0.5146E+01  0.1520E+02
    -11.729  0.4979E+01  0.1575E+02
    -11.621  0.4912E+01  0.1628E+02
    -11.513  0.5015E+01  0.1681E+02
    -11.405  0.5079E+01  0.1736E+02
    -11.297  0.5157E+01  0.1791E+02
    -11.189  0.5457E+01  0.1848E+02
    -11.081  0.5788E+01  0.1909E+02
    -10.974  0.5815E+01  0.1972E+02
    -10.866  0.5752E+01  0.2034E+02
    -10.758  0.5786E+01  0.2096E+02
    -10.650  0.5525E+01  0.2159E+02
    -10.542  0.4504E+01  0.2212E+02
    -10.434  0.5027E+01  0.2263E+02
    -10.326  0.5320E+01  0.2319E+02
    -10.218  0.5403E+01  0.2377E+02
    -10.110  0.5585E+01  0.2436E+02
    -10.002  0.5829E+01  0.2498E+02
     -9.894  0.6971E+01  0.2565E+02
     -9.786  0.9457E+01  0.2651E+02
     -9.679  0.7941E+01  0.2753E+02
     -9.571  0.5569E+01  0.2824E+02
     -9.463  0.5920E+01  0.2894E+02
     -9.355  0.3718E+01  0.2953E+02
     -9.247  0.3348E+01  0.2991E+02
     -9.139  0.2979E+01  0.3025E+02
     -9.031  0.2609E+01  0.3055E+02
     -8.923  0.2292E+01  0.3081E+02
     -8.815  0.3389E+01  0.3111E+02
     -8.707  0.2331E+01  0.3141E+02
     -8.599  0.1418E+01  0.3159E+02
     -8.492  0.2236E+01  0.3179E+02
     -8.384  0.4583E+01  0.3211E+02
     -8.276  0.5835E+01  0.3286E+02
     -8.168  0.3806E+01  0.3334E+02
     -8.060  0.4133E+01  0.3377E+02
     -7.952  0.8198E+01  0.3429E+02
     -7.844  0.7232E+01  0.3510E+02
     -7.736  0.6954E+01  0.3579E+02
     -7.628  0.8049E+01  0.3660E+02
     -7.520  0.9196E+01  0.3753E+02
     -7.412  0.6384E+01  0.3837E+02
     -7.304  0.6122E+01  0.3904E+02
     -7.197  0.5860E+01  0.3969E+02
     -7.089  0.5617E+01  0.4031E+02
     -6.981  0.5415E+01  0.4090E+02
     -6.873  0.5235E+01  0.4148E+02
     -6.765  0.5049E+01  0.4203E+02
     -6.657  0.4874E+01  0.4257E+02
     -6.549  0.4831E+01  0.4309E+02
     -6.441  0.4803E+01  0.4361E+02
     -6.333  0.4738E+01  0.4413E+02
     -6.225  0.4510E+01  0.4463E+02
     -6.117  0.4395E+01  0.4510E+02
     -6.009  0.3593E+01  0.4553E+02
     -5.902  0.4069E+01  0.4596E+02
     -5.794  0.4696E+01  0.4643E+02
     -5.686  0.5437E+01  0.4698E+02
     -5.578  0.6265E+01  0.4761E+02
     -5.470  0.8892E+01  0.4839E+02
     -5.362  0.9564E+01  0.4946E+02
     -5.254  0.7266E+01  0.5037E+02
     -5.146  0.4968E+01  0.5103E+02
     -5.038  0.2813E+01  0.5144E+02
     -4.930  0.2700E+01  0.5173E+02
     -4.822  0.3723E+01  0.5207E+02
     -4.714  0.5061E+01  0.5254E+02
     -4.607  0.6486E+01  0.5316E+02
     -4.499  0.8073E+01  0.5396E+02
     -4.391  0.7367E+01  0.5481E+02
     -4.283  0.6144E+01  0.5554E+02
     -4.175  0.5649E+01  0.5616E+02
     -4.067  0.7526E+01  0.5691E+02
     -3.959  0.7006E+01  0.5770E+02
     -3.851  0.6492E+01  0.5842E+02
     -3.743  0.6613E+01  0.5913E+02
     -3.635  0.6347E+01  0.5983E+02
     -3.527  0.1258E+02  0.6076E+02
     -3.419  0.8655E+01  0.6194E+02
     -3.312  0.8282E+01  0.6287E+02
     -3.204  0.7644E+01  0.6372E+02
     -3.096  0.6727E+01  0.6450E+02
     -2.988  0.7239E+01  0.6524E+02
     -2.880  0.8221E+01  0.6607E+02
     -2.772  0.9425E+01  0.6702E+02
     -2.664  0.1309E+02  0.6822E+02
     -2.556  0.1571E+02  0.6974E+02
     -2.448  0.1151E+02  0.7108E+02
     -2.340  0.1250E+02  0.7236E+02
     -2.232  0.1186E+02  0.7370E+02
     -2.124  0.1503E+02  0.7523E+02
     -2.017  0.1343E+02  0.7668E+02
     -1.909  0.1644E+02  0.7849E+02
     -1.801  0.1086E+02  0.7982E+02
     -1.693  0.2101E+02  0.8161E+02
     -1.585  0.1861E+02  0.8355E+02
     -1.477  0.1597E+02  0.8553E+02
     -1.369  0.1334E+02  0.8710E+02
     -1.261  0.1109E+02  0.8841E+02
     -1.153  0.1019E+02  0.8957E+02
     -1.045  0.8559E+01  0.9055E+02
     -0.937  0.9165E+01  0.9141E+02
     -0.829  0.1321E+02  0.9261E+02
     -0.722  0.1329E+02  0.9406E+02
     -0.614  0.1122E+02  0.9571E+02
     -0.506  0.9081E+01  0.9671E+02
     -0.398  0.1026E+02  0.9776E+02
     -0.290  0.1026E+02  0.9890E+02
     -0.182  0.1091E+02  0.1000E+03
     -0.074  0.9903E+01  0.1012E+03
      0.034  0.9249E+01  0.1022E+03
      0.142  0.1022E+02  0.1033E+03
      0.250  0.9691E+01  0.1043E+03
      0.358  0.9563E+01  0.1054E+03
      0.466  0.9222E+01  0.1064E+03
      0.573  0.9302E+01  0.1074E+03
      0.681  0.9360E+01  0.1084E+03
      0.789  0.9338E+01  0.1094E+03
      0.897  0.9240E+01  0.1104E+03
      1.005  0.9171E+01  0.1114E+03
      1.113  0.9377E+01  0.1124E+03
      1.221  0.9602E+01  0.1134E+03
      1.329  0.1006E+02  0.1145E+03
      1.437  0.9211E+01  0.1155E+03
      1.545  0.8857E+01  0.1166E+03
      1.653  0.6429E+01  0.1173E+03
      1.760  0.6472E+01  0.1180E+03
      1.868  0.5254E+01  0.1187E+03
      1.976  0.4191E+01  0.1192E+03
      2.084  0.4047E+01  0.1196E+03
      2.192  0.5525E+01  0.1201E+03
      2.300  0.7790E+01  0.1209E+03
      2.408  0.8736E+01  0.1219E+03
      2.516  0.5769E+01  0.1225E+03
      2.624  0.8274E+01  0.1234E+03
      2.732  0.5949E+01  0.1241E+03
      2.840  0.4823E+01  0.1247E+03
      2.948  0.4044E+01  0.1252E+03
      3.055  0.3505E+01  0.1256E+03
      3.163  0.3220E+01  0.1260E+03
      3.271  0.3013E+01  0.1263E+03
      3.379  0.2630E+01  0.1266E+03
      3.487  0.2240E+01  0.1269E+03
      3.595  0.1943E+01  0.1271E+03
      3.703  0.1709E+01  0.1273E+03
      3.811  0.1471E+01  0.1275E+03
      3.919  0.1235E+01  0.1276E+03
      4.027  0.1008E+01  0.1277E+03
      4.135  0.8196E+00  0.1278E+03
      4.243  0.6089E+00  0.1279E+03
      4.350  0.4117E+00  0.1279E+03
      4.458  0.2265E+00  0.1280E+03
      4.566  0.5125E-01  0.1280E+03
      4.674  0.6786E-01  0.1280E+03
      4.782  0.1974E+00  0.1280E+03
      4.890  0.3386E+00  0.1280E+03
      4.998  0.4950E+00  0.1281E+03
      5.106  0.6684E+00  0.1282E+03
      5.214  0.8702E+00  0.1282E+03
      5.322  0.1176E+01  0.1283E+03
      5.430  0.1537E+01  0.1285E+03
      5.538  0.1895E+01  0.1287E+03
      5.645  0.2250E+01  0.1289E+03
      5.753  0.2678E+01  0.1292E+03
      5.861  0.3083E+01  0.1295E+03
      5.969  0.3881E+01  0.1299E+03
      6.077  0.8606E+01  0.1303E+03
      6.185  0.1231E+02  0.1312E+03
      6.293  0.8438E+01  0.1322E+03
      6.401  0.7841E+01  0.1331E+03
      6.509  0.7975E+01  0.1340E+03
      6.617  0.6658E+01  0.1348E+03
      6.725  0.6046E+01  0.1355E+03
      6.833  0.5995E+01  0.1361E+03
      6.940  0.5311E+01  0.1367E+03
      7.048  0.4686E+01  0.1373E+03
      7.156  0.3892E+01  0.1377E+03
      7.264  0.3543E+01  0.1381E+03
      7.372  0.3644E+01  0.1385E+03
      7.480  0.4116E+01  0.1389E+03
      7.588  0.4505E+01  0.1394E+03
      7.696  0.4812E+01  0.1399E+03
      7.804  0.4645E+01  0.1404E+03
      7.912  0.4483E+01  0.1409E+03
      8.020  0.4323E+01  0.1414E+03
      8.128  0.4160E+01  0.1419E+03
      8.235  0.3972E+01  0.1423E+03
      8.343  0.3815E+01  0.1427E+03
      8.451  0.3668E+01  0.1431E+03
      8.559  0.3568E+01  0.1435E+03
      8.667  0.3501E+01  0.1439E+03
      8.775  0.3396E+01  0.1443E+03
      8.883  0.3334E+01  0.1446E+03
      8.991  0.3561E+01  0.1450E+03
      9.099  0.3773E+01  0.1454E+03
      9.207  0.3983E+01  0.1458E+03
      9.315  0.4080E+01  0.1462E+03
      9.423  0.4173E+01  0.1467E+03
      9.530  0.3989E+01  0.1471E+03
      9.638  0.3943E+01  0.1476E+03
      9.746  0.3933E+01  0.1480E+03
      9.854  0.3929E+01  0.1484E+03
      9.962  0.3944E+01  0.1488E+03
     10.070  0.3968E+01  0.1493E+03
     10.178  0.4022E+01  0.1497E+03
     10.286  0.4093E+01  0.1501E+03
     10.394  0.4229E+01  0.1506E+03
     10.502  0.4278E+01  0.1510E+03
     10.610  0.5584E+01  0.1516E+03
     10.717  0.5057E+01  0.1522E+03
     10.825  0.4949E+01  0.1528E+03
     10.933  0.4636E+01  0.1533E+03
     11.041  0.4894E+01  0.1537E+03
     11.149  0.3764E+01  0.1542E+03
     11.257  0.3462E+01  0.1546E+03
     11.365  0.3655E+01  0.1550E+03
     11.473  0.4253E+01  0.1554E+03
     11.581  0.2880E+01  0.1558E+03
     11.689  0.2455E+01  0.1561E+03
     11.797  0.3519E+01  0.1564E+03
     11.905  0.6409E+01  0.1569E+03
     12.012  0.6770E+01  0.1576E+03
     12.120  0.9142E+01  0.1585E+03
     12.228  0.1085E+02  0.1595E+03
     12.336  0.1125E+02  0.1608E+03
     12.444  0.9941E+01  0.1620E+03
     12.552  0.6759E+01  0.1629E+03
     12.660  0.3348E+01  0.1634E+03
     12.768  0.1902E+01  0.1637E+03
     12.876  0.1137E+01  0.1638E+03
     12.984  0.6736E+00  0.1639E+03
     13.092  0.3309E+00  0.1640E+03
     13.200  0.1023E+00  0.1640E+03
     13.307  0.4503E-02  0.1640E+03
     13.415  0.0000E+00  0.1640E+03
     13.523  0.0000E+00  0.1640E+03
     13.631  0.0000E+00  0.1640E+03
     13.739  0.0000E+00  0.1640E+03
     13.847  0.0000E+00  0.1640E+03
     13.955  0.0000E+00  0.1640E+03
     14.063  0.0000E+00  0.1640E+03
     14.171  0.0000E+00  0.1640E+03
     14.279  0.0000E+00  0.1640E+03
     14.387  0.0000E+00  0.1640E+03
     14.495  0.0000E+00  0.1640E+03
     14.602  0.0000E+00  0.1640E+03
     14.710  0.0000E+00  0.1640E+03
     14.818  0.0000E+00  0.1640E+03
     14.926  0.0000E+00  0.1640E+03
     15.034  0.0000E+00  0.1640E+03
     15.142  0.0000E+00  0.1640E+03
     15.250  0.0000E+00  0.1640E+03
     15.358  0.0000E+00  0.1640E+03
