   32   32    1    1
  0.8905205E+01  0.4932875E-09  0.4932875E-09  0.1352877E-08  0.5000000E-15
  1.000000000000000E-004
  CAR 
 graphite                                
    128    163     82
 
  0.0000000E+00  0.0000000E+00  0.0000000E+00  0.3086420E-02
    1      -15.016849
    2      -14.880663
    3      -14.880267
    4      -14.735072
    5       -9.698994
    6       -9.688440
    7       -9.686108
    8       -9.643940
    9       -9.641810
   10       -9.632002
   11       -9.630116
   12       -9.630069
   13       -9.626683
   14       -9.595559
   15       -9.582866
   16       -9.579658
   17       -8.623303
   18       -8.621637
   19       -8.620014
   20       -8.593273
   21       -8.592022
   22       -8.590375
   23       -8.589468
   24       -8.589427
   25       -8.587316
   26       -8.543138
   27       -8.542722
   28       -8.540721
   29       -3.859918
   30       -3.008339
   31       -3.006724
   32       -1.973928
   33       -1.795587
   34       -1.793333
   35       -1.777788
   36       -1.770371
   37       -1.769061
   38       -1.769052
   39       -1.765602
   40       -1.752922
   41       -1.750367
   42       -1.743767
   43       -1.740967
   44       -1.725709
   45        1.600188
   46        1.606988
   47        1.607806
   48        1.612589
   49        1.618801
   50        1.623919
   51        1.624452
   52        1.631000
   53        1.865381
   54        1.868103
   55        1.869656
   56        2.245762
   57        2.249329
   58        2.255980
   59        2.256468
   60        2.256800
   61        2.260931
   62        2.512244
   63        2.529903
   64        2.532507
   65        6.115861
   66        6.118989
   67        6.125064
   68        6.261260
   69        6.263064
   70        6.265335
   71        6.267723
   72        6.267939
   73        6.270286
   74        6.766871
   75        6.773978
   76        6.776469
   77        8.844500
   78       11.416620
   79       11.420300
   80       11.816490
   81       11.961584
   82       12.013566
 
  0.1111111E+00  0.1387779E-16  0.0000000E+00  0.6172840E-02
    1      -14.943241
    2      -14.807548
    3      -14.807152
    4      -14.662668
    5      -10.483404
    6      -10.386484
    7      -10.386197
    8      -10.285733
    9       -9.946027
   10       -9.937163
   11       -9.863331
   12       -9.861969
   13       -9.853204
   14       -9.852774
   15       -9.778753
   16       -9.768678
   17       -8.317364
   18       -8.313302
   19       -8.251773
   20       -8.250028
   21       -8.246344
   22       -8.245823
   23       -8.177111
   24       -8.172342
   25       -7.801941
   26       -7.726881
   27       -7.724879
   28       -7.646199
   29       -3.770538
   30       -2.921221
   31       -2.919608
   32       -2.021645
   33       -2.004660
   34       -1.993121
   35       -1.992839
   36       -1.977040
   37       -1.974565
   38       -1.964041
   39       -1.946918
   40       -1.890210
   41       -1.721267
   42       -1.696733
   43       -1.694370
   44       -1.669766
   45        1.279724
   46        1.306096
   47        1.317299
   48        1.321623
   49        1.331787
   50        1.446029
   51        1.455651
   52        1.459562
   53        1.470963
   54        1.749526
   55        1.753582
   56        1.829519
   57        1.832088
   58        2.194278
   59        2.197723
   60        2.204025
   61        2.205378
   62        2.374164
   63        2.562420
   64        2.577964
   65        6.197420
   66        6.202038
   67        6.393088
   68        6.396104
   69        6.398625
   70        6.401194
   71        6.492246
   72        6.804870
   73        6.808927
   74        6.902206
   75        6.910187
   76        7.370830
   77        8.933608
   78       11.494487
   79       11.498114
   80       11.857801
   81       12.064177
   82       12.122657
 
  0.2222222E+00  0.2775558E-16  0.0000000E+00  0.6172840E-02
    1      -14.722599
    2      -14.588663
    3      -14.588268
    4      -14.445798
    5      -11.494651
    6      -11.386613
    7      -11.386251
    8      -11.273196
    9      -10.292324
   10      -10.286385
   11      -10.197863
   12      -10.196904
   13      -10.191254
   14      -10.190733
   15      -10.098674
   16      -10.092281
   17       -7.636907
   18       -7.629605
   19       -7.564288
   20       -7.562686
   21       -7.556093
   22       -7.555697
   23       -7.486141
   24       -7.478686
   25       -6.476220
   26       -6.406258
   27       -6.404335
   28       -6.331724
   29       -3.503207
   30       -2.660947
   31       -2.659348
   32       -2.628385
   33       -2.612429
   34       -2.593443
   35       -2.592985
   36       -2.578170
   37       -2.575781
   38       -2.556984
   39       -2.540848
   40       -1.640069
   41       -1.506256
   42       -1.482267
   43       -1.479822
   44       -1.455623
   45        0.262774
   46        0.480315
   47        0.498667
   48        0.503120
   49        0.521378
   50        0.939577
   51        0.941560
   52        1.025786
   53        1.039456
   54        1.043475
   55        1.057952
   56        1.529962
   57        1.534214
   58        1.706943
   59        2.073533
   60        2.076796
   61        2.081561
   62        2.082817
   63        2.614491
   64        2.625548
   65        6.448452
   66        6.450577
   67        6.727536
   68        6.730074
   69        6.733154
   70        6.735758
   71        7.211508
   72        7.217055
   73        7.627763
   74        8.028345
   75        8.031691
   76        8.583371
   77        9.201615
   78       11.726912
   79       11.730322
   80       11.973382
   81       12.146787
   82       12.301504
 
  0.3333333E+00  0.0000000E+00  0.0000000E+00  0.6172840E-02
    1      -14.356129
    2      -14.225098
    3      -14.224701
    4      -14.085540
    5      -12.407636
    6      -12.292134
    7      -12.291744
    8      -12.169926
    9      -10.548450
   10      -10.544777
   11      -10.449641
   12      -10.448659
   13      -10.445432
   14      -10.444700
   15      -10.345379
   16      -10.341522
   17       -6.828899
   18       -6.819910
   19       -6.762091
   20       -6.760400
   21       -6.752460
   22       -6.751794
   23       -6.691112
   24       -6.682256
   25       -5.042674
   26       -4.982274
   27       -4.980104
   28       -4.917856
   29       -3.444146
   30       -3.430142
   31       -3.403030
   32       -3.402174
   33       -3.389640
   34       -3.387161
   35       -3.359612
   36       -3.345465
   37       -3.060520
   38       -2.230788
   39       -2.229207
   40       -1.227572
   41       -1.156902
   42       -1.134130
   43       -1.131521
   44       -1.108120
   45       -0.758096
   46       -0.704096
   47       -0.675884
   48       -0.672274
   49       -0.643957
   50       -0.014419
   51       -0.012703
   52        0.462601
   53        0.479714
   54        0.483428
   55        0.501223
   56        0.860004
   57        1.339897
   58        1.343191
   59        1.949963
   60        1.953178
   61        1.956017
   62        1.957139
   63        2.616656
   64        2.623386
   65        6.807797
   66        6.810820
   67        7.119188
   68        7.121023
   69        7.123831
   70        7.126886
   71        7.521695
   72        7.525152
   73        9.135292
   74        9.506569
   75        9.509909
   76        9.648893
   77        9.993379
   78       11.942070
   79       12.095779
   80       12.105832
   81       12.289563
   82       12.312618
 
  0.4444444E+00  0.5551115E-16  0.0000000E+00  0.6172840E-02
    1      -13.845721
    2      -13.718788
    3      -13.718382
    4      -13.583815
    5      -13.194455
    6      -13.072674
    7      -13.072289
    8      -12.943527
    9      -10.680269
   10      -10.678269
   11      -10.580188
   12      -10.578790
   13      -10.577736
   14      -10.576520
   15      -10.473617
   16      -10.471531
   17       -6.078518
   18       -6.071695
   19       -6.030351
   20       -6.028451
   21       -6.023589
   22       -6.021562
   23       -5.980401
   24       -5.974196
   25       -4.193013
   26       -4.185297
   27       -4.159762
   28       -4.157602
   29       -4.151851
   30       -4.149045
   31       -4.120417
   32       -4.111999
   33       -3.562167
   34       -3.512443
   35       -3.509886
   36       -3.458837
   37       -2.447583
   38       -2.090123
   39       -2.051800
   40       -2.048651
   41       -2.008741
   42       -1.674032
   43       -1.636203
   44       -1.634497
   45       -0.890297
   46       -0.888667
   47       -0.690533
   48       -0.668808
   49       -0.665967
   50       -0.660623
   51       -0.643918
   52       -0.134875
   53       -0.115090
   54       -0.111731
   55       -0.091302
   56        0.045747
   57        1.234788
   58        1.236965
   59        1.875690
   60        1.879207
   61        1.880170
   62        1.881247
   63        2.602770
   64        2.605948
   65        7.093458
   66        7.096215
   67        7.387029
   68        7.388071
   69        7.389363
   70        7.393462
   71        7.695096
   72        7.697879
   73       10.271890
   74       10.758509
   75       11.042954
   76       11.048891
   77       11.066749
   78       11.452038
   79       12.344789
   80       12.358992
   81       12.396568
   82       12.491749
 
 -0.6776264E-20  0.1111111E+00  0.0000000E+00  0.6172840E-02
    1      -14.943240
    2      -14.807546
    3      -14.807151
    4      -14.662666
    5      -10.483508
    6      -10.386637
    7      -10.386289
    8      -10.285879
    9       -9.946032
   10       -9.936835
   11       -9.863272
   12       -9.861971
   13       -9.853189
   14       -9.852093
   15       -9.778717
   16       -9.768293
   17       -8.317704
   18       -8.314334
   19       -8.251822
   20       -8.251518
   21       -8.246779
   22       -8.246291
   23       -8.177411
   24       -8.173131
   25       -7.800929
   26       -7.725030
   27       -7.724795
   28       -7.645266
   29       -3.770542
   30       -2.921227
   31       -2.919613
   32       -2.020463
   33       -2.004508
   34       -1.992846
   35       -1.990664
   36       -1.977147
   37       -1.974565
   38       -1.962780
   39       -1.946997
   40       -1.890217
   41       -1.722326
   42       -1.696826
   43       -1.696713
   44       -1.671203
   45        1.279257
   46        1.309759
   47        1.321619
   48        1.321780
   49        1.333520
   50        1.444523
   51        1.455304
   52        1.455650
   53        1.466411
   54        1.749632
   55        1.754498
   56        1.829036
   57        1.830628
   58        2.194684
   59        2.197679
   60        2.204289
   61        2.207265
   62        2.372910
   63        2.562517
   64        2.579324
   65        6.195455
   66        6.201808
   67        6.392714
   68        6.394555
   69        6.397817
   70        6.399730
   71        6.494311
   72        6.807773
   73        6.809510
   74        6.902022
   75        6.908377
   76        7.372464
   77        8.933603
   78       11.494462
   79       11.498089
   80       11.857294
   81       12.100750
   82       12.192367
 
  0.1111111E+00  0.1111111E+00  0.0000000E+00  0.6172840E-02
    1      -14.795996
    2      -14.661459
    3      -14.661064
    4      -14.517912
    5      -10.948835
    6      -10.945862
    7      -10.847433
    8      -10.844340
    9      -10.844308
   10      -10.841420
   11      -10.738190
   12      -10.735125
   13       -9.509910
   14       -9.455428
   15       -9.453827
   16       -9.408385
   17       -8.437095
   18       -8.409200
   19       -8.406117
   20       -8.362109
   21       -7.118691
   22       -7.115400
   23       -7.046741
   24       -7.042572
   25       -7.042543
   26       -7.040289
   27       -6.967528
   28       -6.964316
   29       -3.592053
   30       -2.747441
   31       -2.745835
   32       -2.687708
   33       -2.653177
   34       -2.650717
   35       -2.615578
   36       -1.876919
   37       -1.874558
   38       -1.849608
   39       -1.847986
   40       -1.847977
   41       -1.844360
   42       -1.820322
   43       -1.817282
   44       -1.723153
   45        0.775966
   46        0.787810
   47        0.792694
   48        0.802219
   49        0.846913
   50        0.848377
   51        1.131838
   52        1.139719
   53        1.143676
   54        1.154689
   55        1.468824
   56        1.470809
   57        1.470897
   58        1.474300
   59        2.132478
   60        2.145430
   61        2.147881
   62        2.512332
   63        2.515432
   64        2.773722
   65        6.105496
   66        6.189126
   67        6.193555
   68        6.596857
   69        6.977588
   70        6.980437
   71        7.347039
   72        7.351519
   73        7.351698
   74        7.353109
   75        7.898436
   76        7.901002
   77        9.112494
   78       11.651018
   79       11.654519
   80       12.231800
   81       12.255717
   82       12.410949
 
  0.2222222E+00  0.1111111E+00  0.0000000E+00  0.6172840E-02
    1      -14.502363
    2      -14.370150
    3      -14.369753
    4      -14.229255
    5      -11.914167
    6      -11.802759
    7      -11.802379
    8      -11.685318
    9      -11.289628
   10      -11.183539
   11      -11.183228
   12      -11.071843
   13       -9.560109
   14       -9.480462
   15       -9.479517
   16       -9.399447
   17       -7.970244
   18       -7.909450
   19       -7.906963
   20       -7.839827
   21       -6.332525
   22       -6.264808
   23       -6.264563
   24       -6.194450
   25       -5.735567
   26       -5.670948
   27       -5.669021
   28       -5.602356
   29       -3.595857
   30       -3.553544
   31       -3.551154
   32       -3.507692
   33       -3.236861
   34       -2.403589
   35       -2.402026
   36       -2.400427
   37       -2.369670
   38       -2.369137
   39       -2.334684
   40       -1.588803
   41       -1.562595
   42       -1.560215
   43       -1.533637
   44       -1.391639
   45       -0.195046
   46       -0.176712
   47       -0.158143
   48       -0.153575
   49       -0.135432
   50        0.511570
   51        0.519010
   52        0.520835
   53        0.587590
   54        0.600197
   55        0.604856
   56        0.619525
   57        1.182008
   58        1.183587
   59        1.345991
   60        1.941678
   61        2.269281
   62        2.714789
   63        2.717783
   64        3.081588
   65        6.081458
   66        6.197635
   67        6.201795
   68        6.543654
   69        7.555280
   70        7.921273
   71        7.922992
   72        8.334029
   73        8.390472
   74        8.719855
   75        8.722762
   76        9.221258
   77        9.471116
   78       11.961491
   79       11.964679
   80       12.346675
   81       12.549011
   82       12.554431
 
  0.3333333E+00  0.1111111E+00  0.0000000E+00  0.6172840E-02
    1      -14.063840
    2      -13.935086
    3      -13.934684
    4      -13.798178
    5      -12.764723
    6      -12.646298
    7      -12.645915
    8      -12.521086
    9      -11.498570
   10      -11.390486
   11      -11.390171
   12      -11.276831
   13       -9.703644
   14       -9.614201
   15       -9.613699
   16       -9.520973
   17       -7.204479
   18       -7.143327
   19       -7.141020
   20       -7.077450
   21       -5.532622
   22       -5.477007
   23       -5.476134
   24       -5.419374
   25       -4.534334
   26       -4.490335
   27       -4.487774
   28       -4.441360
   29       -4.286065
   30       -4.231873
   31       -4.229704
   32       -4.174139
   33       -3.102731
   34       -3.066688
   35       -3.065352
   36       -3.027329
   37       -2.708695
   38       -1.889744
   39       -1.888221
   40       -1.423278
   41       -1.392095
   42       -1.387941
   43       -1.357665
   44       -1.172334
   45       -1.168385
   46       -1.147546
   47       -1.145054
   48       -1.119995
   49       -0.901372
   50       -0.405022
   51       -0.403387
   52       -0.037408
   53       -0.019148
   54       -0.015080
   55        0.004021
   56        0.302491
   57        0.500881
   58        0.997692
   59        0.999318
   60        1.802200
   61        2.268981
   62        2.805481
   63        2.808056
   64        3.347459
   65        6.077271
   66        6.316860
   67        6.320314
   68        6.644060
   69        8.063422
   70        8.376427
   71        8.378344
   72        8.722332
   73        9.899503
   74       10.008052
   75       10.226858
   76       10.229502
   77       10.645188
   78       11.590513
   79       12.382878
   80       12.385897
   81       12.637399
   82       12.722379
 
  0.4444444E+00  0.1111111E+00  0.0000000E+00  0.6172840E-02
    1      -13.484882
    2      -13.481930
    3      -13.361976
    4      -13.359418
    5      -13.358467
    6      -13.356255
    7      -13.228986
    8      -13.225968
    9      -11.569069
   10      -11.460639
   11      -11.460324
   12      -11.346252
   13       -9.758335
   14       -9.666932
   15       -9.666572
   16       -9.571502
   17       -6.695154
   18       -6.656038
   19       -6.653923
   20       -6.616806
   21       -5.059276
   22       -5.057094
   23       -5.034486
   24       -5.031950
   25       -5.027037
   26       -5.024311
   27       -5.002636
   28       -4.993514
   29       -3.519035
   30       -3.498353
   31       -3.495160
   32       -3.469858
   33       -2.827938
   34       -2.823785
   35       -2.786367
   36       -2.781332
   37       -2.779903
   38       -2.779338
   39       -2.738342
   40       -2.734834
   41       -2.016302
   42       -2.013832
   43       -1.220396
   44       -1.218256
   45       -1.217461
   46       -1.214607
   47       -0.646086
   48       -0.641831
   49       -0.623168
   50       -0.622356
   51       -0.620194
   52       -0.614037
   53       -0.598472
   54       -0.591020
   55       -0.264952
   56       -0.262145
   57        0.230736
   58        0.933751
   59        0.935457
   60        1.752176
   61        2.258224
   62        2.829241
   63        2.831346
   64        3.446300
   65        6.088533
   66        6.384302
   67        6.386901
   68        6.699229
   69        8.282159
   70        8.553754
   71        8.556066
   72        8.826902
   73       10.718004
   74       10.719681
   75       11.491195
   76       11.494775
   77       11.715895
   78       11.721253
   79       11.722266
   80       11.725308
   81       12.061964
   82       12.065446
 
 -0.4444444E+00  0.1111111E+00  0.0000000E+00  0.6172840E-02
    1      -14.064588
    2      -13.935823
    3      -13.935430
    4      -13.798927
    5      -12.763549
    6      -12.645131
    7      -12.644737
    8      -12.519921
    9      -11.500333
   10      -11.392263
   11      -11.391949
   12      -11.278620
   13       -9.700723
   14       -9.610953
   15       -9.610642
   16       -9.517673
   17       -7.197901
   18       -7.135865
   19       -7.135280
   20       -7.070959
   21       -5.542457
   22       -5.487380
   23       -5.485009
   24       -5.428689
   25       -4.544844
   26       -4.500211
   27       -4.499331
   28       -4.452237
   29       -4.288620
   30       -4.234659
   31       -4.232135
   32       -4.176722
   33       -3.090082
   34       -3.054703
   35       -3.051575
   36       -3.014203
   37       -2.709509
   38       -1.890542
   39       -1.889023
   40       -1.421796
   41       -1.390091
   42       -1.387307
   43       -1.356461
   44       -1.169846
   45       -1.167197
   46       -1.145287
   47       -1.142349
   48       -1.117460
   49       -0.902171
   50       -0.403873
   51       -0.402201
   52       -0.038869
   53       -0.020151
   54       -0.017515
   55        0.001761
   56        0.300745
   57        0.501997
   58        0.995506
   59        0.997322
   60        1.799464
   61        2.270608
   62        2.809504
   63        2.811273
   64        3.355049
   65        6.075812
   66        6.318660
   67        6.320588
   68        6.644447
   69        8.059397
   70        8.372432
   71        8.375190
   72        8.720740
   73        9.899434
   74       10.006963
   75       10.225709
   76       10.228722
   77       10.643450
   78       11.592146
   79       12.383067
   80       12.385317
   81       12.699381
   82       12.722183
 
 -0.3333333E+00  0.1111111E+00  0.0000000E+00  0.6172840E-02
    1      -14.502888
    2      -14.370672
    3      -14.370280
    4      -14.229789
    5      -11.912775
    6      -11.801368
    7      -11.800983
    8      -11.683923
    9      -11.293204
   10      -11.187146
   11      -11.186831
   12      -11.075485
   13       -9.553610
   14       -9.473054
   15       -9.472779
   16       -9.391664
   17       -7.966006
   18       -7.903586
   19       -7.903393
   20       -7.834680
   21       -6.342394
   22       -6.275404
   23       -6.273504
   24       -6.204103
   25       -5.738046
   26       -5.673542
   27       -5.671418
   28       -5.604871
   29       -3.609661
   30       -3.566413
   31       -3.566099
   32       -3.521581
   33       -3.237447
   34       -2.402639
   35       -2.401053
   36       -2.387393
   37       -2.354691
   38       -2.351896
   39       -2.318524
   40       -1.586851
   41       -1.560752
   42       -1.558168
   43       -1.531692
   44       -1.392221
   45       -0.193696
   46       -0.177657
   47       -0.158344
   48       -0.156485
   49       -0.137340
   50        0.508435
   51        0.520178
   52        0.521940
   53        0.589629
   54        0.602851
   55        0.605042
   56        0.619188
   57        1.177690
   58        1.179652
   59        1.347121
   60        1.936088
   61        2.271540
   62        2.722193
   63        2.723829
   64        3.095717
   65        6.076829
   66        6.200438
   67        6.202156
   68        6.546911
   69        7.550730
   70        7.915072
   71        7.918194
   72        8.333517
   73        8.386302
   74        8.718414
   75        8.721720
   76        9.219379
   77        9.470315
   78       11.960616
   79       11.963807
   80       12.345260
   81       12.547314
   82       12.565403
 
 -0.2222222E+00  0.1111111E+00  0.0000000E+00  0.6172840E-02
    1      -14.796318
    2      -14.661781
    3      -14.661388
    4      -14.518236
    5      -10.952756
    6      -10.945725
    7      -10.850083
    8      -10.849747
    9      -10.842959
   10      -10.842637
   11      -10.742337
   12      -10.735144
   13       -9.498921
   14       -9.442631
   15       -9.442420
   16       -9.395038
   17       -8.437144
   18       -8.407212
   19       -8.407057
   20       -8.360892
   21       -7.124642
   22       -7.119664
   23       -7.051612
   24       -7.049858
   25       -7.046677
   26       -7.044720
   27       -6.973605
   28       -6.968721
   29       -3.592407
   30       -2.747797
   31       -2.746190
   32       -2.703200
   33       -2.667582
   34       -2.667401
   35       -2.631151
   36       -1.873837
   37       -1.859087
   38       -1.846789
   39       -1.844397
   40       -1.832246
   41       -1.829528
   42       -1.816996
   43       -1.802416
   44       -1.723508
   45        0.770255
   46        0.782191
   47        0.782770
   48        0.794133
   49        0.842638
   50        0.849288
   51        1.140334
   52        1.149227
   53        1.149539
   54        1.159380
   55        1.463602
   56        1.465773
   57        1.471723
   58        1.473967
   59        2.134349
   60        2.137898
   61        2.148107
   62        2.521627
   63        2.523260
   64        2.791419
   65        6.098943
   66        6.192595
   67        6.194380
   68        6.603297
   69        6.977199
   70        6.977625
   71        7.344018
   72        7.347173
   73        7.347519
   74        7.350891
   75        7.894589
   76        7.897154
   77        9.111995
   78       11.650421
   79       11.653919
   80       12.234006
   81       12.337400
   82       12.419008
 
 -0.1111111E+00  0.1111111E+00  0.0000000E+00  0.6172840E-02
    1      -14.943346
    2      -14.807650
    3      -14.807257
    4      -14.662770
    5      -10.491055
    6      -10.394421
    7      -10.393946
    8      -10.293810
    9       -9.936737
   10       -9.934636
   11       -9.853858
   12       -9.851818
   13       -9.851774
   14       -9.849299
   15       -9.768527
   16       -9.766067
   17       -8.316607
   18       -8.314599
   19       -8.251108
   20       -8.247978
   21       -8.247935
   22       -8.247371
   23       -8.175599
   24       -8.173853
   25       -7.806633
   26       -7.731564
   27       -7.729698
   28       -7.651056
   29       -3.770660
   30       -2.921345
   31       -2.919732
   32       -2.021695
   33       -2.019568
   34       -1.993822
   35       -1.992495
   36       -1.992486
   37       -1.989057
   38       -1.964339
   39       -1.961578
   40       -1.890337
   41       -1.705151
   42       -1.680796
   43       -1.678145
   44       -1.653865
   45        1.273992
   46        1.298869
   47        1.309520
   48        1.313823
   49        1.326156
   50        1.452272
   51        1.463210
   52        1.467784
   53        1.476851
   54        1.753850
   55        1.755610
   56        1.820903
   57        1.823357
   58        2.203711
   59        2.204734
   60        2.205066
   61        2.209037
   62        2.360928
   63        2.577428
   64        2.580040
   65        6.195037
   66        6.198225
   67        6.393272
   68        6.398468
   69        6.398720
   70        6.399829
   71        6.494715
   72        6.802032
   73        6.805847
   74        6.906737
   75        6.909264
   76        7.365914
   77        8.933433
   78       11.494249
   79       11.497877
   80       11.890599
   81       12.083126
   82       12.153883
 
 -0.1355253E-19  0.2222222E+00  0.0000000E+00  0.6172840E-02
    1      -14.722592
    2      -14.588654
    3      -14.588263
    4      -14.445791
    5      -11.494632
    6      -11.386590
    7      -11.386243
    8      -11.273184
    9      -10.292499
   10      -10.286162
   11      -10.198297
   12      -10.196915
   13      -10.191239
   14      -10.190076
   15      -10.098779
   16      -10.091999
   17       -7.637273
   18       -7.630464
   19       -7.564321
   20       -7.563949
   21       -7.556620
   22       -7.556032
   23       -7.486422
   24       -7.479353
   25       -6.475291
   26       -6.404508
   27       -6.404270
   28       -6.330835
   29       -3.503225
   30       -2.660970
   31       -2.659366
   32       -2.627252
   33       -2.612312
   34       -2.592993
   35       -2.591040
   36       -2.578058
   37       -2.575781
   38       -2.555692
   39       -2.540803
   40       -1.640097
   41       -1.507371
   42       -1.482407
   43       -1.482254
   44       -1.457147
   45        0.262328
   46        0.483203
   47        0.502926
   48        0.503132
   49        0.523148
   50        0.939219
   51        0.940780
   52        1.024188
   53        1.039202
   54        1.039458
   55        1.054414
   56        1.530023
   57        1.535097
   58        1.706180
   59        2.073921
   60        2.076738
   61        2.081791
   62        2.084569
   63        2.614660
   64        2.626785
   65        6.446891
   66        6.450001
   67        6.726811
   68        6.728374
   69        6.732850
   70        6.734330
   71        7.210708
   72        7.215725
   73        7.629319
   74        8.030476
   75        8.032200
   76        8.584619
   77        9.201600
   78       11.726816
   79       11.730227
   80       11.972684
   81       12.145518
   82       12.203264
 
  0.1111111E+00  0.2222222E+00  0.0000000E+00  0.6172840E-02
    1      -14.502358
    2      -14.370142
    3      -14.369749
    4      -14.229249
    5      -11.914128
    6      -11.802702
    7      -11.802357
    8      -11.685280
    9      -11.289657
   10      -11.183573
   11      -11.183248
   12      -11.071867
   13       -9.560099
   14       -9.480440
   15       -9.479517
   16       -9.399436
   17       -7.970308
   18       -7.909451
   19       -7.907127
   20       -7.839928
   21       -6.333540
   22       -6.266626
   23       -6.264746
   24       -6.195440
   25       -5.734554
   26       -5.669095
   27       -5.668881
   28       -5.601372
   29       -3.595764
   30       -3.553387
   31       -3.551154
   32       -3.507625
   33       -3.236875
   34       -2.402464
   35       -2.401957
   36       -2.400441
   37       -2.369143
   38       -2.367050
   39       -2.333256
   40       -1.590020
   41       -1.562955
   42       -1.562590
   43       -1.535207
   44       -1.391661
   45       -0.195220
   46       -0.175218
   47       -0.156176
   48       -0.153573
   49       -0.134763
   50        0.512034
   51        0.518667
   52        0.520272
   53        0.587094
   54        0.600195
   55        0.603068
   56        0.617161
   57        1.182510
   58        1.184306
   59        1.345382
   60        1.942480
   61        2.269462
   62        2.715077
   63        2.717809
   64        3.081673
   65        6.081500
   66        6.197610
   67        6.201309
   68        6.543146
   69        7.553703
   70        7.919306
   71        7.922096
   72        8.335439
   73        8.389057
   74        8.721684
   75        8.723423
   76        9.222485
   77        9.471112
   78       11.961432
   79       11.964617