  32  32   0   0
  0.8863011E+01  0.4934311E-09  0.4934311E-09  0.1345148E-08  0.5000000E-15
  1.000000000000000E-004
  CAR 
 graphite                                
     15.59799022    -16.96931587  301      4.64545782      1.00000000
    -16.969  0.0000E+00  0.0000E+00
    -16.861  0.0000E+00  0.0000E+00
    -16.752  0.0000E+00  0.0000E+00
    -16.644  0.0000E+00  0.0000E+00
    -16.535  0.0000E+00  0.0000E+00
    -16.427  0.0000E+00  0.0000E+00
    -16.318  0.0000E+00  0.0000E+00
    -16.209  0.0000E+00  0.0000E+00
    -16.101  0.0000E+00  0.0000E+00
    -15.992  0.0000E+00  0.0000E+00
    -15.884  0.0000E+00  0.0000E+00
    -15.775  0.0000E+00  0.0000E+00
    -15.667  0.0000E+00  0.0000E+00
    -15.558  0.0000E+00  0.0000E+00
    -15.450  0.0000E+00  0.0000E+00
    -15.341  0.0000E+00  0.0000E+00
    -15.232  0.0000E+00  0.0000E+00
    -15.124  0.0000E+00  0.0000E+00
    -15.015  0.0000E+00  0.0000E+00
    -14.907  0.1362E+01  0.3296E-01
    -14.798  0.2509E+01  0.2440E+00
    -14.690  0.3935E+01  0.5933E+00
    -14.581  0.4779E+01  0.1102E+01
    -14.472  0.5053E+01  0.1639E+01
    -14.364  0.4892E+01  0.2175E+01
    -14.255  0.4952E+01  0.2709E+01
    -14.147  0.4921E+01  0.3246E+01
    -14.038  0.4970E+01  0.3784E+01
    -13.930  0.4980E+01  0.4324E+01
    -13.821  0.5020E+01  0.4867E+01
    -13.713  0.5641E+01  0.5445E+01
    -13.604  0.5887E+01  0.6075E+01
    -13.495  0.6828E+01  0.6800E+01
    -13.387  0.4541E+01  0.7373E+01
    -13.278  0.1830E+01  0.7729E+01
    -13.170  0.3543E+01  0.7987E+01
    -13.061  0.4231E+01  0.8429E+01
    -12.953  0.5020E+01  0.8917E+01
    -12.844  0.5806E+01  0.9677E+01
    -12.736  0.6585E+01  0.1036E+02
    -12.627  0.4373E+01  0.1092E+02
    -12.518  0.4561E+01  0.1140E+02
    -12.410  0.4702E+01  0.1191E+02
    -12.301  0.4821E+01  0.1242E+02
    -12.193  0.5153E+01  0.1297E+02
    -12.084  0.5470E+01  0.1354E+02
    -11.976  0.5674E+01  0.1417E+02
    -11.867  0.5500E+01  0.1477E+02
    -11.759  0.5109E+01  0.1534E+02
    -11.650  0.4952E+01  0.1588E+02
    -11.541  0.4957E+01  0.1642E+02
    -11.433  0.5052E+01  0.1696E+02
    -11.324  0.5109E+01  0.1751E+02
    -11.216  0.5296E+01  0.1807E+02
    -11.107  0.5532E+01  0.1866E+02
    -10.999  0.5911E+01  0.1928E+02
    -10.890  0.5804E+01  0.1992E+02
    -10.782  0.5777E+01  0.2054E+02
    -10.673  0.5854E+01  0.2117E+02
    -10.564  0.5112E+01  0.2178E+02
    -10.456  0.4539E+01  0.2229E+02
    -10.347  0.5156E+01  0.2282E+02
    -10.239  0.5336E+01  0.2339E+02
    -10.130  0.5468E+01  0.2398E+02
    -10.022  0.5678E+01  0.2458E+02
     -9.913  0.5934E+01  0.2521E+02
     -9.805  0.7463E+01  0.2594E+02
     -9.696  0.1017E+02  0.2693E+02
     -9.587  0.6761E+01  0.2784E+02
     -9.479  0.7411E+01  0.2853E+02
     -9.370  0.5772E+01  0.2920E+02
     -9.262  0.3572E+01  0.2969E+02
     -9.153  0.3198E+01  0.3006E+02
     -9.045  0.2825E+01  0.3038E+02
     -8.936  0.2451E+01  0.3067E+02
     -8.827  0.2619E+01  0.3093E+02
     -8.719  0.2769E+01  0.3126E+02
     -8.610  0.1718E+01  0.3151E+02
     -8.502  0.1722E+01  0.3167E+02
     -8.393  0.2637E+01  0.3191E+02
     -8.285  0.8114E+01  0.3241E+02
     -8.176  0.4337E+01  0.3310E+02
     -8.068  0.3961E+01  0.3353E+02
     -7.959  0.4310E+01  0.3398E+02
     -7.850  0.7054E+01  0.3466E+02
     -7.742  0.6443E+01  0.3543E+02
     -7.633  0.7511E+01  0.3618E+02
     -7.525  0.8654E+01  0.3706E+02
     -7.416  0.7795E+01  0.3800E+02
     -7.308  0.6256E+01  0.3873E+02
     -7.199  0.5990E+01  0.3939E+02
     -7.091  0.5732E+01  0.4003E+02
     -6.982  0.5509E+01  0.4064E+02
     -6.873  0.5320E+01  0.4122E+02
     -6.765  0.5138E+01  0.4179E+02
     -6.656  0.4939E+01  0.4234E+02
     -6.548  0.4848E+01  0.4287E+02
     -6.439  0.4821E+01  0.4339E+02
     -6.331  0.4788E+01  0.4391E+02
     -6.222  0.4594E+01  0.4442E+02
     -6.114  0.4422E+01  0.4491E+02
     -6.005  0.3701E+01  0.4538E+02
     -5.896  0.4066E+01  0.4579E+02
     -5.788  0.4429E+01  0.4624E+02
     -5.679  0.5116E+01  0.4676E+02
     -5.571  0.5929E+01  0.4735E+02
     -5.462  0.7400E+01  0.4805E+02
     -5.354  0.1049E+02  0.4906E+02
     -5.245  0.8144E+01  0.5007E+02
     -5.137  0.5802E+01  0.5082E+02
     -5.028  0.3461E+01  0.5133E+02
     -4.919  0.2585E+01  0.5163E+02
     -4.811  0.3291E+01  0.5194E+02
     -4.702  0.4614E+01  0.5237E+02
     -4.594  0.5972E+01  0.5294E+02
     -4.485  0.7761E+01  0.5368E+02
     -4.377  0.7799E+01  0.5455E+02
     -4.268  0.6535E+01  0.5533E+02
     -4.160  0.5663E+01  0.5598E+02
     -4.051  0.7695E+01  0.5667E+02
     -3.942  0.7169E+01  0.5748E+02
     -3.834  0.6642E+01  0.5823E+02
     -3.725  0.6736E+01  0.5895E+02
     -3.617  0.6445E+01  0.5966E+02
     -3.508  0.1006E+02  0.6047E+02
     -3.400  0.8835E+01  0.6173E+02
     -3.291  0.8478E+01  0.6266E+02
     -3.182  0.7856E+01  0.6354E+02
     -3.074  0.6874E+01  0.6435E+02
     -2.965  0.7063E+01  0.6509E+02
     -2.857  0.8002E+01  0.6590E+02
     -2.748  0.9136E+01  0.6683E+02
     -2.640  0.1223E+02  0.6797E+02
     -2.531  0.1424E+02  0.6945E+02
     -2.423  0.1142E+02  0.7085E+02
     -2.314  0.1175E+02  0.7211E+02
     -2.205  0.1202E+02  0.7346E+02
     -2.097  0.1553E+02  0.7495E+02
     -1.988  0.1154E+02  0.7643E+02
     -1.880  0.1806E+02  0.7817E+02
     -1.771  0.1027E+02  0.7962E+02
     -1.663  0.2186E+02  0.8122E+02
     -1.554  0.1824E+02  0.8324E+02
     -1.446  0.1701E+02  0.8526E+02
     -1.337  0.1374E+02  0.8688E+02
     -1.228  0.1157E+02  0.8824E+02
     -1.120  0.1076E+02  0.8945E+02
     -1.011  0.8373E+01  0.9044E+02
     -0.903  0.8520E+01  0.9130E+02
     -0.794  0.1284E+02  0.9245E+02
     -0.686  0.1365E+02  0.9393E+02
     -0.577  0.1288E+02  0.9562E+02
     -0.469  0.8609E+01  0.9662E+02
     -0.360  0.9862E+01  0.9766E+02
     -0.251  0.1044E+02  0.9880E+02
     -0.143  0.1092E+02  0.9995E+02
     -0.034  0.1001E+02  0.1011E+03
      0.074  0.9358E+01  0.1022E+03
      0.183  0.9888E+01  0.1032E+03
      0.291  0.9503E+01  0.1043E+03
      0.400  0.9693E+01  0.1053E+03
      0.508  0.9247E+01  0.1064E+03
      0.617  0.9322E+01  0.1074E+03
      0.726  0.9350E+01  0.1084E+03
      0.834  0.9337E+01  0.1094E+03
      0.943  0.9218E+01  0.1104E+03
      1.051  0.9302E+01  0.1114E+03
      1.160  0.9402E+01  0.1124E+03
      1.268  0.9627E+01  0.1135E+03
      1.377  0.9975E+01  0.1145E+03
      1.485  0.9368E+01  0.1155E+03
      1.594  0.8632E+01  0.1166E+03
      1.703  0.6424E+01  0.1174E+03
      1.811  0.6614E+01  0.1181E+03
      1.920  0.5170E+01  0.1187E+03
      2.028  0.4170E+01  0.1192E+03
      2.137  0.4159E+01  0.1197E+03
      2.245  0.5960E+01  0.1202E+03
      2.354  0.7677E+01  0.1210E+03
      2.463  0.7730E+01  0.1219E+03
      2.571  0.5763E+01  0.1226E+03
      2.680  0.8286E+01  0.1234E+03
      2.788  0.5943E+01  0.1242E+03
      2.897  0.4780E+01  0.1248E+03
      3.005  0.4010E+01  0.1252E+03
      3.114  0.3486E+01  0.1256E+03
      3.222  0.3224E+01  0.1260E+03
      3.331  0.2945E+01  0.1263E+03
      3.440  0.2586E+01  0.1266E+03
      3.548  0.2191E+01  0.1269E+03
      3.657  0.1907E+01  0.1271E+03
      3.765  0.1669E+01  0.1273E+03
      3.874  0.1428E+01  0.1275E+03
      3.982  0.1190E+01  0.1276E+03
      4.091  0.9748E+00  0.1277E+03
      4.199  0.7898E+00  0.1278E+03
      4.308  0.5773E+00  0.1279E+03
      4.417  0.3777E+00  0.1280E+03
      4.525  0.1887E+00  0.1280E+03
      4.634  0.9454E-02  0.1280E+03
      4.742  0.1011E+00  0.1280E+03
      4.851  0.2354E+00  0.1280E+03
      4.959  0.3814E+00  0.1281E+03
      5.068  0.5432E+00  0.1281E+03
      5.176  0.7226E+00  0.1282E+03
      5.285  0.9321E+00  0.1283E+03
      5.394  0.1264E+01  0.1284E+03
      5.502  0.1638E+01  0.1285E+03
      5.611  0.1982E+01  0.1287E+03
      5.719  0.2345E+01  0.1290E+03
      5.828  0.2822E+01  0.1292E+03
      5.936  0.3222E+01  0.1296E+03
      6.045  0.4228E+01  0.1300E+03
      6.153  0.6318E+01  0.1306E+03
      6.262  0.8119E+01  0.1316E+03
      6.371  0.8292E+01  0.1326E+03
      6.479  0.7602E+01  0.1334E+03
      6.588  0.8297E+01  0.1343E+03
      6.696  0.6479E+01  0.1351E+03
      6.805  0.5982E+01  0.1357E+03
      6.913  0.5875E+01  0.1364E+03
      7.022  0.4981E+01  0.1370E+03
      7.130  0.4376E+01  0.1375E+03
      7.239  0.3659E+01  0.1379E+03
      7.348  0.3540E+01  0.1383E+03
      7.456  0.3836E+01  0.1387E+03
      7.565  0.4333E+01  0.1391E+03
      7.673  0.4608E+01  0.1396E+03
      7.782  0.4773E+01  0.1401E+03
      7.890  0.4600E+01  0.1406E+03
      7.999  0.4435E+01  0.1411E+03
      8.108  0.4271E+01  0.1416E+03
      8.216  0.4088E+01  0.1421E+03
      8.325  0.3891E+01  0.1425E+03
      8.433  0.3752E+01  0.1429E+03
      8.542  0.3628E+01  0.1433E+03
      8.650  0.3543E+01  0.1437E+03
      8.759  0.3467E+01  0.1441E+03
      8.867  0.3342E+01  0.1444E+03
      8.976  0.3288E+01  0.1448E+03
      9.085  0.3531E+01  0.1452E+03
      9.193  0.3788E+01  0.1456E+03
      9.302  0.4003E+01  0.1460E+03
      9.410  0.4082E+01  0.1464E+03
      9.519  0.3966E+01  0.1469E+03
      9.627  0.3915E+01  0.1473E+03
      9.736  0.3925E+01  0.1477E+03
      9.844  0.3910E+01  0.1482E+03
      9.953  0.3932E+01  0.1486E+03
     10.062  0.3926E+01  0.1490E+03
     10.170  0.3952E+01  0.1494E+03
     10.279  0.3991E+01  0.1499E+03
     10.387  0.4059E+01  0.1503E+03
     10.496  0.4182E+01  0.1507E+03
     10.604  0.5081E+01  0.1512E+03
     10.713  0.5603E+01  0.1518E+03
     10.821  0.5447E+01  0.1524E+03
     10.930  0.4600E+01  0.1530E+03
     11.039  0.4548E+01  0.1535E+03
     11.147  0.3783E+01  0.1540E+03
     11.256  0.3602E+01  0.1544E+03
     11.364  0.3518E+01  0.1547E+03
     11.473  0.3710E+01  0.1551E+03
     11.581  0.4136E+01  0.1556E+03
     11.690  0.2103E+01  0.1559E+03
     11.798  0.3429E+01  0.1562E+03
     11.907  0.6166E+01  0.1567E+03
     12.016  0.7110E+01  0.1574E+03
     12.124  0.1075E+02  0.1584E+03
     12.233  0.1291E+02  0.1596E+03
     12.341  0.1408E+02  0.1611E+03
     12.450  0.1397E+02  0.1626E+03
     12.558  0.1081E+02  0.1640E+03
     12.667  0.7698E+01  0.1650E+03
     12.775  0.6277E+01  0.1658E+03
     12.884  0.5585E+01  0.1664E+03
     12.993  0.5939E+01  0.1670E+03
     13.101  0.3360E+01  0.1675E+03
     13.210  0.1970E+01  0.1678E+03
     13.318  0.6752E+00  0.1680E+03
     13.427  0.1834E-01  0.1680E+03
     13.535  0.1168E-02  0.1680E+03
     13.644  0.0000E+00  0.1680E+03
     13.753  0.0000E+00  0.1680E+03
     13.861  0.0000E+00  0.1680E+03
     13.970  0.0000E+00  0.1680E+03
     14.078  0.0000E+00  0.1680E+03
     14.187  0.0000E+00  0.1680E+03
     14.295  0.0000E+00  0.1680E+03
     14.404  0.0000E+00  0.1680E+03
     14.512  0.0000E+00  0.1680E+03
     14.621  0.0000E+00  0.1680E+03
     14.730  0.0000E+00  0.1680E+03
     14.838  0.0000E+00  0.1680E+03
     14.947  0.0000E+00  0.1680E+03
     15.055  0.0000E+00  0.1680E+03
     15.164  0.0000E+00  0.1680E+03
     15.272  0.0000E+00  0.1680E+03
     15.381  0.0000E+00  0.1680E+03
     15.489  0.0000E+00  0.1680E+03
     15.598  0.0000E+00  0.1680E+03
