  48  48   0   0
  0.9813013E+01  0.7403710E-09  0.9433062E-09  0.6744372E-09  0.5000000E-15
  1.000000000000000E-004
  CAR 
 benzene                                 
     10.31542213    -18.84010576  301     -1.51686294      1.00000000
    -18.840  0.0000E+00  0.0000E+00
    -18.743  0.0000E+00  0.0000E+00
    -18.646  0.0000E+00  0.0000E+00
    -18.549  0.0000E+00  0.0000E+00
    -18.451  0.0000E+00  0.0000E+00
    -18.354  0.0000E+00  0.0000E+00
    -18.257  0.0000E+00  0.0000E+00
    -18.160  0.0000E+00  0.0000E+00
    -18.063  0.0000E+00  0.0000E+00
    -17.965  0.0000E+00  0.0000E+00
    -17.868  0.0000E+00  0.0000E+00
    -17.771  0.0000E+00  0.0000E+00
    -17.674  0.0000E+00  0.0000E+00
    -17.577  0.0000E+00  0.0000E+00
    -17.480  0.0000E+00  0.0000E+00
    -17.382  0.0000E+00  0.0000E+00
    -17.285  0.0000E+00  0.0000E+00
    -17.188  0.0000E+00  0.0000E+00
    -17.091  0.0000E+00  0.0000E+00
    -16.994  0.0000E+00  0.0000E+00
    -16.896  0.0000E+00  0.0000E+00
    -16.799  0.8095E-01  0.1448E-02
    -16.702  0.6034E+00  0.2886E-01
    -16.605  0.0000E+00  0.4000E-01
    -16.508  0.0000E+00  0.4000E-01
    -16.410  0.0000E+00  0.4000E-01
    -16.313  0.0000E+00  0.4000E-01
    -16.216  0.0000E+00  0.4000E-01
    -16.119  0.0000E+00  0.4000E-01
    -16.022  0.0000E+00  0.4000E-01
    -15.925  0.0000E+00  0.4000E-01
    -15.827  0.0000E+00  0.4000E-01
    -15.730  0.0000E+00  0.4000E-01
    -15.633  0.0000E+00  0.4000E-01
    -15.536  0.0000E+00  0.4000E-01
    -15.439  0.0000E+00  0.4000E-01
    -15.341  0.0000E+00  0.4000E-01
    -15.244  0.0000E+00  0.4000E-01
    -15.147  0.0000E+00  0.4000E-01
    -15.050  0.0000E+00  0.4000E-01
    -14.953  0.0000E+00  0.4000E-01
    -14.856  0.0000E+00  0.4000E-01
    -14.758  0.0000E+00  0.4000E-01
    -14.661  0.0000E+00  0.4000E-01
    -14.564  0.0000E+00  0.4000E-01
    -14.467  0.0000E+00  0.4000E-01
    -14.370  0.0000E+00  0.4000E-01
    -14.272  0.0000E+00  0.4000E-01
    -14.175  0.0000E+00  0.4000E-01
    -14.078  0.4320E-01  0.4073E-01
    -13.981  0.4995E+00  0.5960E-01
    -13.884  0.4023E+00  0.9598E-01
    -13.786  0.0000E+00  0.1200E+00
    -13.689  0.0000E+00  0.1200E+00
    -13.592  0.0000E+00  0.1200E+00
    -13.495  0.0000E+00  0.1200E+00
    -13.398  0.0000E+00  0.1200E+00
    -13.301  0.0000E+00  0.1200E+00
    -13.203  0.0000E+00  0.1200E+00
    -13.106  0.0000E+00  0.1200E+00
    -13.009  0.0000E+00  0.1200E+00
    -12.912  0.0000E+00  0.1200E+00
    -12.815  0.0000E+00  0.1200E+00
    -12.717  0.0000E+00  0.1200E+00
    -12.620  0.0000E+00  0.1200E+00
    -12.523  0.0000E+00  0.1200E+00
    -12.426  0.0000E+00  0.1200E+00
    -12.329  0.0000E+00  0.1200E+00
    -12.232  0.0000E+00  0.1200E+00
    -12.134  0.0000E+00  0.1200E+00
    -12.037  0.0000E+00  0.1200E+00
    -11.940  0.0000E+00  0.1200E+00
    -11.843  0.0000E+00  0.1200E+00
    -11.746  0.0000E+00  0.1200E+00
    -11.648  0.0000E+00  0.1200E+00
    -11.551  0.0000E+00  0.1200E+00
    -11.454  0.0000E+00  0.1200E+00
    -11.357  0.0000E+00  0.1200E+00
    -11.260  0.0000E+00  0.1200E+00
    -11.162  0.0000E+00  0.1200E+00
    -11.065  0.0000E+00  0.1200E+00
    -10.968  0.0000E+00  0.1200E+00
    -10.871  0.0000E+00  0.1200E+00
    -10.774  0.0000E+00  0.1200E+00
    -10.677  0.0000E+00  0.1200E+00
    -10.579  0.0000E+00  0.1200E+00
    -10.482  0.0000E+00  0.1200E+00
    -10.385  0.4108E+00  0.1327E+00
    -10.288  0.2767E+00  0.1616E+00
    -10.191  0.2453E+00  0.1933E+00
    -10.093  0.5402E-02  0.2000E+00
     -9.996  0.0000E+00  0.2000E+00
     -9.899  0.0000E+00  0.2000E+00
     -9.802  0.0000E+00  0.2000E+00
     -9.705  0.0000E+00  0.2000E+00
     -9.608  0.0000E+00  0.2000E+00
     -9.510  0.0000E+00  0.2000E+00
     -9.413  0.0000E+00  0.2000E+00
     -9.316  0.0000E+00  0.2000E+00
     -9.219  0.0000E+00  0.2000E+00
     -9.122  0.0000E+00  0.2000E+00
     -9.024  0.0000E+00  0.2000E+00
     -8.927  0.0000E+00  0.2000E+00
     -8.830  0.0000E+00  0.2000E+00
     -8.733  0.0000E+00  0.2000E+00
     -8.636  0.2558E-01  0.2010E+00
     -8.538  0.4124E-01  0.2042E+00
     -8.441  0.7707E-01  0.2097E+00
     -8.344  0.8716E-01  0.2202E+00
     -8.247  0.8264E-01  0.2329E+00
     -8.150  0.3186E-01  0.2380E+00
     -8.053  0.7333E-02  0.2398E+00
     -7.955  0.0000E+00  0.2400E+00
     -7.858  0.0000E+00  0.2400E+00
     -7.761  0.0000E+00  0.2400E+00
     -7.664  0.0000E+00  0.2400E+00
     -7.567  0.0000E+00  0.2400E+00
     -7.469  0.0000E+00  0.2400E+00
     -7.372  0.0000E+00  0.2400E+00
     -7.275  0.0000E+00  0.2400E+00
     -7.178  0.0000E+00  0.2400E+00
     -7.081  0.0000E+00  0.2400E+00
     -6.984  0.0000E+00  0.2400E+00
     -6.886  0.2561E-01  0.2408E+00
     -6.789  0.8174E-01  0.2456E+00
     -6.692  0.1578E+00  0.2581E+00
     -6.595  0.1338E+00  0.2695E+00
     -6.498  0.5488E-01  0.2774E+00
     -6.400  0.2223E+00  0.2821E+00
     -6.303  0.0000E+00  0.3200E+00
     -6.206  0.0000E+00  0.3200E+00
     -6.109  0.0000E+00  0.3200E+00
     -6.012  0.2341E-01  0.3203E+00
     -5.914  0.2245E+00  0.3370E+00
     -5.817  0.1091E+00  0.3522E+00
     -5.720  0.4400E-01  0.3585E+00
     -5.623  0.1615E+00  0.3646E+00
     -5.526  0.1782E+00  0.3821E+00
     -5.429  0.4290E-01  0.3989E+00
     -5.331  0.0000E+00  0.4000E+00
     -5.234  0.0000E+00  0.4000E+00
     -5.137  0.0000E+00  0.4000E+00
     -5.040  0.0000E+00  0.4000E+00
     -4.943  0.0000E+00  0.4000E+00
     -4.845  0.0000E+00  0.4000E+00
     -4.748  0.1839E-01  0.4002E+00
     -4.651  0.1181E+00  0.4070E+00
     -4.554  0.1390E+00  0.4215E+00
     -4.457  0.7862E-01  0.4380E+00
     -4.360  0.6652E-03  0.4400E+00
     -4.262  0.0000E+00  0.4400E+00
     -4.165  0.0000E+00  0.4400E+00
     -4.068  0.0000E+00  0.4400E+00
     -3.971  0.1642E-03  0.4400E+00
     -3.874  0.1661E-01  0.4405E+00
     -3.776  0.3887E+00  0.4560E+00
     -3.679  0.7748E-01  0.4792E+00
     -3.582  0.2065E+00  0.4971E+00
     -3.485  0.6205E-01  0.5181E+00
     -3.388  0.0000E+00  0.5200E+00
     -3.290  0.0000E+00  0.5200E+00
     -3.193  0.0000E+00  0.5200E+00
     -3.096  0.0000E+00  0.5200E+00
     -2.999  0.0000E+00  0.5200E+00
     -2.902  0.0000E+00  0.5200E+00
     -2.805  0.0000E+00  0.5200E+00
     -2.707  0.0000E+00  0.5200E+00
     -2.610  0.0000E+00  0.5200E+00
     -2.513  0.0000E+00  0.5200E+00
     -2.416  0.0000E+00  0.5200E+00
     -2.319  0.0000E+00  0.5200E+00
     -2.221  0.8629E-03  0.5200E+00
     -2.124  0.7842E-01  0.5234E+00
     -2.027  0.1649E+00  0.5338E+00
     -1.930  0.2446E+00  0.5572E+00
     -1.833  0.2121E+00  0.5705E+00
     -1.736  0.1404E+00  0.5901E+00
     -1.638  0.4616E-01  0.5987E+00
     -1.541  0.0000E+00  0.6000E+00
     -1.444  0.0000E+00  0.6000E+00
     -1.347  0.0000E+00  0.6000E+00
     -1.250  0.0000E+00  0.6000E+00
     -1.152  0.0000E+00  0.6000E+00
     -1.055  0.0000E+00  0.6000E+00
     -0.958  0.0000E+00  0.6000E+00
     -0.861  0.0000E+00  0.6000E+00
     -0.764  0.0000E+00  0.6000E+00
     -0.666  0.0000E+00  0.6000E+00
     -0.569  0.0000E+00  0.6000E+00
     -0.472  0.0000E+00  0.6000E+00
     -0.375  0.0000E+00  0.6000E+00
     -0.278  0.0000E+00  0.6000E+00
     -0.181  0.0000E+00  0.6000E+00
     -0.083  0.0000E+00  0.6000E+00
      0.014  0.0000E+00  0.6000E+00
      0.111  0.0000E+00  0.6000E+00
      0.208  0.0000E+00  0.6000E+00
      0.305  0.0000E+00  0.6000E+00
      0.403  0.0000E+00  0.6000E+00
      0.500  0.0000E+00  0.6000E+00
      0.597  0.0000E+00  0.6000E+00
      0.694  0.0000E+00  0.6000E+00
      0.791  0.0000E+00  0.6000E+00
      0.888  0.0000E+00  0.6000E+00
      0.986  0.0000E+00  0.6000E+00
      1.083  0.0000E+00  0.6000E+00
      1.180  0.0000E+00  0.6000E+00
      1.277  0.0000E+00  0.6000E+00
      1.374  0.0000E+00  0.6000E+00
      1.472  0.0000E+00  0.6000E+00
      1.569  0.0000E+00  0.6000E+00
      1.666  0.0000E+00  0.6000E+00
      1.763  0.0000E+00  0.6000E+00
      1.860  0.0000E+00  0.6000E+00
      1.958  0.0000E+00  0.6000E+00
      2.055  0.0000E+00  0.6000E+00
      2.152  0.0000E+00  0.6000E+00
      2.249  0.0000E+00  0.6000E+00
      2.346  0.0000E+00  0.6000E+00
      2.443  0.0000E+00  0.6000E+00
      2.541  0.0000E+00  0.6000E+00
      2.638  0.0000E+00  0.6000E+00
      2.735  0.0000E+00  0.6000E+00
      2.832  0.0000E+00  0.6000E+00
      2.929  0.2697E+00  0.6061E+00
      3.027  0.1031E+00  0.6242E+00
      3.124  0.8238E-01  0.6359E+00
      3.221  0.1020E+00  0.6423E+00
      3.318  0.1191E+00  0.6563E+00
      3.415  0.1646E+00  0.6706E+00
      3.512  0.3111E-01  0.6790E+00
      3.610  0.4603E-03  0.6800E+00
      3.707  0.0000E+00  0.6800E+00
      3.804  0.0000E+00  0.6800E+00
      3.901  0.0000E+00  0.6800E+00
      3.998  0.0000E+00  0.6800E+00
      4.096  0.0000E+00  0.6800E+00
      4.193  0.3958E-03  0.6800E+00
      4.290  0.2105E-02  0.6801E+00
      4.387  0.4793E-02  0.6804E+00
      4.484  0.7061E-02  0.6810E+00
      4.582  0.7686E-02  0.6818E+00
      4.679  0.8990E-02  0.6826E+00
      4.776  0.1102E-01  0.6835E+00
      4.873  0.1320E-01  0.6847E+00
      4.970  0.1598E-01  0.6861E+00
      5.067  0.2326E-01  0.6880E+00
      5.165  0.3372E-01  0.6908E+00
      5.262  0.3588E-01  0.6942E+00
      5.359  0.3850E-01  0.6979E+00
      5.456  0.2625E-01  0.7012E+00
      5.553  0.3455E-01  0.7036E+00
      5.651  0.6460E-01  0.7097E+00
      5.748  0.4024E-01  0.7148E+00
      5.845  0.3006E-01  0.7182E+00
      5.942  0.2894E-01  0.7201E+00
      6.039  0.1218E+00  0.7279E+00
      6.136  0.6844E-01  0.7377E+00
      6.234  0.4510E-01  0.7426E+00
      6.331  0.5295E-01  0.7473E+00
      6.428  0.5467E-01  0.7526E+00
      6.525  0.4670E-01  0.7572E+00
      6.622  0.7651E-01  0.7632E+00
      6.720  0.1572E+00  0.7740E+00
      6.817  0.9305E-01  0.7861E+00
      6.914  0.1015E+00  0.7948E+00
      7.011  0.5577E-01  0.8034E+00
      7.108  0.5469E-01  0.8081E+00
      7.205  0.5601E-01  0.8136E+00
      7.303  0.5947E-01  0.8193E+00
      7.400  0.7319E-01  0.8258E+00
      7.497  0.7297E-01  0.8343E+00
      7.594  0.3267E-01  0.8385E+00
      7.691  0.2727E-01  0.8406E+00
      7.789  0.5843E-01  0.8449E+00
      7.886  0.9991E-01  0.8537E+00
      7.983  0.1846E-01  0.8587E+00
      8.080  0.5397E-02  0.8596E+00
      8.177  0.1686E-02  0.8599E+00
      8.275  0.1478E-03  0.8600E+00
      8.372  0.0000E+00  0.8600E+00
      8.469  0.0000E+00  0.8600E+00
      8.566  0.0000E+00  0.8600E+00
      8.663  0.0000E+00  0.8600E+00
      8.760  0.0000E+00  0.8600E+00
      8.858  0.0000E+00  0.8600E+00
      8.955  0.0000E+00  0.8600E+00
      9.052  0.0000E+00  0.8600E+00
      9.149  0.0000E+00  0.8600E+00
      9.246  0.0000E+00  0.8600E+00
      9.344  0.0000E+00  0.8600E+00
      9.441  0.0000E+00  0.8600E+00
      9.538  0.0000E+00  0.8600E+00
      9.635  0.0000E+00  0.8600E+00
      9.732  0.0000E+00  0.8600E+00
      9.829  0.0000E+00  0.8600E+00
      9.927  0.0000E+00  0.8600E+00
     10.024  0.0000E+00  0.8600E+00
     10.121  0.0000E+00  0.8600E+00
     10.218  0.0000E+00  0.8600E+00
     10.315  0.0000E+00  0.8600E+00
