   48   48  200    1
  0.9813013E+01  0.7403710E-09  0.9433061E-09  0.6744372E-09  0.5000000E-15
  1.000000000000000E-004
  CAR 
 benzene                                 
    120     27     86
 
  0.0000000E+00  0.0000000E+00  0.0000000E+00  0.1562500E-01
    1      -16.840106
    2      -16.734293
    3      -16.674316
    4      -16.653860
    5      -14.127849
    6      -13.986551
    7      -13.950790
    8      -13.920462
    9      -13.899172
   10      -13.857942
   11      -13.853101
   12      -13.830672
   13      -10.420826
   14      -10.418225
   15      -10.370464
   16      -10.326776
   17      -10.283096
   18      -10.262848
   19      -10.231414
   20      -10.069830
   21       -8.726548
   22       -8.342336
   23       -8.280723
   24       -7.990904
   25       -6.975571
   26       -6.816394
   27       -6.540339
   28       -6.445749
   29       -6.432306
   30       -6.413340
   31       -6.335043
   32       -6.324432
   33       -6.060590
   34       -6.035754
   35       -6.009981
   36       -5.645637
   37       -5.588198
   38       -5.556273
   39       -5.541340
   40       -5.344726
   41       -4.578896
   42       -4.469055
   43       -4.402347
   44       -4.343953
   45       -3.983856
   46       -3.901337
   47       -3.888258
   48       -3.822135
   49       -3.612596
   50       -3.587074
   51       -3.573815
   52       -3.395967
   53       -2.216313
   54       -2.203778
   55       -2.066371
   56       -1.983102
   57       -1.803657
   58       -1.693854
   59       -1.598159
   60       -1.559837
   61        2.888851
   62        2.913265
   63        3.044089
   64        3.196200
   65        3.198184
   66        3.291215
   67        3.474596
   68        3.626278
   69        4.118465
   70        5.291361
   71        5.478883
   72        6.091910
   73        6.258906
   74        6.385711
   75        6.526073
   76        6.676683
   77        6.736648
   78        6.738845
   79        6.781757
   80        6.899412
   81        7.024844
   82        7.412345
   83        7.472835
   84        7.620582
   85        7.708914
   86        8.139401
 
  0.2500000E+00  0.0000000E+00  0.0000000E+00  0.3125000E-01
    1      -16.817111
    2      -16.722693
    3      -16.699994
    4      -16.665813
    5      -14.099630
    6      -13.982032
    7      -13.943710
    8      -13.920983
    9      -13.918406
   10      -13.871440
   11      -13.853488
   12      -13.836358
   13      -10.395760
   14      -10.368680
   15      -10.365780
   16      -10.335646
   17      -10.279594
   18      -10.265081
   19      -10.259769
   20      -10.119337
   21       -8.695338
   22       -8.430035
   23       -8.244209
   24       -8.041415
   25       -6.946127
   26       -6.832958
   27       -6.483674
   28       -6.421978
   29       -6.413889
   30       -6.406265
   31       -6.330943
   32       -6.321602
   33       -6.019436
   34       -5.942644
   35       -5.905039
   36       -5.724885
   37       -5.587223
   38       -5.553464
   39       -5.538728
   40       -5.383828
   41       -4.709038
   42       -4.610919
   43       -4.487553
   44       -4.454205
   45       -3.888563
   46       -3.809132
   47       -3.803883
   48       -3.782157
   49       -3.600638
   50       -3.598471
   51       -3.543083
   52       -3.424841
   53       -2.130669
   54       -2.130254
   55       -2.061860
   56       -2.003731
   57       -1.789506
   58       -1.748438
   59       -1.664919
   60       -1.664110
   61        2.942849
   62        2.988895
   63        3.068319
   64        3.189615
   65        3.202631
   66        3.235436
   67        3.374439
   68        3.497183
   69        4.343410
   70        5.422635
   71        5.596089
   72        5.757210
   73        6.068792
   74        6.349826
   75        6.621091
   76        6.670086
   77        6.686093
   78        6.703027
   79        6.914596
   80        6.962174
   81        7.097561
   82        7.434153
   83        7.455100
   84        7.696258
   85        7.827144
   86        7.990015
 
  0.5000000E+00  0.0000000E+00  0.0000000E+00  0.1562500E-01
    1      -16.759897
    2      -16.759896
    3      -16.694431
    4      -16.694430
    5      -14.031058
    6      -14.031057
    7      -13.929162
    8      -13.929161
    9      -13.904683
   10      -13.904682
   11      -13.847939
   12      -13.847938
   13      -10.361402
   14      -10.361402
   15      -10.323744
   16      -10.323743
   17      -10.272751
   18      -10.272751
   19      -10.240093
   20      -10.240093
   21       -8.589236
   22       -8.589236
   23       -8.149410
   24       -8.149410
   25       -6.883872
   26       -6.883871
   27       -6.407042
   28       -6.407041
   29       -6.405558
   30       -6.405558
   31       -6.323580
   32       -6.323580
   33       -5.926643
   34       -5.926642
   35       -5.688786
   36       -5.688785
   37       -5.662365
   38       -5.662365
   39       -5.470539
   40       -5.470539
   41       -4.781977
   42       -4.781977
   43       -4.570277
   44       -4.570277
   45       -3.799325
   46       -3.799325
   47       -3.657270
   48       -3.657270
   49       -3.650862
   50       -3.650862
   51       -3.485908
   52       -3.485908
   53       -2.044998
   54       -2.044998
   55       -1.940262
   56       -1.940261
   57       -1.903319
   58       -1.903319
   59       -1.743624
   60       -1.743623
   61        3.074547
   62        3.074547
   63        3.139805
   64        3.139806
   65        3.209715
   66        3.209715
   67        3.264123
   68        3.264124
   69        4.947643
   70        4.947644
   71        5.630472
   72        5.630472
   73        6.176222
   74        6.176223
   75        6.751351
   76        6.751351
   77        6.791418
   78        6.791418
   79        6.832070
   80        6.832070
   81        7.449641
   82        7.449641
   83        7.506083
   84        7.506085
   85        7.817887
   86        7.817888
 
  0.0000000E+00  0.2500000E+00  0.0000000E+00  0.3125000E-01
    1      -16.825508
    2      -16.750756
    3      -16.671378
    4      -16.656906
    5      -14.086435
    6      -13.976530
    7      -13.942356
    8      -13.929630
    9      -13.893168
   10      -13.870677
   11      -13.870396
   12      -13.860755
   13      -10.401171
   14      -10.378021
   15      -10.366908
   16      -10.310407
   17      -10.285617
   18      -10.273250
   19      -10.249688
   20      -10.121755
   21       -8.642221
   22       -8.335655
   23       -8.291438
   24       -8.133805
   25       -6.909263
   26       -6.744731
   27       -6.594232
   28       -6.446291
   29       -6.410691
   30       -6.400089
   31       -6.346362
   32       -6.335411
   33       -6.017164
   34       -5.959159
   35       -5.954622
   36       -5.677021
   37       -5.643209
   38       -5.622451
   39       -5.581011
   40       -5.439980
   41       -4.568114
   42       -4.466164
   43       -4.448714
   44       -4.381307
   45       -3.878503
   46       -3.835138
   47       -3.826919
   48       -3.746890
   49       -3.639019
   50       -3.616035
   51       -3.592307
   52       -3.448535
   53       -2.221482
   54       -2.215208
   55       -2.009566
   56       -1.958920
   57       -1.834097
   58       -1.736030
   59       -1.606655
   60       -1.569435
   61        2.884880
   62        2.902987
   63        3.077963
   64        3.186021
   65        3.219300
   66        3.331828
   67        3.416103
   68        3.568935
   69        4.279724
   70        5.165405
   71        5.580491
   72        5.948027
   73        6.070939
   74        6.332237
   75        6.466293
   76        6.648241
   77        6.807839
   78        6.852764
   79        6.884045
   80        6.895684
   81        7.238263
   82        7.411387
   83        7.498538
   84        7.588769
   85        7.702734
   86        7.885306
 
  0.2500000E+00  0.2500000E+00  0.0000000E+00  0.6250000E-01
    1      -16.803983
    2      -16.737265
    3      -16.695074
    4      -16.670905
    5      -14.065392
    6      -13.975825
    7      -13.939536
    8      -13.934195
    9      -13.899257
   10      -13.896859
   11      -13.860270
   12      -13.856091
   13      -10.365707
   14      -10.363748
   15      -10.358336
   16      -10.322243
   17      -10.285522
   18      -10.273294
   19      -10.267610
   20      -10.161740
   21       -8.614571
   22       -8.400172
   23       -8.268157
   24       -8.157390
   25       -6.885219
   26       -6.766905
   27       -6.560719
   28       -6.469285
   29       -6.390353
   30       -6.389109
   31       -6.342679
   32       -6.333400
   33       -5.967332
   34       -5.926726
   35       -5.825357
   36       -5.787235
   37       -5.641866
   38       -5.560441
   39       -5.543248
   40       -5.435767
   41       -4.681239
   42       -4.594230
   43       -4.526032
   44       -4.485288
   45       -3.825332
   46       -3.761801
   47       -3.756275
   48       -3.734610
   49       -3.619125
   50       -3.617254
   51       -3.566543
   52       -3.476047
   53       -2.146747
   54       -2.127023
   55       -2.012089
   56       -1.971120
   57       -1.823524
   58       -1.767835
   59       -1.697059
   60       -1.665263
   61        2.930418
   62        2.985339
   63        3.078985
   64        3.179516
   65        3.220297
   66        3.279716
   67        3.344612
   68        3.463186
   69        4.494245
   70        5.317939
   71        5.663001
   72        5.890982
   73        5.973756
   74        6.120760
   75        6.400215
   76        6.604956
   77        6.689873
   78        6.786018
   79        7.037446
   80        7.042011
   81        7.172538
   82        7.385375
   83        7.438936
   84        7.696185
   85        7.811559
   86        7.836845
 
  0.5000000E+00  0.2500000E+00  0.0000000E+00  0.3125000E-01
    1      -16.750624
    2      -16.750624
    3      -16.704360
    4      -16.704360
    5      -14.014709
    6      -14.014708
    7      -13.927284
    8      -13.927284
    9      -13.914687
   10      -13.914686
   11      -13.855818
   12      -13.855817
   13      -10.349609
   14      -10.349609
   15      -10.321599
   16      -10.321598
   17      -10.276975
   18      -10.276975
   19      -10.256738
   20      -10.256737
   21       -8.525086
   22       -8.525086
   23       -8.212869
   24       -8.212869
   25       -6.825915
   26       -6.825914
   27       -6.504511
   28       -6.504510
   29       -6.379742
   30       -6.379742
   31       -6.335080
   32       -6.335080
   33       -5.914172
   34       -5.914172
   35       -5.735419
   36       -5.735418
   37       -5.619375
   38       -5.619374
   39       -5.456399
   40       -5.456399
   41       -4.747892
   42       -4.747892
   43       -4.606876
   44       -4.606876
   45       -3.755958
   46       -3.755957
   47       -3.651323
   48       -3.651323
   49       -3.646823
   50       -3.646823
   51       -3.525595
   52       -3.525595
   53       -2.018951
   54       -2.018950
   55       -1.920868
   56       -1.920867
   57       -1.911734
   58       -1.911733
   59       -1.784449
   60       -1.784448
   61        3.048339
   62        3.048339
   63        3.143634
   64        3.143634
   65        3.211172
   66        3.211172
   67        3.287844
   68        3.287845
   69        5.074501
   70        5.074502
   71        5.642524
   72        5.642524
   73        6.039227
   74        6.039227
   75        6.551992
   76        6.551992
   77        6.697438
   78        6.697439
   79        7.030427
   80        7.030428
   81        7.387868
   82        7.387868
   83        7.513769
   84        7.513769
   85        7.821578
   86        7.821579
 
  0.0000000E+00  0.5000000E+00  0.0000000E+00  0.1562500E-01
    1      -16.789064
    2      -16.789062
    3      -16.664167
    4      -16.664166
    5      -13.988288
    6      -13.988288
    7      -13.952676
    8      -13.952674
    9      -13.897952
   10      -13.897950
   11      -13.877764
   12      -13.877763
   13      -10.371452
   14      -10.371451
   15      -10.305906
   16      -10.305904
   17      -10.280315
   18      -10.280314
   19      -10.237413
   20      -10.237412
   21       -8.413992
   22       -8.413989
   23       -8.315546
   24       -8.315545
   25       -6.748902
   26       -6.748901
   27       -6.577402
   28       -6.577401
   29       -6.371196
   30       -6.371195
   31       -6.368295
   32       -6.368294
   33       -5.867245
   34       -5.867243
   35       -5.808073
   36       -5.808071
   37       -5.687181
   38       -5.687178
   39       -5.622665
   40       -5.622665
   41       -4.522189
   42       -4.522188
   43       -4.438530
   44       -4.438529
   45       -3.730056
   46       -3.730056
   47       -3.717545
   48       -3.717544
   49       -3.673341
   50       -3.673340
   51       -3.586891
   52       -3.586889
   53       -2.227548
   54       -2.227546
   55       -1.899093
   56       -1.899093
   57       -1.870529
   58       -1.870529
   59       -1.592006
   60       -1.592004
   61        2.885354
   62        2.885355
   63        3.143491
   64        3.143493
   65        3.301336
   66        3.301337
   67        3.442538
   68        3.442539
   69        4.707717
   70        4.707724
   71        5.798344
   72        5.798348
   73        6.060639
   74        6.060643
   75        6.673523
   76        6.673528
   77        6.733790
   78        6.733791
   79        6.992238
   80        6.992238
   81        7.347308
   82        7.347309
   83        7.512429
   84        7.512437
   85        7.849448
   86        7.849454
 
  0.2500000E+00  0.5000000E+00  0.0000000E+00  0.3125000E-01
    1      -16.771351
    2      -16.771349
    3      -16.683061
    4      -16.683059
    5      -13.984331
    6      -13.984331
    7      -13.959692
    8      -13.959691
    9      -13.892640
   10      -13.892638
   11      -13.877752
   12      -13.877751
   13      -10.356432
   14      -10.356430
   15      -10.309747
   16      -10.309746
   17      -10.283803
   18      -10.283803
   19      -10.253443
   20      -10.253442
   21       -8.402448
   22       -8.402446
   23       -8.331268
   24       -8.331267
   25       -6.729620
   26       -6.729619
   27       -6.606445
   28       -6.606444
   29       -6.366143
   30       -6.366141
   31       -6.364001
   32       -6.364000
   33       -5.872972
   34       -5.872971
   35       -5.822425
   36       -5.822423
   37       -5.611569
   38       -5.611567
   39       -5.547305
   40       -5.547305
   41       -4.609022
   42       -4.609020
   43       -4.545663
   44       -4.545662
   45       -3.715978
   46       -3.715978
   47       -3.674795
   48       -3.674795
   49       -3.638118
   50       -3.638117
   51       -3.603855
   52       -3.603853
   53       -2.142935
   54       -2.142934
   55       -1.898412
   56       -1.898411
   57       -1.886982
   58       -1.886981
   59       -1.685524
   60       -1.685522
   61        2.946897
   62        2.946897
   63        3.126489
   64        3.126490
   65        3.279912
   66        3.279913
   67        3.379836
   68        3.379836
   69        4.893442
   70        4.893449
   71        5.827328
   72        5.827329
   73        6.120105
   74        6.120109
   75        6.253798
   76        6.253800
   77        6.883380
   78        6.883381
   79        6.974173
   80        6.974174
   81        7.257876
   82        7.257877
   83        7.419857
   84        7.419863
   85        7.942066
   86        7.942071
 
  0.5000000E+00  0.5000000E+00  0.0000000E+00  0.1562500E-01
    1      -16.727800
    2      -16.727799
    3      -16.727798
    4      -16.727798
    5      -13.973380
    6      -13.973380
    7      -13.973379
    8      -13.973379
    9      -13.882664
   10      -13.882664
   11      -13.882663
   12      -13.882663
   13      -10.324736
   14      -10.324735
   15      -10.324734
   16      -10.324734
   17      -10.281128
   18      -10.281128
   19      -10.281128
   20      -10.281128
   21       -8.368865
   22       -8.368865
   23       -8.368864
   24       -8.368863
   25       -6.674085
   26       -6.674085
   27       -6.674085
   28       -6.674084
   29       -6.360150
   30       -6.360149
   31       -6.360149
   32       -6.360148
   33       -5.847895
   34       -5.847895
   35       -5.847895
   36       -5.847894
   37       -5.503664
   38       -5.503663
   39       -5.503663
   40       -5.503662
   41       -4.678297
   42       -4.678296
   43       -4.678295
   44       -4.678295
   45       -3.673241
   46       -3.673240
   47       -3.673240
   48       -3.673240
   49       -3.610361
   50       -3.610361
   51       -3.610360
   52       -3.610360
   53       -1.955574
   54       -1.955574
   55       -1.955573
   56       -1.955573
   57       -1.864144
   58       -1.864143
   59       -1.864143
   60       -1.864143
   61        3.069872
   62        3.069872
   63        3.069873
   64        3.069873
   65        3.277638
   66        3.277638
   67        3.277638
   68        3.277639
   69        5.382819
   70        5.382820
   71        5.382826
   72        5.382827
   73        6.182984
   74        6.182985
   75        6.182988
   76        6.182990
   77        6.923654
   78        6.923654
   79        6.923655
   80        6.923656
   81        7.291160
   82        7.291161
   83        7.291163
   84        7.291163
   85        8.017582
   86        8.017584
 
  0.0000000E+00  0.0000000E+00  0.2500000E+00  0.3125000E-01
    1      -16.813729
    2      -16.725017
    3      -16.682604
    4      -16.682072
    5      -14.090580
    6      -13.973256
    7      -13.949600
    8      -13.918693
    9      -13.897027
   10      -13.890129
   11      -13.868211
   12      -13.846960
   13      -10.414197
   14      -10.412137
   15      -10.342008
   16      -10.328411
   17      -10.297960
   18      -10.268074
   19      -10.220193
   20      -10.103196
   21       -8.692224
   22       -8.383013
   23       -8.289947
   24       -8.042995
   25       -6.882935
   26       -6.767721
   27       -6.569659
   28       -6.491344
   29       -6.420020
   30       -6.391068
   31       -6.352625
   32       -6.327458
   33       -6.013471
   34       -5.968067
   35       -5.904794
   36       -5.673454
   37       -5.600193
   38       -5.543331
   39       -5.541915
   40       -5.396709
   41       -4.684221
   42       -4.581736
   43       -4.514655
   44       -4.498001
   45       -3.869645
   46       -3.827986
   47       -3.784607
   48       -3.739515
   49       -3.603618
   50       -3.589951
   51       -3.537059
   52       -3.466449
   53       -2.118716
   54       -2.098523
   55       -2.050842
   56       -1.936801
   57       -1.860163
   58       -1.738620
   59       -1.675086
   60       -1.636207
   61        2.982092
   62        2.983838
   63        3.054787
   64        3.186517
   65        3.202547
   66        3.263570
   67        3.389592
   68        3.537332
   69        4.386966
   70        5.454496
   71        5.622212
   72        6.008493
   73        6.035118
   74        6.303597
   75        6.445556
   76        6.476483
   77        6.556017
   78        6.648524
   79        6.685704
   80        6.805453
   81        7.037783
   82        7.347586
   83        7.469216
   84        7.594930
   85        7.729907
   86        7.892495
 
  0.2500000E+00  0.0000000E+00  0.2500000E+00  0.6250000E-01
    1      -16.795143
    2      -16.718514
    3      -16.702463
    4      -16.688120
    5      -14.067908
    6      -13.966705
    7      -13.950436
    8      -13.920496
    9      -13.920001
   10      -13.886956
   11      -13.876203
   12      -13.849935
   13      -10.393154
   14      -10.369186
   15      -10.343550
   16      -10.326257
   17      -10.292790
   18      -10.267775
   19      -10.246905
   20      -10.146830
   21       -8.647380
   22       -8.366572
   23       -8.332038
   24       -8.091284
   25       -6.862777
   26       -6.781566
   27       -6.535148
   28       -6.477560
   29       -6.410120
   30       -6.389497
   31       -6.346291
   32       -6.331843
   33       -5.979903
   34       -5.917594
   35       -5.881632
   36       -5.676394
   37       -5.635472
   38       -5.600859
   39       -5.566293
   40       -5.434475
   41       -4.759749
   42       -4.608412
   43       -4.515568
   44       -4.413902
   45       -3.846222
   46       -3.775878
   47       -3.763933
   48       -3.725914
   49       -3.610608
   50       -3.598117
   51       -3.551191
   52       -3.486377
   53       -2.071227
   54       -2.047755
   55       -2.019330
   56       -1.953695
   57       -1.848126
   58       -1.771690
   59       -1.712763
   60       -1.707272
   61        2.971619
   62        2.978668
   63        3.093523
   64        3.121522
   65        3.233805
   66        3.262199
   67        3.292612
   68        3.487471
   69        4.535988
   70        5.509548
   71        5.578635
   72        5.695340
   73        6.085472
   74        6.106884
   75        6.338032
   76        6.619348
   77        6.620079
   78        6.688307
   79        6.721946
   80        6.921161
   81        6.949815
   82        7.334351
   83        7.432799
   84        7.446333
   85        7.821672
   86        7.886497
 
  0.5000000E+00  0.0000000E+00  0.2500000E+00  0.3125000E-01
    1      -16.749455
    2      -16.749454
    3      -16.703103
    4      -16.703103
    5      -14.010670
    6      -14.010669
    7      -13.939409
    8      -13.939408
    9      -13.906089
   10      -13.906089
   11      -13.865261
   12      -13.865260
   13      -10.355593
   14      -10.355592
   15      -10.301856
   16      -10.301856
   17      -10.292166
   18      -10.292166
   19      -10.243729
   20      -10.243728
   21       -8.522254
   22       -8.522254
   23       -8.210522
   24       -8.210521
   25       -6.817847
   26       -6.817846
   27       -6.485399
   28       -6.485398
   29       -6.393820
   30       -6.393820
   31       -6.336876
   32       -6.336876
   33       -5.872569
   34       -5.872568
   35       -5.776703
   36       -5.776702
   37       -5.713859
   38       -5.713858
   39       -5.526155
   40       -5.526155
   41       -4.644022
   42       -4.644022
   43       -4.509672
   44       -4.509672
   45       -3.765513
   46       -3.765512
   47       -3.669104
   48       -3.669103
   49       -3.667500
   50       -3.667499
   51       -3.534628
   52       -3.534627
   53       -2.006472
   54       -2.006471
   55       -1.922923
   56       -1.922923
   57       -1.873183
   58       -1.873182
   59       -1.771121
   60       -1.771120
   61        3.004651
   62        3.004652
   63        3.041639
   64        3.041639
   65        3.277355
   66        3.277355
   67        3.319841
   68        3.319842
   69        4.993908
   70        4.993909
   71        5.532588
   72        5.532589
   73        6.222177
   74        6.222178
   75        6.376432
   76        6.376432
   77        6.742565
   78        6.742567
   79        6.747338
   80        6.747339
   81        7.176772
   82        7.176773
   83        7.374984
   84        7.374984
   85        8.049163
   86        8.049163
 
  0.0000000E+00  0.2500000E+00  0.2500000E+00  0.6250000E-01
    1      -16.801337
    2      -16.738653
    3      -16.682487
    4      -16.682097
    5      -14.060878
    6      -13.978927
    7      -13.942721
    8      -13.930207
    9      -13.904726
   10      -13.895859
   11      -13.864242
   12      -13.857142
   13      -10.427748
   14      -10.388057
   15      -10.361926
   16      -10.306702
   17      -10.302172
   18      -10.261207
   19      -10.212613
   20      -10.131120
   21       -8.613008
   22       -8.366560
   23       -8.302244
   24       -8.161155
   25       -6.834546
   26       -6.721192
   27       -6.613602
   28       -6.501434
   29       -6.401424
   30       -6.386315
   31       -6.358012
   32       -6.337891
   33       -5.951459
   34       -5.922575
   35       -5.892671
   36       -5.767376
   37       -5.598951
   38       -5.582760
   39       -5.501349
   40       -5.481193
   41       -4.664445
   42       -4.584176
   43       -4.525547
   44       -4.512063
   45       -3.817105
   46       -3.813926
   47       -3.766725
   48       -3.677457
   49       -3.646183
   50       -3.606378
   51       -3.534521
   52       -3.471968
   53       -2.129230
   54       -2.125233
   55       -1.982350
   56       -1.938332
   57       -1.883544
   58       -1.767452
   59       -1.676749
   60       -1.638974
   61        2.936332
   62        2.943443
   63        3.119247
   64        3.172075
   65        3.203037
   66        3.232521
   67        3.431260
   68        3.523430
   69        4.540761
   70        5.362959
   71        5.734783
   72        5.893040
   73        6.018281
   74        6.154941
   75        6.485359
   76        6.491315
   77        6.557616
   78        6.694679
   79        6.707626
   80        6.866872
   81        7.074437
   82        7.184609
   83        7.545949
   84        7.627742
   85        7.634980
   86        7.894466
 
  0.2500000E+00  0.2500000E+00  0.2500000E+00  0.1250000E+00
    1      -16.784361
    2      -16.730195
    3      -16.700330
    4      -16.690191
    5      -14.047806
    6      -13.980861
    7      -13.958281
    8      -13.935111
    9      -13.912155
   10      -13.887076
   11      -13.866653
   12      -13.848867
   13      -10.406291
   14      -10.382480
   15      -10.364817
   16      -10.319218
   17      -10.284723
   18      -10.255178
   19      -10.222034
   20      -10.162434
   21       -8.573217
   22       -8.353479
   23       -8.327728
   24       -8.181196
   25       -6.822106
   26       -6.742463
   27       -6.598322
   28       -6.522230
   29       -6.391229
   30       -6.379936
   31       -6.352565
   32       -6.340963
   33       -5.963628
   34       -5.942460
   35       -5.910432
   36       -5.709334
   37       -5.632284
   38       -5.572704
   39       -5.519532
   40       -5.430392
   41       -4.747513
   42       -4.616981
   43       -4.498525
   44       -4.426567
   45       -3.838009
   46       -3.783438
   47       -3.747564
   48       -3.701238
   49       -3.630213
   50       -3.601896
   51       -3.545120
   52       -3.489785
   53       -2.086976
   54       -2.070712
   55       -1.959243
   56       -1.947642
   57       -1.875066
   58       -1.785634
   59       -1.729880
   60       -1.695431
   61        2.926947
   62        2.941343
   63        3.068327
   64        3.135342
   65        3.195210
   66        3.270126
   67        3.396188
   68        3.495943
   69        4.678100
   70        5.447511
   71        5.649057
   72        5.801509
   73        5.914581
   74        6.074233
   75        6.197923
   76        6.500906
   77        6.609556
   78        6.742199
   79        6.862607
   80        6.948455
   81        6.986787
   82        7.273555
   83        7.452834
   84        7.539829
   85        7.665301
   86        7.856480
 
  0.5000000E+00  0.2500000E+00  0.2500000E+00  0.6250000E-01
    1      -16.742771
    2      -16.742771
    3      -16.710015
    4      -16.710015
    5      -14.012371
    6      -14.012371
    7      -13.957111
    8      -13.957110
    9      -13.896290
   10      -13.896289
   11      -13.853678
   12      -13.853677
   13      -10.375733
   14      -10.375733
   15      -10.354453
   16      -10.354452
   17      -10.244086
   18      -10.244085
   19      -10.227084
   20      -10.227083
   21       -8.468918
   22       -8.468918
   23       -8.245650
   24       -8.245649
   25       -6.785212
   26       -6.785211
   27       -6.561241
   28       -6.561240
   29       -6.378520
   30       -6.378520
   31       -6.344749
   32       -6.344749
   33       -5.958984
   34       -5.958984
   35       -5.839495
   36       -5.839494
   37       -5.593513
   38       -5.593513
   39       -5.460487
   40       -5.460486
   41       -4.622374
   42       -4.622374
   43       -4.520462
   44       -4.520461
   45       -3.784486
   46       -3.784485
   47       -3.715613
   48       -3.715612
   49       -3.621393
   50       -3.621393
   51       -3.534565
   52       -3.534564
   53       -2.011601
   54       -2.011601
   55       -1.933810
   56       -1.933809
   57       -1.852284
   58       -1.852282
   59       -1.781203
   60       -1.781203
   61        2.949718
   62        2.949718
   63        3.009320
   64        3.009321
   65        3.317339
   66        3.317340
   67        3.373215
   68        3.373215
   69        5.110280
   70        5.110281
   71        5.569462
   72        5.569462
   73        5.996413
   74        5.996414
   75        6.340473
   76        6.340474
   77        6.686841
   78        6.686842
   79        6.909550
   80        6.909551
   81        7.121762
   82        7.121763
   83        7.532708
   84        7.532709
   85        7.780049
   86        7.780050
 
  0.0000000E+00  0.5000000E+00  0.2500000E+00  0.3125000E-01
    1      -16.770640
    2      -16.770638
    3      -16.682261
    4      -16.682260
    5      -13.999447
    6      -13.999447
    7      -13.944927
    8      -13.944927
    9      -13.914251
   10      -13.914250
   11      -13.858900
   12      -13.858900
   13      -10.406777
   14      -10.406777
   15      -10.352087
   16      -10.352087
   17      -10.247329
   18      -10.247328
   19      -10.192323