benzene                                 
           1
     7.403710    0.000000    0.000000
     0.000000    9.433061    0.000000
     0.000000    0.000000    6.744372
   C    H 
  24  24
Direct configuration=     1
   0.94599998  0.13760001  0.99980003
   0.05400000  0.86239999  0.00020000
   0.55400002  0.86239999  0.49980000
   0.44600001  0.13760001  0.50019997
   0.05400000  0.63760001  0.50019997
   0.94599998  0.36239999  0.49980000
   0.44600001  0.36239999  0.00020000
   0.55400002  0.63760001  0.99980003
   0.07680000  0.09030000  0.13240001
   0.92320001  0.90969998  0.86759996
   0.42320001  0.90969998  0.63240004
   0.57679999  0.09030000  0.36759999
   0.92320001  0.59030002  0.36759999
   0.07680000  0.40970001  0.63240004
   0.57679999  0.40970001  0.86759996
   0.42320001  0.59030002  0.13240001
   0.87000001  0.04540000  0.87180000
   0.12999999  0.95459998  0.12820000
   0.62999999  0.95459998  0.37180000
   0.37000001  0.04540000  0.62820000
   0.12999999  0.54540002  0.62820000
   0.87000001  0.45460001  0.37180000
   0.37000001  0.45460001  0.12820000
   0.62999999  0.54540002  0.87180000
   0.91119999  0.23160000  0.99910003
   0.08880000  0.76840001  0.00090000
   0.58880001  0.76840001  0.49910000
   0.41119999  0.23160000  0.50089997
   0.08880000  0.73159999  0.50089997
   0.91119999  0.26840001  0.49910000
   0.41119999  0.26840001  0.00090000
   0.58880001  0.73159999  0.99910003
   0.12650000  0.15199999  0.22240000
   0.87349999  0.84799999  0.77759999
   0.37349999  0.84799999  0.72240001
   0.62650001  0.15199999  0.27759999
   0.87349999  0.65200001  0.27759999
   0.12650000  0.34799999  0.72240001
   0.62650001  0.34799999  0.77759999
   0.37349999  0.65200001  0.22240000
   0.78079999  0.07640000  0.78670001
   0.21920000  0.92360002  0.21330001
   0.71920001  0.92360002  0.28670001
   0.28079999  0.07640000  0.71329999
   0.21920000  0.57639998  0.71329999
   0.78079999  0.42360002  0.28670001
   0.28079999  0.42360002  0.21330001
   0.71920001  0.57639998  0.78670001
Direct configuration=     2
   0.96638395  0.10268773  0.00986000
   0.03361603  0.89731227 -0.00985998
   0.53361605  0.89731227  0.50985997
   0.46638398  0.10268773  0.49014000
   0.03361603  0.60268773  0.49014000
   0.96638395  0.39731227  0.50985997
   0.46638398  0.39731227 -0.00985998
   0.53361605  0.60268773  0.00986000
   0.04942570  0.07392331  0.09023185
   0.95057432  0.92607667  0.90976812
   0.45057432  0.92607667  0.59023188
   0.54942568  0.07392331  0.40976815
   0.95057432  0.57392333  0.40976815
   0.04942570  0.42607670  0.59023188
   0.54942568  0.42607670  0.90976812
   0.45057432  0.57392333  0.09023185
   0.90032519  0.03727813  0.90073898
   0.09967481  0.96272184  0.09926102
   0.59967481  0.96272184  0.40073898
   0.40032519  0.03727813  0.59926102
   0.09967481  0.53727816  0.59926102
   0.90032519  0.46272187  0.40073898
   0.40032519  0.46272187  0.09926102
   0.59967481  0.53727816  0.90073898
   0.89443192  0.27684526  0.99977542
   0.10556807  0.72315475  0.00022461
   0.60556808  0.72315475  0.49977539
   0.39443192  0.27684526  0.50022458
   0.10556807  0.77684525  0.50022458
   0.89443192  0.22315475  0.49977539
   0.39443192  0.22315475  0.00022461
   0.60556808  0.77684525  0.99977542
   0.15185498  0.18367962  0.26756002
   0.84814501  0.81632036  0.73243997
   0.34814501  0.81632036  0.76756003
   0.65185499  0.18367962  0.23243997
   0.84814501  0.68367964  0.23243997
   0.15185498  0.31632036  0.76756003
   0.65185499  0.31632036  0.73243997
   0.34814501  0.68367964  0.26756002
   0.73766916  0.09135908  0.74466235
   0.26233082  0.90864093  0.25533767
   0.76233084  0.90864093  0.24466235
   0.23766916  0.09135908  0.75533765
   0.26233082  0.59135907  0.75533765
   0.73766916  0.40864093  0.24466235
   0.23766916  0.40864093  0.25533767
   0.76233084  0.59135907  0.74466235
Direct configuration=     3
   0.95025467  0.13031286  0.00189982
   0.04974531  0.86968714 -0.00189979
   0.54974533  0.86968714  0.50189979
   0.45025470  0.13031286  0.49810018
   0.04974531  0.63031286  0.49810018
   0.95025467  0.36968714  0.50189979
   0.45025470  0.36968714 -0.00189979
   0.54974533  0.63031286  0.00189982
   0.07108624  0.08688174  0.12359836
   0.92891378  0.91311824  0.87640161
   0.42891378  0.91311824  0.62359839
   0.57108622  0.08688174  0.37640164
   0.92891378  0.58688176  0.37640164
   0.07108624  0.41311827  0.62359839
   0.57108622  0.41311827  0.87640161
   0.42891378  0.58688176  0.12359836
   0.87632970  0.04370474  0.87784036
   0.12367030  0.95629523  0.12215964
   0.62367030  0.95629523  0.37784036
   0.37632970  0.04370474  0.62215964
   0.12367030  0.54370477  0.62215964
   0.87632970  0.45629526  0.37784036
   0.37632970  0.45629526  0.12215964
   0.62367030  0.54370477  0.87784036
   0.90770003  0.24104393  0.99924100
   0.09229995  0.75895609  0.00075903
   0.59229997  0.75895609  0.49924097
   0.40770003  0.24104393  0.50075900
   0.09229995  0.74104391  0.50075900
   0.90770003  0.25895609  0.49924097
   0.40770003  0.25895609  0.00075903
   0.59229997  0.74104391  0.99924100
   0.13179228  0.15861240  0.23182613
   0.86820771  0.84138758  0.76817386
   0.36820771  0.84138758  0.73182614
   0.63179229  0.15861240  0.26817386
   0.86820771  0.65861242  0.26817386
   0.13179228  0.34138758  0.73182614
   0.63179229  0.34138758  0.76817386
   0.36820771  0.65861242  0.23182613
   0.77179740  0.07952237  0.77792560
   0.22820259  0.92047765  0.22207442
   0.72820260  0.92047765  0.27792560
   0.27179740  0.07952237  0.72207440
   0.22820259  0.57952235  0.72207440
   0.77179740  0.42047765  0.27792560
   0.27179740  0.42047765  0.22207442
   0.72820260  0.57952235  0.77792560
Direct configuration=     4
   0.94917072  0.13216937  0.00136486
   0.05082926  0.86783063 -0.00136484
   0.55082928  0.86783063  0.50136483
   0.44917075  0.13216937  0.49863514
   0.05082926  0.63216937  0.49863514
   0.94917072  0.36783063  0.50136483
   0.44917075  0.36783063 -0.00136484
   0.55082928  0.63216937  0.00136486
   0.07254191  0.08775259  0.12584072
   0.92745811  0.91224738  0.87415925
   0.42745811  0.91224738  0.62584075
   0.57254189  0.08775259  0.37415928
   0.92745811  0.58775262  0.37415928
   0.07254191  0.41224741  0.62584075
   0.57254189  0.41224741  0.87415925
   0.42745811  0.58775262  0.12584072
   0.87471711  0.04413664  0.87630148
   0.12528289  0.95586334  0.12369852
   0.62528289  0.95586334  0.37630148
   0.37471711  0.04413664  0.62369852
   0.12528289  0.54413666  0.62369852
   0.87471711  0.45586337  0.37630148
   0.37471711  0.45586337  0.12369852
   0.62528289  0.54413666  0.87630148
   0.90859170  0.23863794  0.99920509
   0.09140828  0.76136208  0.00079494
   0.59140830  0.76136208  0.49920506
   0.40859170  0.23863794  0.50079491
   0.09140828  0.73863792  0.50079491
   0.90859170  0.26136208  0.49920506
   0.40859170  0.26136208  0.00079494
   0.59140830  0.73863792  0.99920509
   0.13044398  0.15692779  0.22942467
   0.86955600  0.84307220  0.77057531
   0.36955600  0.84307220  0.72942469
   0.63044400  0.15692779  0.27057531
   0.86955600  0.65692780  0.27057531
   0.13044398  0.34307220  0.72942469
   0.63044400  0.34307220  0.77057531
   0.36955600  0.65692780  0.22942467
   0.77409095  0.07872689  0.78016102
   0.22590903  0.92127312  0.21983900
   0.72590905  0.92127312  0.28016102
   0.27409095  0.07872689  0.71983898
   0.22590903  0.57872688  0.71983898
   0.77409095  0.42127312  0.28016102
   0.27409095  0.42127312  0.21983900
   0.72590905  0.57872688  0.78016102
Direct configuration=     5
   0.94888213  0.13266366  0.00122243
   0.05111785  0.86733634 -0.00122241
   0.55111787  0.86733634  0.50122241
   0.44888216  0.13266366  0.49877757
   0.05111785  0.63266366  0.49877757
   0.94888213  0.36733634  0.50122241
   0.44888216  0.36733634 -0.00122241
   0.55111787  0.63266366  0.00122243
   0.07292947  0.08798445  0.12643773
   0.92707054  0.91201552  0.87356224
   0.42707054  0.91201552  0.62643776
   0.57292946  0.08798445  0.37356227
   0.92707054  0.58798448  0.37356227
   0.07292947  0.41201555  0.62643776
   0.57292946  0.41201555  0.87356224
   0.42707054  0.58798448  0.12643773
   0.87428777  0.04425163  0.87589177
   0.12571223  0.95574835  0.12410823
   0.62571223  0.95574835  0.37589177
   0.37428777  0.04425163  0.62410823
   0.12571223  0.54425165  0.62410823
   0.87428777  0.45574838  0.37589177
   0.37428777  0.45574838  0.12410823
   0.62571223  0.54425165  0.87589177
   0.90882910  0.23799736  0.99919552
   0.09117088  0.76200266  0.00080450
   0.59117090  0.76200266  0.49919550
   0.40882910  0.23799736  0.50080448
   0.09117088  0.73799734  0.50080448
   0.90882910  0.26200266  0.49919550
   0.40882910  0.26200266  0.00080450
   0.59117090  0.73799734  0.99919552
   0.13008501  0.15647927  0.22878530
   0.86991498  0.84352072  0.77121469
   0.36991498  0.84352072  0.72878531
   0.63008502  0.15647927  0.27121469
   0.86991498  0.65647928  0.27121469
   0.13008501  0.34352072  0.72878531
   0.63008502  0.34352072  0.77121469
   0.36991498  0.65647928  0.22878530
   0.77470159  0.07851511  0.78075618
   0.22529839  0.92148491  0.21924383
   0.72529841  0.92148491  0.28075618
   0.27470159  0.07851511  0.71924382
   0.22529839  0.57851509  0.71924382
   0.77470159  0.42148491  0.28075618
   0.27470159  0.42148491  0.21924383
   0.72529841  0.57851509  0.78075618
Direct configuration=     6
   0.94680923  0.14283252  0.00423709
   0.05319075  0.85716748 -0.00423707
   0.55319077  0.85716748  0.50423706
   0.44680926  0.14283252  0.49576291
   0.05319075  0.64283252  0.49576291
   0.94680923  0.35716748  0.50423706
   0.44680926  0.35716748 -0.00423707
   0.55319077  0.64283252  0.00423709
   0.07648740  0.09706865  0.13390362
   0.92351261  0.90293133  0.86609635
   0.42351261  0.90293133  0.63390365
   0.57648739  0.09706865  0.36609638
   0.92351261  0.59706867  0.36609638
   0.07648740  0.40293136  0.63390365
   0.57648739  0.40293136  0.86609635
   0.42351261  0.59706867  0.13390362
   0.86644453  0.04797816  0.86782448
   0.13355547  0.95202182  0.13217552
   0.63355547  0.95202182  0.36782448
   0.36644453  0.04797816  0.63217552
   0.13355547  0.54797818  0.63217552
   0.86644453  0.45202185  0.36782448
   0.36644453  0.45202185  0.13217552
   0.63355547  0.54797818  0.86782448
   0.90418935  0.25089452  0.00012623
   0.09581064  0.74910550 -0.00012620
   0.59581065  0.74910550  0.50012620
   0.40418935  0.25089452  0.49987377
   0.09581064  0.75089450  0.49987377
   0.90418935  0.24910550  0.50012620
   0.40418935  0.24910550 -0.00012620
   0.59581065  0.75089450  0.00012623
   0.13706821  0.16560255  0.24094653
   0.86293178  0.83439743  0.75905346
   0.36293178  0.83439743  0.74094654
   0.63706822  0.16560255  0.25905346
   0.86293178  0.66560257  0.25905346
   0.13706821  0.33439743  0.74094654
   0.63706822  0.33439743  0.75905346
   0.36293178  0.66560257  0.24094653
   0.76149375  0.08309864  0.76744778
   0.23850624  0.91690138  0.23255224
   0.73850625  0.91690138  0.26744778
   0.26149375  0.08309864  0.73255222
   0.23850624  0.58309862  0.73255222
   0.76149375  0.41690138  0.26744778
   0.26149375  0.41690138  0.23255224
   0.73850625  0.58309862  0.76744778
Direct configuration=     7
   0.94695163  0.14213398  0.00403001
   0.05304835  0.85786602 -0.00402998
   0.55304837  0.85786602  0.50402998
   0.44695166  0.14213398  0.49596999
   0.05304835  0.64213398  0.49596999
   0.94695163  0.35786602  0.50402998
   0.44695166  0.35786602 -0.00402998
   0.55304837  0.64213398  0.00403001
   0.07624300  0.09644462  0.13339076
   0.92375702  0.90355536  0.86660921
   0.42375702  0.90355536  0.63339079
   0.57624298  0.09644462  0.36660924
   0.92375702  0.59644464  0.36660924
   0.07624300  0.40355539  0.63339079
   0.57624298  0.40355539  0.86660921
   0.42375702  0.59644464  0.13339076
   0.86698331  0.04772217  0.86837865
   0.13301669  0.95227781  0.13162135
   0.63301669  0.95227781  0.36837865
   0.36698331  0.04772217  0.63162135
   0.13301669  0.54772219  0.63162135
   0.86698331  0.45227784  0.36837865
   0.36698331  0.45227784  0.13162135
   0.63301669  0.54772219  0.86837865
   0.90450807  0.25000856  0.00006230
   0.09549192  0.74999145 -0.00006227
   0.59549193  0.74999145  0.50006227
   0.40450807  0.25000856  0.49993770
   0.09549192  0.75000855  0.49993770
   0.90450807  0.24999145  0.50006227
   0.40450807  0.24999145 -0.00006227
   0.59549193  0.75000855  0.00006230
   0.13658851  0.16497584  0.24011113
   0.86341148  0.83502415  0.75988886
   0.36341148  0.83502415  0.74011114
   0.63658852  0.16497584  0.25988886
   0.86341148  0.66497585  0.25988886
   0.13658851  0.33502415  0.74011114
   0.63658852  0.33502415  0.75988886
   0.36341148  0.66497585  0.24011113
   0.76240104  0.08278378  0.76836198
   0.23759894  0.91721624  0.23163803
   0.73759896  0.91721624  0.26836198
   0.26240104  0.08278378  0.73163802
   0.23759894  0.58278376  0.73163802
   0.76240104  0.41721624  0.26836198
   0.26240104  0.41721624  0.23163803
   0.73759896  0.58278376  0.76836198
Direct configuration=     8
   0.94109434  0.14302963 -0.00223246
   0.05890564  0.85697037  0.00223249
   0.55890566  0.85697037  0.49776751
   0.44109437  0.14302963  0.50223246
   0.05890564  0.64302963  0.50223246
   0.94109434  0.35697037  0.49776751
   0.44109437  0.35697037  0.00223249
   0.55890566  0.64302963 -0.00223246
   0.08276445  0.09108513  0.13814150
   0.91723556  0.90891484  0.86185847
   0.41723556  0.90891484  0.63814153
   0.58276444  0.09108513  0.36185850
   0.91723556  0.59108516  0.36185850
   0.08276445  0.40891487  0.63814153
   0.58276444  0.40891487  0.86185847
   0.41723556  0.59108516  0.13814150
   0.86882208  0.04526064  0.86921548
   0.13117792  0.95473934  0.13078452
   0.63117792  0.95473934  0.36921548
   0.36882208  0.04526064  0.63078452
   0.13117792  0.54526066  0.63078452
   0.86882208  0.45473937  0.36921548
   0.36882208  0.45473937  0.13078452
   0.63117792  0.54526066  0.86921548
   0.90186015  0.25776755  0.00120641
   0.09813984  0.74223247 -0.00120638
   0.59813985  0.74223247  0.50120638
   0.40186015  0.25776755  0.49879359
   0.09813984  0.75776753  0.49879359
   0.90186015  0.24223247  0.50120638
   0.40186015  0.24223247 -0.00120638
   0.59813985  0.75776753  0.00120641
   0.14044092  0.17048176  0.24672029
   0.85955907  0.82951822  0.75327969
   0.35955907  0.82951822  0.74672031
   0.64044093  0.17048176  0.25327969
   0.85955907  0.67048178  0.25327969
   0.14044092  0.32951822  0.74672031
   0.64044093  0.32951822  0.75327969
   0.35955907  0.67048178  0.24672029
   0.75713642  0.08463558  0.76272148
   0.24286357  0.91536443  0.23727853
   0.74286358  0.91536443  0.26272148
   0.25713642  0.08463558  0.73727852
   0.24286357  0.58463557  0.73727852
   0.75713642  0.41536443  0.26272148
   0.25713642  0.41536443  0.23727853
   0.74286358  0.58463557  0.76272148
Direct configuration=     9
   0.94531333  0.14238450  0.00227838
   0.05468665  0.85761550 -0.00227835
   0.55468667  0.85761550  0.50227835
   0.44531336  0.14238450  0.49772162
   0.05468665  0.64238450  0.49772162
   0.94531333  0.35761550  0.50227835
   0.44531336  0.35761550 -0.00227835
   0.55468667  0.64238450  0.00227838
   0.07806706  0.09494556  0.13471955
   0.92193295  0.90505442  0.86528042
   0.42193295  0.90505442  0.63471958
   0.57806705  0.09494556  0.36528045
   0.92193295  0.59494558  0.36528045
   0.07806706  0.40505445  0.63471958
   0.57806705  0.40505445  0.86528042
   0.42193295  0.59494558  0.13471955
   0.86749762  0.04703368  0.86861272
   0.13250238  0.95296630  0.13138728
   0.63250238  0.95296630  0.36861272
   0.36749762  0.04703368  0.63138728
   0.13250238  0.54703370  0.63138728
   0.86749762  0.45296633  0.36861272
   0.36749762  0.45296633  0.13138728
   0.63250238  0.54703370  0.86861272
   0.90376744  0.25217877  0.00038231
   0.09623255  0.74782125 -0.00038228
   0.59623256  0.74782125  0.50038228
   0.40376744  0.25217877  0.49961769
   0.09623255  0.75217875  0.49961769
   0.90376744  0.24782125  0.50038228
   0.40376744  0.24782125 -0.00038228
   0.59623256  0.75217875  0.00038231
   0.13766603  0.16651586  0.24195972
   0.86233395  0.83348413  0.75804026
   0.36233395  0.83348413  0.74195974
   0.63766605  0.16651586  0.25804026
   0.86233395  0.66651587  0.25804026
   0.13766603  0.33348413  0.74195974
   0.63766605  0.33348413  0.75804026
   0.36233395  0.66651587  0.24195972
   0.76092852  0.08330173  0.76678432
   0.23907147  0.91669828  0.23321569
   0.73907148  0.91669828  0.26678432
   0.26092852  0.08330173  0.73321568
   0.23907147  0.58330172  0.73321568
   0.76092852  0.41669828  0.26678432
   0.26092852  0.41669828  0.23321569
   0.73907148  0.58330172  0.76678432
Direct configuration=    10
   0.94594330  0.14096528  0.00221240
   0.05405668  0.85903472 -0.00221237
   0.55405670  0.85903472  0.50221237
   0.44594333  0.14096528  0.49778760
   0.05405668  0.64096528  0.49778760
   0.94594330  0.35903472  0.50221237
   0.44594333  0.35903472 -0.00221237
   0.55405670  0.64096528  0.00221240
   0.07765581  0.09406643  0.13387583
   0.92234421  0.90593355  0.86612414
   0.42234421  0.90593355  0.63387586
   0.57765579  0.09406643  0.36612417
   0.92234421  0.59406645  0.36612417
   0.07765581  0.40593358  0.63387586
   0.57765579  0.40593358  0.86612414
   0.42234421  0.59406645  0.13387583
   0.86633282  0.04717924  0.86753995
   0.13366718  0.95282074  0.13246005
   0.63366718  0.95282074  0.36753995
   0.36633282  0.04717924  0.63246005
   0.13366718  0.54717926  0.63246005
   0.86633282  0.45282077  0.36753995
   0.36633282  0.45282077  0.13246005
   0.63366718  0.54717926  0.86753995
   0.90315901  0.25378392  0.00093584
   0.09684098  0.74621609 -0.00093581
   0.59684099  0.74621609  0.50093581
   0.40315901  0.25378392  0.49906416
   0.09684098  0.75378391  0.49906416
   0.90315901  0.24621609  0.50093581
   0.40315901  0.24621609 -0.00093581
   0.59684099  0.75378391  0.00093584
   0.13833093  0.16743884  0.24276120
   0.86166905  0.83256115  0.75723878
   0.36166905  0.83256115  0.74276122
   0.63833095  0.16743884  0.25723878
   0.86166905  0.66743885  0.25723878
   0.13833093  0.33256115  0.74276122
   0.63833095  0.33256115  0.75723878
   0.36166905  0.66743885  0.24276120
   0.76176512  0.08297557  0.76718624
   0.23823486  0.91702445  0.23281377
   0.73823488  0.91702445  0.26718624
   0.26176512  0.08297557  0.73281376
   0.23823486  0.58297555  0.73281376
   0.76176512  0.41702445  0.26718624
   0.26176512  0.41702445  0.23281377
   0.73823488  0.58297555  0.76718624
Direct configuration=    11
   0.94554352  0.14186592  0.00225427
   0.05445646  0.85813408 -0.00225425
   0.55445648  0.85813408  0.50225424
   0.44554355  0.14186592  0.49774573
   0.05445646  0.64186592  0.49774573
   0.94554352  0.35813408  0.50225424
   0.44554355  0.35813408 -0.00225425
   0.55445648  0.64186592  0.00225427
   0.07791679  0.09462433  0.13441126
   0.92208322  0.90537565  0.86558871
   0.42208322  0.90537565  0.63441129
   0.57791678  0.09462433  0.36558874
   0.92208322  0.59462435  0.36558874
   0.07791679  0.40537568  0.63441129
   0.57791678  0.40537568  0.86558871
   0.42208322  0.59462435  0.13441126
   0.86707201  0.04708686  0.86822073
   0.13292799  0.95291312  0.13177927
   0.63292799  0.95291312  0.36822073
   0.36707201  0.04708686  0.63177927
   0.13292799  0.54708688  0.63177927
   0.86707201  0.45291314  0.36822073
   0.36707201  0.45291314  0.13177927
   0.63292799  0.54708688  0.86822073
   0.90354512  0.25276528  0.00058456
   0.09645486  0.74723473 -0.00058454
   0.59645488  0.74723473  0.50058454
   0.40354512  0.25276528  0.49941544
   0.09645486  0.75276527  0.49941544
   0.90354512  0.24723473  0.50058454
   0.40354512  0.24723473 -0.00058454
   0.59645488  0.75276527  0.00058456
   0.13790898  0.16685311  0.24225258
   0.86209100  0.83314688  0.75774741
   0.36209100  0.83314688  0.74225259
   0.63790900  0.16685311  0.25774741
   0.86209100  0.66685312  0.25774741
   0.13790898  0.33314688  0.74225259
   0.63790900  0.33314688  0.75774741
   0.36209100  0.66685312  0.24225258
   0.76123421  0.08318255  0.76693118
   0.23876578  0.91681746  0.23306883
   0.73876579  0.91681746  0.26693118
   0.26123421  0.08318255  0.73306882
   0.23876578  0.58318254  0.73306882
   0.76123421  0.41681746  0.26693118
   0.26123421  0.41681746  0.23306883
   0.73876579  0.58318254  0.76693118
Direct configuration=    12
   0.94544299  0.14193807  0.00205377
   0.05455699  0.85806193 -0.00205374
   0.55455701  0.85806193  0.50205374
   0.44544302  0.14193807  0.49794623
   0.05455699  0.64193807  0.49794623
   0.94544299  0.35806193  0.50205374
   0.44544302  0.35806193 -0.00205374
   0.55455701  0.64193807  0.00205377
   0.07811063  0.09465330  0.13468899
   0.92188938  0.90534668  0.86531098
   0.42188938  0.90534668  0.63468902
   0.57811062  0.09465330  0.36531101
   0.92188938  0.59465332  0.36531101
   0.07811063  0.40534671  0.63468902
   0.57811062  0.40534671  0.86531098
   0.42188938  0.59465332  0.13468899
   0.86671780  0.04720672  0.86799516
   0.13328220  0.95279326  0.13200484
   0.63328220  0.95279326  0.36799516
   0.36671780  0.04720672  0.63200484
   0.13328220  0.54720674  0.63200484
   0.86671780  0.45279329  0.36799516
   0.36671780  0.45279329  0.13200484
   0.63328220  0.54720674  0.86799516
   0.90354812  0.25282381  0.00108167
   0.09645187  0.74717620 -0.00108164
   0.59645188  0.74717620  0.50108164
   0.40354812  0.25282381  0.49891833
   0.09645187  0.75282380  0.49891833
   0.90354812  0.24717620  0.50108164
   0.40354812  0.24717620 -0.00108164
   0.59645188  0.75282380  0.00108167
   0.13790206  0.16698594  0.24194334
   0.86209792  0.83301405  0.75805664
   0.36209792  0.83301405  0.74194336
   0.63790208  0.16698594  0.25805664
   0.86209792  0.66698595  0.25805664
   0.13790206  0.33301405  0.74194336
   0.63790208  0.33301405  0.75805664
   0.36209792  0.66698595  0.24194334
   0.76167934  0.08299587  0.76703839
   0.23832065  0.91700415  0.23296163
   0.73832066  0.91700415  0.26703839
   0.26167934  0.08299587  0.73296161
   0.23832065  0.58299585  0.73296161
   0.76167934  0.41700415  0.26703839
   0.26167934  0.41700415  0.23296163
   0.73832066  0.58299585  0.76703839
Direct configuration=    13
   0.94547949  0.14191187  0.00212657
   0.05452049  0.85808813 -0.00212655
   0.55452051  0.85808813  0.50212655
   0.44547952  0.14191187  0.49787343
   0.05452049  0.64191187  0.49787343
   0.94547949  0.35808813  0.50212655
   0.44547952  0.35808813 -0.00212655
   0.55452051  0.64191187  0.00212657
   0.07804025  0.09464278  0.13458814
   0.92195977  0.90535720  0.86541183
   0.42195977  0.90535720  0.63458817
   0.57804023  0.09464278  0.36541186
   0.92195977  0.59464280  0.36541186
   0.07804025  0.40535723  0.63458817
   0.57804023  0.40535723  0.86541183
   0.42195977  0.59464280  0.13458814
   0.86684642  0.04716320  0.86807707
   0.13315358  0.95283678  0.13192293
   0.63315358  0.95283678  0.36807707
   0.36684642  0.04716320  0.63192293
   0.13315358  0.54716322  0.63192293
   0.86684642  0.45283681  0.36807707
   0.36684642  0.45283681  0.13192293
   0.63315358  0.54716322  0.86807707
   0.90354703  0.25280256  0.00090116
   0.09645296  0.74719746 -0.00090113
   0.59645297  0.74719746  0.50090113
   0.40354703  0.25280256  0.49909884
   0.09645296  0.75280254  0.49909884
   0.90354703  0.24719746  0.50090113
   0.40354703  0.24719746 -0.00090113
   0.59645297  0.75280254  0.00090116
   0.13790458  0.16693771  0.24205563
   0.86209541  0.83306228  0.75794435
   0.36209541  0.83306228  0.74205565
   0.63790459  0.16693771  0.25794435
   0.86209541  0.66693772  0.25794435
   0.13790458  0.33306228  0.74205565
   0.63790459  0.33306228  0.75794435
   0.36209541  0.66693772  0.24205563
   0.76151770  0.08306366  0.76699946
   0.23848228  0.91693636  0.23300056
   0.73848230  0.91693636  0.26699946
   0.26151770  0.08306366  0.73300054
   0.23848228  0.58306364  0.73300054
   0.76151770  0.41693636  0.26699946
   0.26151770  0.41693636  0.23300056
   0.73848230  0.58306364  0.76699946
Direct configuration=    14
   0.94551389  0.14196187  0.00209993
   0.05448609  0.85803813 -0.00209990
   0.55448611  0.85803813  0.50209990
   0.44551392  0.14196187  0.49790007
   0.05448609  0.64196187  0.49790007
   0.94551389  0.35803813  0.50209990
   0.44551392  0.35803813 -0.00209990
   0.55448611  0.64196187  0.00209993
   0.07804718  0.09459525  0.13456788
   0.92195284  0.90540473  0.86543209
   0.42195284  0.90540473  0.63456791
   0.57804716  0.09459525  0.36543212
   0.92195284  0.59459527  0.36543212
   0.07804718  0.40540476  0.63456791
   0.57804716  0.40540476  0.86543209
   0.42195284  0.59459527  0.13456788
   0.86688645  0.04709920  0.86819285
   0.13311355  0.95290077  0.13180715
   0.63311355  0.95290077  0.36819285
   0.36688645  0.04709920  0.63180715
   0.13311355  0.54709923  0.63180715
   0.86688645  0.45290080  0.36819285
   0.36688645  0.45290080  0.13180715
   0.63311355  0.54709923  0.86819285
   0.90356782  0.25281525  0.00153537
   0.09643216  0.74718477 -0.00153534
   0.59643218  0.74718477  0.50153534
   0.40356782  0.25281525  0.49846463
   0.09643216  0.75281523  0.49846463
   0.90356782  0.24718477  0.50153534
   0.40356782  0.24718477 -0.00153534
   0.59643218  0.75281523  0.00153537
   0.13793834  0.16715653  0.24172945
   0.86206164  0.83284346  0.75827054
   0.36206164  0.83284346  0.74172946
   0.63793836  0.16715653  0.25827054
   0.86206164  0.66715654  0.25827054
   0.13793834  0.33284346  0.74172946
   0.63793836  0.33284346  0.75827054
   0.36206164  0.66715654  0.24172945
   0.76173718  0.08295108  0.76680446
   0.23826280  0.91704894  0.23319555
   0.73826282  0.91704894  0.26680446
   0.26173718  0.08295108  0.73319554
   0.23826280  0.58295106  0.73319554
   0.76173718  0.41704894  0.26680446
   0.26173718  0.41704894  0.23319555
   0.73826282  0.58295106  0.76680446
Direct configuration=    15
   0.94558907  0.14207115  0.00204169
   0.05441091  0.85792885 -0.00204167
   0.55441093  0.85792885  0.50204166
   0.44558910  0.14207115  0.49795831
   0.05441091  0.64207115  0.49795831
   0.94558907  0.35792885  0.50204166
   0.44558910  0.35792885 -0.00204167
   0.55441093  0.64207115  0.00204169
   0.07806233  0.09449138  0.13452360
   0.92193769  0.90550860  0.86547637
   0.42193769  0.90550860  0.63452363
   0.57806231  0.09449138  0.36547640
   0.92193769  0.59449140  0.36547640
   0.07806233  0.40550863  0.63452363
   0.57806231  0.40550863  0.86547637
   0.42193769  0.59449140  0.13452360
   0.86697393  0.04695936  0.86844587
   0.13302607  0.95304062  0.13155413
   0.63302607  0.95304062  0.36844587
   0.36697393  0.04695936  0.63155413
   0.13302607  0.54695938  0.63155413
   0.86697393  0.45304065  0.36844587
   0.36697393  0.45304065  0.13155413
   0.63302607  0.54695938  0.86844587
   0.90361327  0.25284298  0.00292132
   0.09638672  0.74715703 -0.00292129
   0.59638673  0.74715703  0.50292129
   0.40361327  0.25284298  0.49707868
   0.09638672  0.75284297  0.49707868
   0.90361327  0.24715703  0.50292129
   0.40361327  0.24715703 -0.00292129
   0.59638673  0.75284297  0.00292132
   0.13801213  0.16763472  0.24101663
   0.86198786  0.83236526  0.75898336
   0.36198786  0.83236526  0.74101664
   0.63801214  0.16763472  0.25898336
   0.86198786  0.66763474  0.25898336
   0.13801213  0.33236526  0.74101664
   0.63801214  0.33236526  0.75898336
   0.36198786  0.66763474  0.24101663
   0.76221681  0.08270506  0.76637833
   0.23778318  0.91729496  0.23362168
   0.73778319  0.91729496  0.26637833
   0.26221681  0.08270506  0.73362167
   0.23778318  0.58270504  0.73362167
   0.76221681  0.41729496  0.26637833
   0.26221681  0.41729496  0.23362168
   0.73778319  0.58270504  0.76637833
Direct configuration=    16
   0.94563237  0.14205026  0.00208868
   0.05436761  0.85794974 -0.00208865
   0.55436763  0.85794974  0.50208865
   0.44563240  0.14205026  0.49791132
   0.05436761  0.64205026  0.49791132
   0.94563237  0.35794974  0.50208865
   0.44563240  0.35794974 -0.00208865
   0.55436763  0.64205026  0.00208868
   0.07801880  0.09455145  0.13446008
   0.92198121  0.90544853  0.86553989
   0.42198121  0.90544853  0.63446011
   0.57801879  0.09455145  0.36553992
   0.92198121  0.59455147  0.36553992
   0.07801880  0.40544856  0.63446011
   0.57801879  0.40544856  0.86553989
   0.42198121  0.59455147  0.13446008
   0.86697460  0.04699487  0.86847193
   0.13302540  0.95300511  0.13152807
   0.63302540  0.95300511  0.36847193
   0.36697460  0.04699487  0.63152807
   0.13302540  0.54699489  0.63152807
   0.86697460  0.45300514  0.36847193
   0.36697460  0.45300514  0.13152807
   0.63302540  0.54699489  0.86847193
   0.90361252  0.25285581  0.00322677
   0.09638746  0.74714420 -0.00322674
   0.59638748  0.74714420  0.50322674
   0.40361252  0.25285581  0.49677323
   0.09638746  0.75285580  0.49677323
   0.90361252  0.24714420  0.50322674
   0.40361252  0.24714420 -0.00322674
   0.59638748  0.75285580  0.00322677
   0.13803269  0.16772814  0.24084854
   0.86196729  0.83227185  0.75915145
   0.36196729  0.83227185  0.74084855
   0.63803271  0.16772814  0.25915145
   0.86196729  0.66772815  0.25915145
   0.13803269  0.33227185  0.74084855
   0.63803271  0.33227185  0.75915145
   0.36196729  0.66772815  0.24084854
   0.76231099  0.08265374  0.76627158
   0.23768899  0.91734628  0.23372843
   0.73768901  0.91734628  0.26627158
   0.26231099  0.08265374  0.73372842
   0.23768899  0.58265372  0.73372842
   0.76231099  0.41734628  0.26627158
   0.26231099  0.41734628  0.23372843
   0.73768901  0.58265372  0.76627158
Direct configuration=    17
   0.94570699  0.14201425  0.00216965
   0.05429299  0.85798575 -0.00216963
   0.55429301  0.85798575  0.50216962
   0.44570702  0.14201425  0.49783035