  32  32   0   0
  0.8905205E+01  0.4932875E-09  0.4932875E-09  0.1352877E-08  0.5000000E-15
  1.000000000000000E-004
  CAR 
 graphite                                
     15.48501618    -17.01792924  301      4.60055001      1.00000000
    -17.018  0.0000E+00  0.0000E+00
    -16.910  0.0000E+00  0.0000E+00
    -16.801  0.0000E+00  0.0000E+00
    -16.693  0.0000E+00  0.0000E+00
    -16.585  0.0000E+00  0.0000E+00
    -16.476  0.0000E+00  0.0000E+00
    -16.368  0.0000E+00  0.0000E+00
    -16.260  0.0000E+00  0.0000E+00
    -16.151  0.0000E+00  0.0000E+00
    -16.043  0.0000E+00  0.0000E+00
    -15.934  0.0000E+00  0.0000E+00
    -15.826  0.0000E+00  0.0000E+00
    -15.718  0.0000E+00  0.0000E+00
    -15.609  0.0000E+00  0.0000E+00
    -15.501  0.0000E+00  0.0000E+00
    -15.393  0.0000E+00  0.0000E+00
    -15.284  0.0000E+00  0.0000E+00
    -15.176  0.0000E+00  0.0000E+00
    -15.068  0.0000E+00  0.0000E+00
    -14.959  0.5586E+00  0.1263E-01
    -14.851  0.2835E+01  0.1877E+00
    -14.743  0.3563E+01  0.5103E+00
    -14.634  0.5086E+01  0.9914E+00
    -14.526  0.4856E+01  0.1528E+01
    -14.418  0.5044E+01  0.2067E+01
    -14.309  0.4994E+01  0.2612E+01
    -14.201  0.4863E+01  0.3147E+01
    -14.093  0.4853E+01  0.3671E+01
    -13.984  0.5102E+01  0.4210E+01
    -13.876  0.5352E+01  0.4776E+01
    -13.768  0.7281E+01  0.5488E+01
    -13.659  0.7538E+01  0.6294E+01
    -13.551  0.5895E+01  0.7111E+01
    -13.443  0.2377E+01  0.7518E+01
    -13.334  0.1856E+01  0.7738E+01
    -13.226  0.2098E+01  0.7947E+01
    -13.118  0.2489E+01  0.8196E+01
    -13.009  0.3027E+01  0.8489E+01
    -12.901  0.1224E+02  0.9153E+01
    -12.793  0.8451E+01  0.1013E+02
    -12.684  0.6826E+01  0.1100E+02
    -12.576  0.4031E+01  0.1149E+02
    -12.468  0.4138E+01  0.1194E+02
    -12.359  0.4257E+01  0.1239E+02
    -12.251  0.4405E+01  0.1286E+02
    -12.142  0.4547E+01  0.1335E+02
    -12.034  0.4676E+01  0.1385E+02
    -11.926  0.4982E+01  0.1436E+02
    -11.817  0.5526E+01  0.1493E+02
    -11.709  0.6439E+01  0.1556E+02
    -11.601  0.6013E+01  0.1624E+02
    -11.492  0.5615E+01  0.1687E+02
    -11.384  0.5486E+01  0.1746E+02
    -11.276  0.5651E+01  0.1807E+02
    -11.167  0.5817E+01  0.1869E+02
    -11.059  0.5982E+01  0.1933E+02
    -10.951  0.5774E+01  0.1997E+02
    -10.842  0.5577E+01  0.2059E+02
    -10.734  0.5442E+01  0.2118E+02
    -10.626  0.4988E+01  0.2176E+02
    -10.517  0.3882E+01  0.2223E+02
    -10.409  0.4581E+01  0.2268E+02
    -10.301  0.4998E+01  0.2321E+02
    -10.192  0.5182E+01  0.2376E+02
    -10.084  0.6461E+01  0.2436E+02
     -9.976  0.9266E+01  0.2518E+02
     -9.867  0.1034E+02  0.2634E+02
     -9.759  0.8019E+01  0.2733E+02
     -9.651  0.5746E+01  0.2808E+02
     -9.542  0.4649E+01  0.2862E+02
     -9.434  0.4175E+01  0.2910E+02
     -9.326  0.3701E+01  0.2953E+02
     -9.217  0.6142E+01  0.3013E+02
     -9.109  0.5169E+01  0.3075E+02
     -9.001  0.1927E+01  0.3102E+02
     -8.892  0.1722E+01  0.3122E+02
     -8.784  0.1517E+01  0.3139E+02
     -8.676  0.1312E+01  0.3154E+02
     -8.567  0.1344E+01  0.3168E+02
     -8.459  0.1835E+01  0.3185E+02
     -8.350  0.2334E+01  0.3208E+02
     -8.242  0.2833E+01  0.3236E+02
     -8.134  0.5695E+01  0.3277E+02
     -8.025  0.1078E+02  0.3366E+02
     -7.917  0.5092E+01  0.3453E+02
     -7.809  0.5200E+01  0.3507E+02
     -7.700  0.6363E+01  0.3570E+02
     -7.592  0.7526E+01  0.3645E+02
     -7.484  0.8689E+01  0.3733E+02
     -7.375  0.9851E+01  0.3833E+02
     -7.267  0.6799E+01  0.3923E+02
     -7.159  0.5569E+01  0.3985E+02
     -7.050  0.5579E+01  0.4045E+02
     -6.942  0.5540E+01  0.4106E+02
     -6.834  0.5387E+01  0.4165E+02
     -6.725  0.5204E+01  0.4222E+02
     -6.617  0.5074E+01  0.4278E+02
     -6.509  0.4956E+01  0.4332E+02
     -6.400  0.4837E+01  0.4385E+02
     -6.292  0.4719E+01  0.4437E+02
     -6.184  0.4600E+01  0.4488E+02
     -6.075  0.4482E+01  0.4537E+02
     -5.967  0.4364E+01  0.4585E+02
     -5.859  0.4726E+01  0.4633E+02
     -5.750  0.5320E+01  0.4687E+02
     -5.642  0.5910E+01  0.4748E+02
     -5.534  0.6499E+01  0.4815E+02
     -5.425  0.7089E+01  0.4889E+02
     -5.317  0.7679E+01  0.4969E+02
     -5.209  0.8269E+01  0.5055E+02
     -5.100  0.8859E+01  0.5148E+02
     -4.992  0.5387E+01  0.5231E+02
     -4.883  0.5325E+01  0.5278E+02
     -4.775  0.7191E+01  0.5349E+02
     -4.667  0.5728E+01  0.5419E+02
     -4.558  0.4264E+01  0.5473E+02
     -4.450  0.2800E+01  0.5511E+02
     -4.342  0.1336E+01  0.5534E+02
     -4.233  0.1841E+01  0.5548E+02
     -4.125  0.3336E+01  0.5576E+02
     -4.017  0.4831E+01  0.5620E+02
     -3.908  0.6920E+01  0.5681E+02
     -3.800  0.1175E+02  0.5783E+02
     -3.692  0.1148E+02  0.5908E+02
     -3.583  0.1296E+02  0.6047E+02
     -3.475  0.8609E+01  0.6169E+02
     -3.367  0.4503E+01  0.6231E+02
     -3.258  0.5807E+01  0.6286E+02
     -3.150  0.6725E+01  0.6355E+02
     -3.042  0.1006E+02  0.6440E+02
     -2.933  0.1562E+02  0.6579E+02
     -2.825  0.2222E+02  0.6794E+02
     -2.717  0.6769E+01  0.6920E+02
     -2.608  0.7009E+01  0.6995E+02
     -2.500  0.7296E+01  0.7072E+02
     -2.392  0.8121E+01  0.7156E+02
     -2.283  0.1077E+02  0.7253E+02
     -2.175  0.1609E+02  0.7404E+02
     -2.067  0.1259E+02  0.7560E+02
     -1.958  0.1055E+02  0.7682E+02
     -1.850  0.1930E+02  0.7825E+02
     -1.742  0.1373E+02  0.8137E+02
     -1.633  0.2139E+02  0.8330E+02
     -1.525  0.1373E+02  0.8503E+02
     -1.417  0.1523E+02  0.8657E+02
     -1.308  0.1685E+02  0.8839E+02
     -1.200  0.8698E+01  0.8963E+02
     -1.091  0.6360E+01  0.9040E+02
     -0.983  0.7481E+01  0.9115E+02
     -0.875  0.8302E+01  0.9200E+02
     -0.766  0.9407E+01  0.9296E+02
     -0.658  0.1100E+02  0.9406E+02
     -0.550  0.1070E+02  0.9524E+02
     -0.441  0.1107E+02  0.9642E+02
     -0.333  0.1138E+02  0.9818E+02
     -0.225  0.1231E+02  0.9947E+02
     -0.116  0.1137E+02  0.1008E+03
     -0.008  0.1004E+02  0.1020E+03
      0.100  0.1002E+02  0.1030E+03
      0.209  0.9809E+01  0.1041E+03
      0.317  0.9666E+01  0.1052E+03
      0.425  0.9616E+01  0.1062E+03
      0.534  0.9627E+01  0.1072E+03
      0.642  0.9390E+01  0.1083E+03
      0.750  0.9197E+01  0.1093E+03
      0.859  0.9135E+01  0.1103E+03
      0.967  0.9691E+01  0.1113E+03
      1.075  0.9565E+01  0.1123E+03
      1.184  0.9686E+01  0.1134E+03
      1.292  0.1079E+02  0.1144E+03
      1.400  0.1047E+02  0.1156E+03
      1.509  0.8963E+01  0.1167E+03
      1.617  0.6821E+01  0.1175E+03
      1.725  0.6390E+01  0.1182E+03
      1.834  0.5330E+01  0.1189E+03
      1.942  0.3502E+01  0.1194E+03
      2.050  0.2918E+01  0.1197E+03
      2.159  0.3095E+01  0.1200E+03
      2.267  0.4470E+01  0.1204E+03
      2.375  0.6729E+01  0.1210E+03
      2.484  0.9384E+01  0.1218E+03
      2.592  0.9399E+01  0.1229E+03
      2.701  0.7870E+01  0.1238E+03
      2.809  0.6165E+01  0.1246E+03
      2.917  0.4755E+01  0.1251E+03
      3.026  0.3862E+01  0.1256E+03
      3.134  0.3321E+01  0.1260E+03
      3.242  0.2965E+01  0.1263E+03
      3.351  0.2595E+01  0.1266E+03
      3.459  0.2255E+01  0.1269E+03
      3.567  0.1959E+01  0.1271E+03
      3.676  0.1674E+01  0.1273E+03
      3.784  0.1393E+01  0.1275E+03
      3.892  0.1166E+01  0.1276E+03
      4.001  0.9381E+00  0.1277E+03
      4.109  0.7324E+00  0.1278E+03
      4.217  0.5486E+00  0.1279E+03
      4.326  0.3780E+00  0.1280E+03
      4.434  0.2191E+00  0.1280E+03
      4.542  0.7025E-01  0.1280E+03
      4.651  0.4103E-01  0.1280E+03
      4.759  0.1595E+00  0.1280E+03
      4.867  0.2892E+00  0.1280E+03
      4.976  0.4321E+00  0.1281E+03
      5.084  0.5895E+00  0.1281E+03
      5.192  0.7676E+00  0.1282E+03
      5.301  0.9820E+00  0.1283E+03
      5.409  0.1223E+01  0.1284E+03
      5.517  0.1465E+01  0.1286E+03
      5.626  0.1707E+01  0.1287E+03
      5.734  0.2568E+01  0.1289E+03
      5.842  0.3332E+01  0.1293E+03
      5.951  0.3811E+01  0.1297E+03
      6.059  0.4482E+01  0.1301E+03
      6.168  0.7712E+01  0.1307E+03
      6.276  0.1290E+02  0.1318E+03
      6.384  0.9704E+01  0.1331E+03
      6.493  0.7625E+01  0.1340E+03
      6.601  0.6318E+01  0.1347E+03
      6.709  0.5687E+01  0.1354E+03
      6.818  0.5353E+01  0.1360E+03
      6.926  0.5026E+01  0.1365E+03
      7.034  0.4281E+01  0.1371E+03
      7.143  0.3774E+01  0.1375E+03
      7.251  0.3661E+01  0.1379E+03
      7.359  0.3862E+01  0.1383E+03
      7.468  0.4298E+01  0.1387E+03
      7.576  0.4695E+01  0.1392E+03
      7.684  0.4900E+01  0.1397E+03
      7.793  0.4746E+01  0.1403E+03
      7.901  0.4580E+01  0.1408E+03
      8.009  0.4407E+01  0.1413E+03
      8.118  0.4262E+01  0.1417E+03
      8.226  0.4160E+01  0.1422E+03
      8.334  0.4087E+01  0.1426E+03
      8.443  0.4028E+01  0.1431E+03
      8.551  0.3977E+01  0.1435E+03
      8.659  0.3937E+01  0.1439E+03
      8.768  0.3731E+01  0.1444E+03
      8.876  0.3488E+01  0.1447E+03
      8.984  0.3576E+01  0.1451E+03
      9.093  0.3780E+01  0.1455E+03
      9.201  0.3740E+01  0.1459E+03
      9.309  0.3710E+01  0.1463E+03
      9.418  0.3710E+01  0.1467E+03
      9.526  0.3766E+01  0.1471E+03
      9.634  0.3800E+01  0.1475E+03
      9.743  0.3792E+01  0.1480E+03
      9.851  0.3784E+01  0.1484E+03
      9.960  0.3775E+01  0.1488E+03
     10.068  0.3787E+01  0.1492E+03
     10.176  0.3796E+01  0.1496E+03
     10.285  0.5117E+01  0.1501E+03
     10.393  0.6155E+01  0.1507E+03
     10.501  0.5952E+01  0.1513E+03
     10.610  0.5726E+01  0.1520E+03
     10.718  0.5452E+01  0.1526E+03
     10.826  0.4714E+01  0.1531E+03
     10.935  0.6214E+01  0.1537E+03
     11.043  0.3440E+01  0.1542E+03
     11.151  0.2489E+01  0.1546E+03
     11.260  0.2665E+01  0.1548E+03
     11.368  0.3044E+01  0.1551E+03
     11.476  0.3390E+01  0.1555E+03
     11.585  0.3407E+01  0.1559E+03
     11.693  0.2674E+01  0.1562E+03
     11.801  0.3364E+01  0.1565E+03
     11.910  0.6580E+01  0.1570E+03
     12.018  0.7081E+01  0.1578E+03
     12.126  0.8263E+01  0.1586E+03
     12.235  0.1093E+02  0.1596E+03
     12.343  0.1300E+02  0.1609E+03
     12.451  0.1319E+02  0.1624E+03
     12.560  0.1337E+02  0.1638E+03
     12.668  0.1266E+02  0.1652E+03
     12.776  0.1167E+02  0.1665E+03
     12.885  0.7431E+01  0.1676E+03
     12.993  0.2267E+00  0.1680E+03
     13.101  0.1378E+00  0.1680E+03
     13.210  0.7095E-01  0.1680E+03
     13.318  0.2608E-01  0.1680E+03
     13.426  0.3208E-02  0.1680E+03
     13.535  0.0000E+00  0.1680E+03
     13.643  0.0000E+00  0.1680E+03
     13.752  0.0000E+00  0.1680E+03
     13.860  0.0000E+00  0.1680E+03
     13.968  0.0000E+00  0.1680E+03
     14.077  0.0000E+00  0.1680E+03
     14.185  0.0000E+00  0.1680E+03
     14.293  0.0000E+00  0.1680E+03
     14.402  0.0000E+00  0.1680E+03
     14.510  0.0000E+00  0.1680E+03
     14.618  0.0000E+00  0.1680E+03
     14.727  0.0000E+00  0.1680E+03
     14.835  0.0000E+00  0.1680E+03
     14.943  0.0000E+00  0.1680E+03
     15.052  0.0000E+00  0.1680E+03
     15.160  0.0000E+00  0.1680E+03
     15.268  0.0000E+00  0.1680E+03
     15.377  0.0000E+00  0.1680E+03
     15.485  0.0000E+00  0.1680E+03
