   32   32    1    1
  0.9341735E+01  0.4932875E-09  0.4932875E-09  0.1419195E-08  0.5000000E-15
  1.000000000000000E-004
  CAR 
 graphite                                
    128    163     84
 
  0.0000000E+00  0.0000000E+00  0.0000000E+00  0.3086420E-02
    1      -15.386010
    2      -15.292605
    3      -15.291608
    4      -15.193924
    5      -10.091640
    6      -10.082875
    7      -10.080212
    8      -10.055351
    9      -10.055076
   10      -10.047525
   11      -10.043444
   12      -10.043413
   13      -10.042163
   14      -10.022443
   15      -10.012135
   16      -10.009292
   17       -9.030591
   18       -9.026337
   19       -9.024438
   20       -9.009377
   21       -9.005333
   22       -9.003877
   23       -9.002650
   24       -9.002627
   25       -8.999896
   26       -8.976971
   27       -8.972485
   28       -8.970384
   29       -4.085718
   30       -3.416602
   31       -3.415094
   32       -2.621487
   33       -2.203700
   34       -2.200733
   35       -2.189380
   36       -2.185299
   37       -2.184999
   38       -2.184994
   39       -2.181130
   40       -2.170972
   41       -2.169365
   42       -2.166273
   43       -2.164262
   44       -2.149370
   45        1.177755
   46        1.188000
   47        1.191536
   48        1.195247
   49        1.203488
   50        1.207734
   51        1.210119
   52        1.219066
   53        1.563695
   54        1.564348
   55        1.566339
   56        1.842258
   57        1.843680
   58        1.845956
   59        1.850093
   60        1.850182
   61        1.851252
   62        2.058163
   63        2.069215
   64        2.071762
   65        5.708472
   66        5.710502
   67        5.712431
   68        5.856858
   69        5.862326
   70        5.866695
   71        5.867873
   72        5.868081
   73        5.872258
   74        6.240667
   75        6.253040
   76        6.255411
   77        8.091853
   78       10.316838
   79       10.319835
   80       11.458666
   81       11.461730
   82       11.496459
   83       11.589710
   84       11.590864
 
  0.1111111E+00 -0.2081668E-16  0.0000000E+00  0.6172840E-02
    1      -15.312497
    2      -15.219523
    3      -15.218529
    4      -15.121386
    5      -10.865071
    6      -10.800478
    7      -10.799268
    8      -10.733017
    9      -10.331098
   10      -10.322740
   11      -10.276040
   12      -10.275171
   13      -10.266897
   14      -10.266419
   15      -10.219428
   16      -10.210385
   17       -8.712209
   18       -8.705584
   19       -8.668626
   20       -8.665217
   21       -8.660455
   22       -8.659694
   23       -8.618467
   24       -8.611607
   25       -8.188837
   26       -8.138648
   27       -8.137739
   28       -8.085589
   29       -3.996799
   30       -3.329429
   31       -3.327917
   32       -2.536827
   33       -2.426978
   34       -2.410296
   35       -2.408571
   36       -2.406947
   37       -2.391730
   38       -2.390214
   39       -2.388050
   40       -2.371310
   41       -2.130328
   42       -2.115923
   43       -2.112633
   44       -2.098197
   45        0.898973
   46        0.905506
   47        0.907948
   48        0.915839
   49        1.003806
   50        1.027045
   51        1.035503
   52        1.039437
   53        1.044357
   54        1.420755
   55        1.423678
   56        1.458288
   57        1.461441
   58        1.790804
   59        1.792081
   60        1.797247
   61        1.798759
   62        1.844518
   63        2.083791
   64        2.094649
   65        5.805560
   66        5.808499
   67        5.987754
   68        5.993122
   69        5.997917
   70        5.999287
   71        6.144152
   72        6.374334
   73        6.385425
   74        6.408121
   75        6.410992
   76        6.836302
   77        8.182702
   78       10.400060
   79       10.403029
   80       11.499104
   81       11.622930
   82       11.625450
   83       11.752119
   84       11.823809
 
  0.2222222E+00 -0.2775558E-16  0.0000000E+00  0.6172840E-02
    1      -15.092372
    2      -15.000740
    3      -14.999755
    4      -14.904005
    5      -11.872562
    6      -11.799839
    7      -11.798893
    8      -11.723825
    9      -10.674275
   10      -10.668541
   11      -10.611315
   12      -10.609973
   13      -10.604760
   14      -10.604288
   15      -10.544997
   16      -10.538896
   17       -8.028557
   18       -8.019235
   19       -7.981035
   20       -7.977981
   21       -7.970597
   22       -7.969707
   23       -7.928692
   24       -7.919419
   25       -6.864868
   26       -6.818228
   27       -6.817450
   28       -6.769935
   29       -3.730482
   30       -3.069108
   31       -3.067577
   32       -3.031209
   33       -3.013261
   34       -3.009011
   35       -3.008326
   36       -2.991078
   37       -2.989968
   38       -2.985631
   39       -2.967331
   40       -2.284436
   41       -1.915637
   42       -1.901415
   43       -1.897996
   44       -1.884018
   45        0.007556
   46        0.076009
   47        0.087310
   48        0.090348
   49        0.102490
   50        0.531958
   51        0.534097
   52        0.609356
   53        0.618910
   54        0.623398
   55        0.630715
   56        1.119880
   57        1.254946
   58        1.258385
   59        1.670073
   60        1.670912
   61        1.675254
   62        1.676776
   63        2.090453
   64        2.098047
   65        6.088679
   66        6.093584
   67        6.321227
   68        6.326384
   69        6.330871
   70        6.332345
   71        6.688559
   72        6.696811
   73        7.316101
   74        7.629747
   75        7.631797
   76        8.048425
   77        8.455833
   78       10.649236
   79       10.652115
   80       11.609537
   81       11.730176
   82       11.732454
   83       11.828929
   84       12.598123
 
  0.3333333E+00  0.2775558E-16  0.0000000E+00  0.6172840E-02
    1      -14.726795
    2      -14.637311
    3      -14.636338
    4      -14.542922
    5      -12.783090
    6      -12.704905
    7      -12.703998
    8      -12.622873
    9      -10.929215
   10      -10.925608
   11      -10.863195
   12      -10.861503
   13      -10.858534
   14      -10.858209
   15      -10.793439
   16      -10.789746
   17       -7.222501
   18       -7.211804
   19       -7.179344
   20       -7.176175
   21       -7.167580
   22       -7.166391
   23       -7.131774
   24       -7.121324
   25       -5.434332
   26       -5.394455
   27       -5.393494
   28       -5.352811
   29       -3.844109
   30       -3.828268
   31       -3.817660
   32       -3.817150
   33       -3.802124
   34       -3.800646
   35       -3.789811
   36       -3.773710
   37       -3.289666
   38       -2.638669
   39       -2.637127
   40       -1.868158
   41       -1.567129
   42       -1.553499
   43       -1.549890
   44       -1.536412
   45       -1.106061
   46       -1.087925
   47       -1.085700
   48       -1.067447
   49       -1.000423
   50       -0.421732
   51       -0.419913
   52        0.048668
   53        0.059272
   54        0.063663
   55        0.073284
   56        0.247465
   57        1.075867
   58        1.078634
   59        1.546416
   60        1.547166
   61        1.550108
   62        1.551870
   63        2.057658
   64        2.062402
   65        6.469563
   66        6.475133
   67        6.711616
   68        6.716604
   69        6.719703
   70        6.721314
   71        7.016507
   72        7.021528
   73        8.824643
   74        8.911098
   75        9.106200
   76        9.108252
   77        9.471849
   78       11.056742
   79       11.059450
   80       11.306835
   81       11.828557
   82       11.889461
   83       11.891998
   84       12.096267
 
  0.4444444E+00 -0.5551115E-16  0.0000000E+00  0.6172840E-02
    1      -14.217614
    2      -14.131129
    3      -14.130163
    4      -14.040069
    5      -13.567948
    6      -13.485194
    7      -13.484292
    8      -13.398266
    9      -11.060571
   10      -11.058597
   11      -10.993767
   12      -10.991540
   13      -10.990505
   14      -10.990222
   15      -10.922461
   16      -10.920494
   17       -6.478870
   18       -6.470962
   19       -6.448620
   20       -6.444809
   21       -6.440112
   22       -6.438028
   23       -6.414372
   24       -6.407308
   25       -4.594400
   26       -4.585618
   27       -4.572142
   28       -4.571559
   29       -4.563567
   30       -4.561628
   31       -4.547284
   32       -4.537752
   33       -3.956989
   34       -3.924600
   35       -3.923257
   36       -3.890119
   37       -2.679782
   38       -2.488538
   39       -2.463593
   40       -2.461774
   41       -2.436018
   42       -2.044146
   43       -2.042493
   44       -1.910469
   45       -1.298553
   46       -1.296234
   47       -1.294425
   48       -1.101355
   49       -1.088501
   50       -1.084616
   51       -1.072214
   52       -0.580560
   53       -0.546874
   54       -0.535082
   55       -0.531022
   56       -0.519550
   57        0.975846
   58        0.977805
   59        1.471873
   60        1.473212
   61        1.474305
   62        1.476642
   63        2.026535
   64        2.029171
   65        6.761653
   66        6.765179
   67        6.978370
   68        6.983472
   69        6.984297
   70        6.985594
   71        7.209651
   72        7.212488
   73        9.546858
   74       10.356513
   75       10.436176
   76       10.637586
   77       10.640954
   78       10.948840
   79       11.545742
   80       11.551183
   81       12.011138
   82       12.022606
   83       12.025945
   84       12.050564
 
  0.6776264E-20  0.1111111E+00  0.0000000E+00  0.6172840E-02
    1      -15.312499
    2      -15.219526
    3      -15.218529
    4      -15.121388
    5      -10.864996
    6      -10.800316
    7      -10.799266
    8      -10.732926
    9      -10.331102
   10      -10.323017
   11      -10.276032
   12      -10.275168
   13      -10.267472
   14      -10.266431
   15      -10.219395
   16      -10.210744
   17       -8.712337
   18       -8.704438
   19       -8.668902
   20       -8.665217
   21       -8.659697
   22       -8.657933
   23       -8.618542
   24       -8.610294
   25       -8.189723
   26       -8.139559
   27       -8.138639
   28       -8.086514
   29       -3.996795
   30       -3.329421
   31       -3.327915
   32       -2.536821
   33       -2.428336
   34       -2.411940
   35       -2.408572
   36       -2.407422
   37       -2.392179
   38       -2.390214
   39       -2.388819
   40       -2.371485
   41       -2.128779
   42       -2.113530
   43       -2.112632
   44       -2.097193
   45        0.896819
   46        0.903227
   47        0.905504
   48        0.911620
   49        1.004531
   50        1.032831
   51        1.039421
   52        1.039447
   53        1.045928
   54        1.422393
   55        1.423858
   56        1.458212
   57        1.460506
   58        1.790665
   59        1.792179
   60        1.795437
   61        1.798215
   62        1.845653
   63        2.083843
   64        2.093259
   65        5.806025
   66        5.810076
   67        5.988086
   68        5.993107
   69        5.998779
   70        6.002086
   71        6.142321
   72        6.374380
   73        6.387265
   74        6.407119
   75        6.408717
   76        6.834689
   77        8.182706
   78       10.400073
   79       10.403042
   80       11.499540
   81       11.623666
   82       11.625016
   83       11.751372
   84       11.799750
 
  0.1111111E+00  0.1111111E+00  0.0000000E+00  0.6172840E-02
    1      -15.165589
    2      -15.073498
    3      -15.072510
    4      -14.976316
    5      -11.328486
    6      -11.325580
    7      -11.260953
    8      -11.257089
    9      -11.257068
   10      -11.255192
   11      -11.187362
   12      -11.184473
   13       -9.902719
   14       -9.867265
   15       -9.866863
   16       -9.835123
   17       -8.846402
   18       -8.826299
   19       -8.822492
   20       -8.795470
   21       -7.507175
   22       -7.504153
   23       -7.459607
   24       -7.456370
   25       -7.456351
   26       -7.453414
   27       -7.407217
   28       -7.403987
   29       -3.819066
   30       -3.155599
   31       -3.154078
   32       -3.088079
   33       -3.066174
   34       -3.064984
   35       -3.042399
   36       -2.368323
   37       -2.284154
   38       -2.281032
   39       -2.268121
   40       -2.263692
   41       -2.263688
   42       -2.263249
   43       -2.247870
   44       -2.245726
   45        0.370192
   46        0.376769
   47        0.379332
   48        0.387535
   49        0.582378
   50        0.584859
   51        0.711326
   52        0.719962
   53        0.723594
   54        0.728054
   55        1.061028
   56        1.064667
   57        1.064794
   58        1.066098
   59        1.582284
   60        1.584656
   61        1.831245
   62        2.108500
   63        2.110562
   64        2.321283
   65        5.679086
   66        5.783522
   67        5.788518
   68        6.093754
   69        6.651373
   70        6.653919
   71        6.948057
   72        6.950077
   73        6.950413
   74        6.953448
   75        7.364291
   76        7.366641
   77        8.364966
   78       10.566914
   79       10.569827
   80       11.869620
   81       11.873441
   82       11.993789
   83       11.997945
   84       12.000019
 
  0.2222222E+00  0.1111111E+00  0.0000000E+00  0.6172840E-02
    1      -14.872636
    2      -14.782290
    3      -14.781316
    4      -14.686996
    5      -12.291055
    6      -12.215866
    7      -12.214918
    8      -12.137067
    9      -11.668244
   10      -11.596969
   11      -11.595951
   12      -11.522141
   13       -9.946419
   14       -9.893038
   15       -9.892744
   16       -9.839266
   17       -8.366671
   18       -8.326445
   19       -8.323080
   20       -8.279921
   21       -6.724233
   22       -6.680074
   23       -6.678789
   24       -6.633638
   25       -6.126033
   26       -6.083193
   27       -6.082390
   28       -6.038833
   29       -3.993626
   30       -3.966188
   31       -3.965036
   32       -3.936811
   33       -3.465319
   34       -2.810099
   35       -2.808517
   36       -2.806315
   37       -2.785121
   38       -2.784542
   39       -2.762828
   40       -2.033720
   41       -1.997277
   42       -1.981745
   43       -1.978384
   44       -1.962693
   45       -0.581040
   46       -0.569293
   47       -0.566092
   48       -0.553724
   49       -0.441958
   50        0.111512
   51        0.113526
   52        0.169556
   53        0.179514
   54        0.184182
   55        0.191330
   56        0.257464
   57        0.744398
   58        0.776193
   59        0.777434
   60        1.357661
   61        1.978595
   62        2.311155
   63        2.313086
   64        2.603769
   65        5.674598
   66        5.790787
   67        5.795601
   68        6.051761
   69        7.234157
   70        7.517542
   71        7.519782
   72        7.871795
   73        8.023521
   74        8.319846
   75        8.321515
   76        8.696481
   77        8.730806
   78       10.899136
   79       10.901920
   80       11.865450
   81       12.079225
   82       12.130134
   83       12.132404
   84       12.379034
 
  0.3333333E+00  0.1111111E+00  0.0000000E+00  0.6172840E-02
    1      -14.435141
    2      -14.347350
    3      -14.346392
    4      -14.254912
    5      -13.139264
    6      -13.059019
    7      -13.058092
    8      -12.974814
    9      -11.876636
   10      -11.803957
   11      -11.802905
   12      -11.727735
   13      -10.087333
   14      -10.027540
   15      -10.026819
   16       -9.965667
   17       -7.600426
   18       -7.560487
   19       -7.557251
   20       -7.516324
   21       -5.929081
   22       -5.893359
   23       -5.891403
   24       -5.855087
   25       -4.931245
   26       -4.902198
   27       -4.900906
   28       -4.870964
   29       -4.679822
   30       -4.644339
   31       -4.643339
   32       -4.607137
   33       -3.503938
   34       -3.480337
   35       -3.480123
   36       -3.455725
   37       -2.939611
   38       -2.297333
   39       -2.295778
   40       -1.823382
   41       -1.803607
   42       -1.800966
   43       -1.781227
   44       -1.581629
   45       -1.566845
   46       -1.563332
   47       -1.548707
   48       -1.538686
   49       -1.408176
   50       -0.812246
   51       -0.810554
   52       -0.451227
   53       -0.439707
   54       -0.435032
   55       -0.424498
   56       -0.118674
   57        0.052149
   58        0.592108
   59        0.593331
   60        1.206787
   61        1.992760
   62        2.401796
   63        2.403367
   64        2.821292
   65        5.721441
   66        5.908996
   67        5.913226
   68        6.152204
   69        7.736229
   70        7.970937
   71        7.973669
   72        8.230204
   73        9.276733
   74        9.581729
   75        9.823910
   76        9.825948
   77       10.138301
   78       10.896963
   79       11.379572
   80       11.382339
   81       12.253293
   82       12.274093
   83       12.276657
   84       12.492187
 
  0.4444444E+00  0.1111111E+00  0.0000000E+00  0.6172840E-02
    1      -13.857583
    2      -13.854715
    3      -13.774434
    4      -13.771282
    5      -13.770318
    6      -13.768969
    7      -13.684342
    8      -13.681468
    9      -11.947225
   10      -11.873992
   11      -11.872922
   12      -11.797458
   13      -10.141570
   14      -10.080738
   15      -10.079848
   16      -10.017236
   17       -7.097896
   18       -7.073420
   19       -7.070315
   20       -7.046674
   21       -5.465070
   22       -5.461930
   23       -5.446188
   24       -5.446048
   25       -5.444002
   26       -5.441566
   27       -5.426042
   28       -5.422405
   29       -3.923834
   30       -3.909763
   31       -3.907841
   32       -3.891732
   33       -3.224826
   34       -3.221874
   35       -3.196691
   36       -3.196234
   37       -3.194270
   38       -3.190796
   39       -3.167172
   40       -3.163246
   41       -2.250729
   42       -2.248389
   43       -1.628269
   44       -1.625132
   45       -1.624333
   46       -1.623001
   47       -1.059627
   48       -1.051631
   49       -1.043975
   50       -1.038233
   51       -1.036709
   52       -1.036039
   53       -1.025257
   54       -1.021855
   55       -0.895130
   56       -0.892545
   57       -0.018157
   58        0.528530
   59        0.529723
   60        1.153572
   61        1.987233
   62        2.425122
   63        2.426368
   64        2.896954
   65        5.757583
   66        5.976633
   67        5.980018
   68        6.209022
   69        7.948288
   70        8.147198
   71        8.150467
   72        8.349636
   73       10.001252
   74       10.002778
   75       11.157621
   76       11.160853
   77       11.291160
   78       11.295786
   79       11.297183
   80       11.302596
   81       11.574787
   82       11.577645
   83       12.060956
   84       12.064941
 
 -0.4444444E+00  0.1111111E+00  0.0000000E+00  0.6172840E-02
    1      -14.435909
    2      -14.348141
    3      -14.347160
    4      -14.255686
    5      -13.138059
    6      -13.057799
    7      -13.056907
    8      -12.973612
    9      -11.878438
   10      -11.805692
   11      -11.804620
   12      -11.729538
   13      -10.084604
   14      -10.024827
   15      -10.023871
   16       -9.962729
   17       -7.592028
   18       -7.551396
   19       -7.549759
   20       -7.508155
   21       -5.940422
   22       -5.905136
   23       -5.901808
   24       -5.866091
   25       -4.943438
   26       -4.914106
   27       -4.913819
   28       -4.883516
   29       -4.682041
   30       -4.646728
   31       -4.645397
   32       -4.609329
   33       -3.489533
   34       -3.466508
   35       -3.464657
   36       -3.440969
   37       -2.940357
   38       -2.298053
   39       -2.296545
   40       -1.823252
   41       -1.803001
   42       -1.801676
   43       -1.781617
   44       -1.579646
   45       -1.564923
   46       -1.561078
   47       -1.546572
   48       -1.539386
   49       -1.407093
   50       -0.811250
   51       -0.809472
   52       -0.450705
   53       -0.439550
   54       -0.435979
   55       -0.425186
   56       -0.117685
   57        0.050654
   58        0.590457
   59        0.591654
   60        1.204809
   61        1.993907
   62        2.404457
   63        2.405631
   64        2.826075
   65        5.723379
   66        5.912724
   67        5.915263
   68        6.154263
   69        7.730858
   70        7.965817
   71        7.969523
   72        8.227239
   73        9.275719
   74        9.581859
   75        9.823435
   76        9.825614
   77       10.137508
   78       10.898480
   79       11.378848
   80       11.381607
   81       12.249906
   82       12.271210
   83       12.274405
   84       12.488035
 
 -0.3333333E+00  0.1111111E+00  0.0000000E+00  0.6172840E-02
    1      -14.873183
    2      -14.782842
    3      -14.781852
    4      -14.687538
    5      -12.289634
    6      -12.214407
    7      -12.213506
    8      -12.135646
    9      -11.671963
   10      -11.600593
   11      -11.599543
   12      -11.525767
   13       -9.940355
   14       -9.887086
   15       -9.886110
   16       -9.832586
   17       -8.359667
   18       -8.318165
   19       -8.317051
   20       -8.272574
   21       -6.735824
   22       -6.692328
   23       -6.689473
   24       -6.645038
   25       -6.128352
   26       -6.085578
   27       -6.084644
   28       -6.041158
   29       -4.009453
   30       -3.981916
   31       -3.981114
   32       -3.952791
   33       -3.465861
   34       -2.810573
   35       -2.809053
   36       -2.788136
   37       -2.767266
   38       -2.765731
   39       -2.744350
   40       -2.034235
   41       -1.995601
   42       -1.980086
   43       -1.976520
   44       -1.960949
   45       -0.584731
   46       -0.572253
   47       -0.571426
   48       -0.559107
   49       -0.440799
   50        0.112582
   51        0.114704
   52        0.176081
   53        0.183813
   54        0.186866
   55        0.194423
   56        0.254640
   57        0.745475
   58        0.772887
   59        0.774149
   60        1.353677
   61        1.980063
   62        2.316076
   63        2.317408
   64        2.613285
   65        5.675493
   66        5.797094
   67        5.799038
   68        6.057874
   69        7.226969
   70        7.509185
   71        7.513180
   72        7.865348
   73        8.023122
   74        8.318948
   75        8.320861
   76        8.695402
   77        8.730058
   78       10.898483
   79       10.901264
   80       11.865636
   81       12.077714
   82       12.127628
   83       12.130290
   84       12.377202
 
 -0.2222222E+00  0.1111111E+00  0.0000000E+00  0.6172840E-02
    1      -15.165919
    2      -15.073836
    3      -15.072838
    4      -14.976651
    5      -11.332398
    6      -11.325367
    7      -11.263547
    8      -11.262563
    9      -11.256495
   10      -11.255489
   11      -11.191510
   12      -11.184412
   13       -9.892823
   14       -9.856927
   15       -9.855957
   16       -9.823744
   17       -8.842959
   18       -8.821232
   19       -8.820263
   20       -8.791440
   21       -7.515923
   22       -7.507294
   23       -7.468056
   24       -7.465365
   25       -7.458533
   26       -7.457722
   27       -7.415986
   28       -7.407451
   29       -3.819396
   30       -3.155914
   31       -3.154410
   32       -3.106056
   33       -3.083880
   34       -3.082912
   35       -3.060302
   36       -2.368636
   37       -2.282038
   38       -2.265871
   39       -2.262506
   40       -2.262130
   41       -2.246337
   42       -2.245204
   43       -2.243760
   44       -2.226646
   45        0.358404
   46        0.365265
   47        0.366778
   48        0.373225
   49        0.580059
   50        0.584458
   51        0.727593
   52        0.732830
   53        0.733480
   54        0.739080
   55        1.059044
   56        1.060476
   57        1.063624
   58        1.066118
   59        1.577846
   60        1.583808
   61        1.832682
   62        2.114812
   63        2.116300
   64        2.333780
   65        5.678814
   66        5.791331
   67        5.793013
   68        6.103550
   69        6.645226
   70        6.652986
   71        6.939147
   72        6.943377
   73        6.949185
   74        6.951660
   75        7.355954
   76        7.365035
   77        8.364510
   78       10.566487
   79       10.569398
   80       11.870345
   81       11.905657
   82       11.994454
   83       12.006895
   84       12.031750
 
 -0.1111111E+00  0.1111111E+00  0.0000000E+00  0.6172840E-02
    1      -15.312607
    2      -15.219637
    3      -15.218636
    4      -15.121496
    5      -10.872399
    6      -10.807706
    7      -10.806875
    8      -10.740535
    9      -10.322635
   10      -10.320499
   11      -10.268491
   12      -10.265044
   13      -10.265020
   14      -10.264147
   15      -10.210443
   16      -10.208237
   17       -8.707534
   18       -8.705770
   19       -8.662945
   20       -8.661327
   21       -8.661311
   22       -8.659334
   23       -8.613659
   24       -8.611812
   25       -8.197418
   26       -8.148153
   27       -8.145419
   28       -8.094186
   29       -3.996906
   30       -3.329527
   31       -3.328026
   32       -2.536926
   33       -2.428769
   34       -2.425958
   35       -2.412453
   36       -2.408178
   37       -2.408172
   38       -2.408068
   39       -2.392067
   40       -2.390166
   41       -2.109152
   42       -2.094033
   43       -2.092616
   44       -2.077251
   45        0.879370
   46        0.889003
   47        0.893342
   48        0.898884
   49        1.000221
   50        1.045878
   51        1.051631
   52        1.054254
   53        1.062721
   54        1.416538
   55        1.418149
   56        1.460393
   57        1.462395
   58        1.794031
   59        1.798458
   60        1.798568
   61        1.799162
   62        1.837316
   63        2.092838
   64        2.095297
   65        5.807514
   66        5.810303
   67        5.996608
   68        5.998203
   69        5.998417
   70        6.002439
   71        6.137732
   72        6.384379
   73        6.386867
   74        6.397557
   75        6.401955
   76        6.824815
   77        8.182551
   78       10.399925
   79       10.402893
   80       11.534041
   81       11.658853
   82       11.659327
   83       11.788727
   84       11.795937
 
 -0.1355253E-19  0.2222222E+00  0.0000000E+00  0.6172840E-02
    1      -15.092378
    2      -15.000752
    3      -14.999755
    4      -14.904011
    5      -11.872598
    6      -11.799907
    7      -11.798893
    8      -11.723858
    9      -10.674431
   10      -10.668509
   11      -10.611746
   12      -10.609974
   13      -10.604484
   14      -10.604264
   15      -10.545066
   16      -10.538846
   17       -8.028728
   18       -8.018236
   19       -7.981388
   20       -7.977981
   21       -7.969712
   22       -7.968232
   23       -7.928718
   24       -7.918215
   25       -6.865698
   26       -6.819172
   27       -6.818219
   28       -6.770821
   29       -3.730463
   30       -3.069075
   31       -3.067568
   32       -3.032534
   33       -3.013437
   34       -3.011112
   35       -3.008328
   36       -2.991078
   37       -2.990069
   38       -2.986777
   39       -2.967480
   40       -2.284410
   41       -1.914003
   42       -1.898944
   43       -1.897995
   44       -1.882996
   45        0.007954
   46        0.074455
   47        0.086258
   48        0.087308
   49        0.099305
   50        0.532870
   51        0.534257
   52        0.613724
   53        0.622562
   54        0.623399
   55        0.632046
   56        1.120548
   57        1.254576
   58        1.257811
   59        1.669446
   60        1.670700
   61        1.674558
   62        1.676125
   63        2.090337
   64        2.096886
   65        6.088901
   66        6.095363
   67        6.321664
   68        6.326373
   69        6.331907
   70        6.334868
   71        6.688804
   72        6.698607
   73        7.314690
   74        7.628639
   75        7.630376
   76        8.047208
   77        8.455844
   78       10.649286
   79       10.652163
   80       11.610103
   81       11.731274
   82       11.732473
   83       11.829461
   84       12.591997
 
  0.1111111E+00  0.2222222E+00  0.0000000E+00  0.6172840E-02
    1      -14.872641
    2      -14.782299
    3      -14.781317
    4      -14.687000
    5      -12.291106
    6      -12.215966
    7      -12.214919
    8      -12.137116
    9      -11.668207
   10      -11.596900
   11      -11.595951
   12      -11.522109
   13       -9.946410
   14       -9.893023
   15       -9.892743
   16       -9.839259
   17       -8.366611
   18       -8.326334
   19       -8.323079
   20       -8.279867
   21       -6.723296
   22       -6.678797
   23       -6.678148
   24       -6.632656
   25       -6.126949
   26       -6.084293
   27       -6.083186
   28       -6.039816
   29       -3.993695
   30       -3.966188
   31       -3.965189
   32       -3.936898
   33       -3.465304
   34       -2.810111
   35       -2.808539
   36       -2.807716
   37       -2.787653
   38       -2.784544
   39       -2.763961
   40       -2.033699
   41       -1.995623
   42       -1.979121
   43       -1.978383
   44       -1.961574
   45       -0.581652
   46       -0.569294
   47       -0.567911
   48       -0.555605
   49       -0.441600