   4   4   0   0
  0.9079817E+01  0.2466437E-09  0.2466437E-09  0.6897021E-09  0.5000000E-15
  1.000000000000000E-004
  CAR 
 graphite                                
     18.30999672    -17.16744940  301      4.43830757      1.00000000
    -17.167  0.0000E+00  0.0000E+00
    -17.049  0.0000E+00  0.0000E+00
    -16.931  0.0000E+00  0.0000E+00
    -16.813  0.0000E+00  0.0000E+00
    -16.694  0.0000E+00  0.0000E+00
    -16.576  0.0000E+00  0.0000E+00
    -16.458  0.0000E+00  0.0000E+00
    -16.340  0.0000E+00  0.0000E+00
    -16.221  0.0000E+00  0.0000E+00
    -16.103  0.0000E+00  0.0000E+00
    -15.985  0.0000E+00  0.0000E+00
    -15.867  0.0000E+00  0.0000E+00
    -15.748  0.0000E+00  0.0000E+00
    -15.630  0.0000E+00  0.0000E+00
    -15.512  0.0000E+00  0.0000E+00
    -15.394  0.0000E+00  0.0000E+00
    -15.275  0.0000E+00  0.0000E+00
    -15.157  0.2303E-04  0.8081E-07
    -15.039  0.1310E-02  0.6536E-04
    -14.921  0.2316E-02  0.2871E-03
    -14.802  0.3231E-02  0.6276E-03
    -14.684  0.3063E-02  0.9851E-03
    -14.566  0.3186E-02  0.1358E-02
    -14.448  0.3105E-02  0.1731E-02
    -14.329  0.2983E-02  0.2089E-02
    -14.211  0.3049E-02  0.2444E-02
    -14.093  0.3159E-02  0.2811E-02
    -13.974  0.3191E-02  0.3189E-02
    -13.856  0.3152E-02  0.3565E-02
    -13.738  0.3062E-02  0.3931E-02
    -13.620  0.3055E-02  0.4292E-02
    -13.501  0.3080E-02  0.4655E-02
    -13.383  0.3134E-02  0.5022E-02
    -13.265  0.3192E-02  0.5396E-02
    -13.147  0.3229E-02  0.5777E-02
    -13.028  0.3189E-02  0.6157E-02
    -12.910  0.3128E-02  0.6530E-02
    -12.792  0.3120E-02  0.6899E-02
    -12.674  0.3136E-02  0.7269E-02
    -12.555  0.3153E-02  0.7641E-02
    -12.437  0.3177E-02  0.8015E-02
    -12.319  0.3211E-02  0.8392E-02
    -12.201  0.3249E-02  0.8774E-02
    -12.082  0.3281E-02  0.9161E-02
    -11.964  0.3264E-02  0.9548E-02
    -11.846  0.3232E-02  0.9932E-02
    -11.728  0.3225E-02  0.1031E-01
    -11.609  0.3236E-02  0.1070E-01
    -11.491  0.3263E-02  0.1108E-01
    -11.373  0.3292E-02  0.1147E-01
    -11.255  0.3321E-02  0.1186E-01
    -11.136  0.3351E-02  0.1225E-01
    -11.018  0.3397E-02  0.1265E-01
    -10.900  0.3463E-02  0.1306E-01
    -10.782  0.3526E-02  0.1347E-01
    -10.663  0.3578E-02  0.1389E-01
    -10.545  0.3677E-02  0.1432E-01
    -10.427  0.3832E-02  0.1476E-01
    -10.308  0.3990E-02  0.1523E-01
    -10.190  0.5442E-02  0.1578E-01
    -10.072  0.5931E-02  0.1649E-01
     -9.954  0.4605E-02  0.1711E-01
     -9.835  0.3301E-02  0.1758E-01
     -9.717  0.2709E-02  0.1792E-01
     -9.599  0.2429E-02  0.1822E-01
     -9.481  0.2149E-02  0.1850E-01
     -9.362  0.3757E-02  0.1891E-01
     -9.244  0.1288E-02  0.1929E-01
     -9.126  0.1150E-02  0.1944E-01
     -9.008  0.1011E-02  0.1956E-01
     -8.889  0.8721E-03  0.1968E-01
     -8.771  0.7507E-03  0.1977E-01
     -8.653  0.9763E-03  0.1987E-01
     -8.535  0.1263E-02  0.2000E-01
     -8.416  0.1549E-02  0.2017E-01
     -8.298  0.3076E-02  0.2041E-01
     -8.180  0.5639E-02  0.2093E-01
     -8.062  0.4286E-02  0.2152E-01
     -7.943  0.3847E-02  0.2196E-01
     -7.825  0.4574E-02  0.2245E-01
     -7.707  0.5301E-02  0.2304E-01
     -7.589  0.6028E-02  0.2371E-01
     -7.470  0.4962E-02  0.2441E-01
     -7.352  0.3555E-02  0.2487E-01
     -7.234  0.3450E-02  0.2528E-01
     -7.116  0.3363E-02  0.2569E-01
     -6.997  0.3278E-02  0.2608E-01
     -6.879  0.3191E-02  0.2646E-01
     -6.761  0.3097E-02  0.2683E-01
     -6.642  0.3003E-02  0.2719E-01
     -6.524  0.2908E-02  0.2754E-01
     -6.406  0.2814E-02  0.2788E-01
     -6.288  0.2719E-02  0.2821E-01
     -6.169  0.2624E-02  0.2852E-01
     -6.051  0.2586E-02  0.2883E-01
     -5.933  0.2810E-02  0.2915E-01
     -5.815  0.3040E-02  0.2949E-01
     -5.696  0.3270E-02  0.2987E-01
     -5.578  0.3499E-02  0.3027E-01
     -5.460  0.3729E-02  0.3070E-01
     -5.342  0.3959E-02  0.3115E-01
     -5.223  0.4188E-02  0.3163E-01
     -5.105  0.4152E-02  0.3212E-01
     -4.987  0.3899E-02  0.3260E-01
     -4.869  0.3824E-02  0.3306E-01
     -4.750  0.3822E-02  0.3351E-01
     -4.632  0.3820E-02  0.3396E-01
     -4.514  0.3819E-02  0.3441E-01
     -4.396  0.3871E-02  0.3487E-01
     -4.277  0.3951E-02  0.3533E-01
     -4.159  0.4030E-02  0.3580E-01
     -4.041  0.4111E-02  0.3628E-01
     -3.923  0.4199E-02  0.3677E-01
     -3.804  0.4620E-02  0.3729E-01
     -3.686  0.5002E-02  0.3787E-01
     -3.568  0.5367E-02  0.3848E-01
     -3.450  0.5606E-02  0.3913E-01
     -3.331  0.5834E-02  0.3981E-01
     -3.213  0.6024E-02  0.4051E-01
     -3.095  0.6274E-02  0.4123E-01
     -2.976  0.7073E-02  0.4201E-01
     -2.858  0.7389E-02  0.4288E-01
     -2.740  0.7364E-02  0.4375E-01
     -2.622  0.7233E-02  0.4462E-01
     -2.503  0.6822E-02  0.4545E-01
     -2.385  0.7921E-02  0.4629E-01
     -2.267  0.8684E-02  0.4728E-01
     -2.149  0.9641E-02  0.4836E-01
     -2.030  0.1042E-01  0.4955E-01
     -1.912  0.1318E-01  0.5110E-01
     -1.794  0.1057E-01  0.5251E-01
     -1.676  0.9058E-02  0.5367E-01
     -1.557  0.7728E-02  0.5465E-01
     -1.439  0.7341E-02  0.5554E-01
     -1.321  0.5231E-02  0.5629E-01
     -1.203  0.4538E-02  0.5686E-01
     -1.084  0.4749E-02  0.5740E-01
     -0.966  0.5335E-02  0.5799E-01
     -0.848  0.6491E-02  0.5869E-01
     -0.730  0.6326E-02  0.5945E-01
     -0.611  0.7257E-02  0.6023E-01
     -0.493  0.9078E-02  0.6129E-01
     -0.375  0.7757E-02  0.6227E-01
     -0.257  0.7067E-02  0.6315E-01
     -0.138  0.6609E-02  0.6396E-01
     -0.020  0.6222E-02  0.6471E-01
      0.098  0.5933E-02  0.6543E-01
      0.216  0.5785E-02  0.6612E-01
      0.335  0.5740E-02  0.6680E-01
      0.453  0.5991E-02  0.6750E-01
      0.571  0.5857E-02  0.6820E-01
      0.690  0.5732E-02  0.6889E-01
      0.808  0.6054E-02  0.6956E-01
      0.926  0.5763E-02  0.7026E-01
      1.044  0.5454E-02  0.7093E-01
      1.163  0.6007E-02  0.7161E-01
      1.281  0.5061E-02  0.7227E-01
      1.399  0.4166E-02  0.7281E-01
      1.517  0.3927E-02  0.7327E-01
      1.636  0.4806E-02  0.7380E-01
      1.754  0.4627E-02  0.7437E-01
      1.872  0.4514E-02  0.7491E-01
      1.990  0.4503E-02  0.7544E-01
      2.109  0.4434E-02  0.7597E-01
      2.227  0.4373E-02  0.7649E-01
      2.345  0.4641E-02  0.7701E-01
      2.463  0.3331E-02  0.7747E-01
      2.582  0.3129E-02  0.7785E-01
      2.700  0.2678E-02  0.7820E-01
      2.818  0.2233E-02  0.7849E-01
      2.936  0.1933E-02  0.7873E-01
      3.055  0.1760E-02  0.7895E-01
      3.173  0.1576E-02  0.7915E-01
      3.291  0.1386E-02  0.7932E-01
      3.409  0.1192E-02  0.7948E-01
      3.528  0.9647E-03  0.7960E-01
      3.646  0.8167E-03  0.7971E-01
      3.764  0.6686E-03  0.7980E-01
      3.883  0.5204E-03  0.7987E-01
      4.001  0.3843E-03  0.7992E-01
      4.119  0.2666E-03  0.7996E-01
      4.237  0.1595E-03  0.7998E-01
      4.356  0.6094E-04  0.8000E-01
      4.474  0.2004E-04  0.8000E-01
      4.592  0.9853E-04  0.8001E-01
      4.710  0.1863E-03  0.8002E-01
      4.829  0.2852E-03  0.8005E-01
      4.947  0.3982E-03  0.8009E-01
      5.065  0.5371E-03  0.8015E-01
      5.183  0.6946E-03  0.8022E-01
      5.302  0.8524E-03  0.8031E-01
      5.420  0.1010E-02  0.8042E-01
      5.538  0.1169E-02  0.8055E-01
      5.656  0.2046E-02  0.8075E-01
      5.775  0.2380E-02  0.8101E-01
      5.893  0.2651E-02  0.8130E-01
      6.011  0.4424E-02  0.8169E-01
      6.129  0.5545E-02  0.8226E-01
      6.248  0.4647E-02  0.8286E-01
      6.366  0.4574E-02  0.8340E-01
      6.484  0.4554E-02  0.8394E-01
      6.602  0.4601E-02  0.8448E-01
      6.721  0.4463E-02  0.8502E-01
      6.839  0.3618E-02  0.8551E-01
      6.957  0.3366E-02  0.8592E-01
      7.075  0.3150E-02  0.8631E-01
      7.194  0.2976E-02  0.8667E-01
      7.312  0.2832E-02  0.8701E-01
      7.430  0.2715E-02  0.8734E-01
      7.549  0.2629E-02  0.8766E-01
      7.667  0.2564E-02  0.8796E-01
      7.785  0.2507E-02  0.8826E-01
      7.903  0.2453E-02  0.8856E-01
      8.022  0.2402E-02  0.8884E-01
      8.140  0.2352E-02  0.8912E-01
      8.258  0.2303E-02  0.8940E-01
      8.376  0.2254E-02  0.8967E-01
      8.495  0.2205E-02  0.8993E-01
      8.613  0.2208E-02  0.9019E-01
      8.731  0.2377E-02  0.9046E-01
      8.849  0.2407E-02  0.9074E-01
      8.968  0.2406E-02  0.9103E-01
      9.086  0.2460E-02  0.9132E-01
      9.204  0.2530E-02  0.9161E-01
      9.322  0.2572E-02  0.9191E-01
      9.441  0.2592E-02  0.9222E-01
      9.559  0.2637E-02  0.9253E-01
      9.677  0.2686E-02  0.9284E-01
      9.795  0.2738E-02  0.9316E-01
      9.914  0.2796E-02  0.9349E-01
     10.032  0.3035E-02  0.9383E-01
     10.150  0.3864E-02  0.9424E-01
     10.268  0.3627E-02  0.9468E-01
     10.387  0.3294E-02  0.9509E-01
     10.505  0.2972E-02  0.9546E-01
     10.623  0.2715E-02  0.9580E-01
     10.741  0.2230E-02  0.9608E-01
     10.860  0.2106E-02  0.9633E-01
     10.978  0.2002E-02  0.9658E-01
     11.096  0.1943E-02  0.9681E-01
     11.215  0.2042E-02  0.9704E-01
     11.333  0.2147E-02  0.9729E-01
     11.451  0.2331E-02  0.9756E-01
     11.569  0.2597E-02  0.9785E-01
     11.688  0.3017E-02  0.9817E-01
     11.806  0.4523E-02  0.9860E-01
     11.924  0.5766E-02  0.9923E-01
     12.042  0.7053E-02  0.9998E-01
     12.161  0.8567E-02  0.1009E+00
     12.279  0.9191E-02  0.1020E+00
     12.397  0.1002E-01  0.1031E+00
     12.515  0.1036E-01  0.1043E+00
     12.634  0.9617E-02  0.1055E+00
     12.752  0.9256E-02  0.1066E+00
     12.870  0.1533E-01  0.1081E+00
     12.988  0.1082E-01  0.1096E+00
     13.107  0.7311E-02  0.1107E+00
     13.225  0.5368E-02  0.1114E+00
     13.343  0.5088E-02  0.1120E+00
     13.461  0.4887E-02  0.1126E+00
     13.580  0.4802E-02  0.1132E+00
     13.698  0.4256E-02  0.1137E+00
     13.816  0.3815E-02  0.1142E+00
     13.934  0.3434E-02  0.1146E+00
     14.053  0.3132E-02  0.1150E+00
     14.171  0.2962E-02  0.1154E+00
     14.289  0.3083E-02  0.1157E+00
     14.407  0.3837E-02  0.1161E+00
     14.526  0.4274E-02  0.1166E+00
     14.644  0.3620E-02  0.1171E+00
     14.762  0.3766E-02  0.1175E+00
     14.881  0.4408E-02  0.1180E+00
     14.999  0.3564E-02  0.1185E+00
     15.117  0.2527E-02  0.1189E+00
     15.235  0.2077E-02  0.1192E+00
     15.354  0.1775E-02  0.1194E+00
     15.472  0.1650E-02  0.1196E+00
     15.590  0.1237E-02  0.1198E+00
     15.708  0.7829E-03  0.1199E+00
     15.827  0.4614E-03  0.1199E+00
     15.945  0.1819E-03  0.1200E+00
     16.063  0.8227E-04  0.1200E+00
     16.181  0.2165E-04  0.1200E+00
     16.300  0.6583E-07  0.1200E+00
     16.418  0.0000E+00  0.1200E+00
     16.536  0.0000E+00  0.1200E+00
     16.654  0.0000E+00  0.1200E+00
     16.773  0.0000E+00  0.1200E+00
     16.891  0.0000E+00  0.1200E+00
     17.009  0.0000E+00  0.1200E+00
     17.127  0.0000E+00  0.1200E+00
     17.246  0.0000E+00  0.1200E+00
     17.364  0.0000E+00  0.1200E+00
     17.482  0.0000E+00  0.1200E+00
     17.600  0.0000E+00  0.1200E+00
     17.719  0.0000E+00  0.1200E+00
     17.837  0.0000E+00  0.1200E+00
     17.955  0.0000E+00  0.1200E+00
     18.073  0.0000E+00  0.1200E+00
     18.192  0.0000E+00  0.1200E+00
     18.310  0.0000E+00  0.1200E+00
