    4    4  200    1
  0.9079817E+01  0.2466437E-09  0.2466437E-09  0.6897021E-09  0.5000000E-15
  1.000000000000000E-004
  CAR 
 graphite                                
     16    215     12
 
  0.0000000E+00  0.0000000E+00  0.0000000E+00  0.8680556E-03
    1      -15.167449
    2      -14.925673
    3       -3.950236
    4       -2.245275
    5        1.428804
    6        1.442832
    7        1.445420
    8        1.458994
    9        8.527306
   10       12.770594
   11       12.777598
   12       12.812961
 
  0.8333333E-01  0.0000000E+00  0.0000000E+00  0.3472222E-02
    1      -15.001975
    2      -14.762665
    3       -3.749615
    4       -2.056337
    5        0.783434
    6        0.809124
    7        1.090496
    8        1.111777
    9        8.729634
   10       12.823558
   11       12.892178
   12       13.468542
 
  0.1666667E+00  0.0000000E+00  0.0000000E+00  0.3472222E-02
    1      -14.507454
    2      -14.275482
    3       -3.152171
    4       -1.496092
    5       -0.868766
    6       -0.818915
    7        0.292579
    8        0.323181
    9        9.337922
   10       12.724905
   11       12.875596
   12       13.640723
 
  0.2500000E+00  0.0000000E+00  0.0000000E+00  0.3472222E-02
    1      -13.689621
    2      -13.469803
    3       -2.983401
    4       -2.906090
    5       -2.173705
    6       -0.590585
    7       -0.587859
    8       -0.554028
    9       10.346251
   10       11.432743
   11       11.965158
   12       12.398210
 
  0.3333333E+00  0.0000000E+00  0.0000000E+00  0.3472222E-02
    1      -12.560975
    2      -12.357911
    3       -5.203097
    4       -5.097826
    5       -1.325525
    6       -1.285738
    7       -0.855109
    8        0.603597
    9        9.009954
   10        9.776548
   11       11.682574
   12       12.058085
 
  0.4166667E+00 -0.2775558E-16  0.0000000E+00  0.3472222E-02
    1      -11.152485
    2      -10.972228
    3       -7.316874
    4       -7.188107
    5       -1.799515
    6       -1.757619
    7        0.678683
    8        1.851116
    9        6.856641
   10        7.713870
   11       11.760528
   12       12.063142
 
  0.5000000E+00  0.0000000E+00  0.0000000E+00  0.1736111E-02
    1       -9.848848
    2       -9.759082
    3       -8.787572
    4       -8.719669
    5       -1.961998
    6       -1.919726
    7        1.746546
    8        2.341359
    9        5.948509
   10        6.557870
   11       11.671418
   12       11.993224
 
  0.8333333E-01  0.8333333E-01  0.0000000E+00  0.1736111E-02
    1      -14.671728
    2      -14.437340
    3       -3.350232
    4       -1.681318
    5       -0.250894
    6       -0.226342
    7        0.413698
    8        0.431776
    9        9.136447
   10       13.102595
   11       13.201152
   12       14.306154
 
  0.1666667E+00  0.8333333E-01  0.0000000E+00  0.3472222E-02
    1      -14.015305
    2      -13.790694
    3       -2.561195
    4       -1.979220
    5       -1.926018
    6       -0.945184
    7       -0.591244
    8       -0.557444
    9        9.949869
   10       12.353093
   11       12.723357
   12       13.194863
 
  0.2500000E+00  0.8333333E-01  0.0000000E+00  0.3472222E-02
    1      -13.041616
    2      -12.831475
    3       -4.071528
    4       -3.985214
    5       -1.483608
    6       -1.438092
    7       -1.407685
    8        0.114082
    9       10.102866
   10       10.687702
   11       11.156792
   12       12.905927
 
  0.3333333E+00  0.8333333E-01  0.0000000E+00  0.3472222E-02
    1      -11.769976
    2      -11.579127
    3       -6.210913
    4       -6.095927
    5       -2.121766
    6       -2.070991
    7        0.043332
    8        1.384923
    9        7.811983
   10        8.591542
   11       12.523543
   12       12.711351
 
  0.4166667E+00  0.8333333E-01  0.0000000E+00  0.3472222E-02
    1      -10.273208
    2      -10.116025
    3       -8.159238
    4       -8.031641
    5       -2.452137
    6       -2.399031
    7        1.533361
    8        2.399470
    9        6.148502
   10        6.832335
   11       12.401848
   12       12.740021
 
  0.5000000E+00  0.8333333E-01  0.0000000E+00  0.3472222E-02
    1      -10.275575
    2      -10.118314
    3       -8.156485
    4       -8.028719
    5       -2.452965
    6       -2.399852
    7        1.531891
    8        2.398966
    9        6.148596
   10        6.834137
   11       12.402843
   12       12.741016
 
 -0.4166667E+00  0.8333333E-01  0.0000000E+00  0.3472222E-02
    1      -11.772147
    2      -11.581292
    3       -6.207445
    4       -6.092405
    5       -2.124129
    6       -2.073298
    7        0.041452
    8        1.383354
    9        7.812527
   10        8.593829
   11       12.525185
   12       12.711174
 
 -0.3333333E+00  0.8333333E-01  0.0000000E+00  0.3472222E-02
    1      -13.043316
    2      -12.833166
    3       -4.068258
    4       -3.981884
    5       -1.486700
    6       -1.441133
    7       -1.409322
    8        0.112555
    9       10.102169
   10       10.689526
   11       11.154515
   12       12.910492
 
 -0.2500000E+00  0.8333333E-01  0.0000000E+00  0.3472222E-02
    1      -14.016515
    2      -13.791898
    3       -2.562428
    4       -1.978415
    5       -1.925203
    6       -0.946368
    7       -0.592261
    8       -0.558570
    9        9.948210
   10       12.350224
   11       12.724469
   12       13.200766
 
 -0.1666667E+00  0.8333333E-01  0.0000000E+00  0.3472222E-02
    1      -14.672453
    2      -14.438058
    3       -3.350991
    4       -1.682057
    5       -0.259026
    6       -0.233895
    7        0.421431
    8        0.439514
    9        9.135420
   10       13.109851
   11       13.209562
   12       14.207019
 
 -0.8333333E-01  0.8333333E-01  0.0000000E+00  0.1736111E-02
    1      -15.002222
    2      -14.762905
    3       -3.749873
    4       -2.056598
    5        0.770500
    6        0.796435
    7        1.103517
    8        1.124616
    9        8.729281
   10       12.828029
   11       12.896887
   12       13.475331
 
  0.1666667E+00  0.1666667E+00  0.0000000E+00  0.1736111E-02
    1      -13.202944
    2      -12.990463
    3       -3.308195
    4       -3.266248
    5       -1.950715
    6       -1.920089
    7       -1.594091
    8       -0.052347
    9       10.622479
   10       10.966704
   11       11.019642
   12       14.366319
 
  0.2500000E+00  0.1666667E+00  0.0000000E+00  0.3472222E-02
    1      -12.084773
    2      -11.889005
    3       -5.057554
    4       -4.976195
    5       -3.020763
    6       -2.964813
    7       -0.289615
    8        1.124758
    9        8.615315
   10        9.140761
   11       12.364798
   12       14.497009
 
  0.3333333E+00  0.1666667E+00  0.0000000E+00  0.3472222E-02
    1      -10.695965
    2      -10.522980
    3       -6.986986
    4       -6.870710
    5       -3.605929
    6       -3.535301
    7        1.240286
    8        2.392145
    9        6.673704
   10        7.310286
   11       14.053663
   12       14.290516
 
  0.4166667E+00  0.1666667E+00  0.0000000E+00  0.3472222E-02
    1       -9.424873
    2       -9.338862
    3       -8.386188
    4       -8.326316
    5       -3.794184
    6       -3.719978
    7        2.345138
    8        2.927882
    9        5.852338
   10        6.140427
   11       14.149393
   12       14.611391
 
  0.5000000E+00  0.1666667E+00  0.0000000E+00  0.3472222E-02
    1      -10.700697
    2      -10.527691
    3       -6.980662
    4       -6.864209
    5       -3.608347
    6       -3.537632
    7        1.236639
    8        2.389490
    9        6.673414
   10        7.315358
   11       14.048920
   12       14.290958
 
 -0.4166667E+00  0.1666667E+00  0.0000000E+00  0.3472222E-02
    1      -12.088642
    2      -11.892870
    3       -5.051932
    4       -4.970343
    5       -3.023868
    6       -2.967692
    7       -0.293139
    8        1.121482
    9        8.613112
   10        9.145415
   11       12.359556
   12       14.503205
 
 -0.3333333E+00  0.1666667E+00  0.0000000E+00  0.3472222E-02
    1      -13.205837
    2      -12.993355
    3       -3.309764
    4       -3.266816
    5       -1.948259
    6       -1.917015
    7       -1.596950
    8       -0.055121
    9       10.616606
   10       10.962826
   11       11.022571
   12       14.386201
 
 -0.2500000E+00  0.1666667E+00  0.0000000E+00  0.3472222E-02
    1      -14.017236
    2      -13.792616
    3       -2.563180
    4       -1.989443
    5       -1.935645
    6       -0.947134
    7       -0.580092
    8       -0.546108
    9        9.947276
   10       12.345795
   11       12.722694
   12       13.220347
 
 -0.1666667E+00  0.1666667E+00  0.0000000E+00  0.1736111E-02
    1      -14.508416
    2      -14.276441
    3       -3.153183
    4       -1.497091
    5       -0.882344
    6       -0.832234
    7        0.307318
    8        0.337815
    9        9.336607
   10       12.743444
   11       12.893629
   12       13.634355
 
  0.2500000E+00  0.2500000E+00  0.0000000E+00  0.1736111E-02
    1      -10.845019
    2      -10.668406
    3       -6.086851
    4       -6.028033
    5       -4.496776
    6       -4.452979
    7        1.123926
    8        2.365373
    9        7.007910
   10        7.509678
   11       13.910869
   12       16.309997
 
  0.3333333E+00  0.2500000E+00  0.0000000E+00  0.3472222E-02
    1       -9.405212
    2       -9.261864
    3       -7.526512
    4       -7.430667
    5       -5.222093
    6       -5.147587
    7        2.648654
    8        3.517500
    9        5.548889
   10        6.002665
   11       15.645887
   12       15.873066
 
  0.4166667E+00  0.2500000E+00  0.0000000E+00  0.3472222E-02
    1       -9.412384
    2       -9.268908
    3       -7.519020
    4       -7.422358
    5       -5.222958
    6       -5.148316
    7        2.644152
    8        3.515347
    9        5.544919
   10        6.011216
   11       15.634083
   12       15.867430
 
  0.5000000E+00  0.2500000E+00  0.0000000E+00  0.3472222E-02
    1      -10.851501
    2      -10.674954
    3       -6.083113
    4       -6.022885
    5       -4.495230
    6       -4.450550
    7        1.118625
    8        2.360155
    9        7.003872
   10        7.517168
   11       13.901868
   12       16.303834
 
 -0.4166667E+00  0.2500000E+00  0.0000000E+00  0.3472222E-02
    1      -12.089865
    2      -11.894097
    3       -5.061944
    4       -4.979799
    5       -3.011819
    6       -2.955289
    7       -0.294297
    8        1.119967
    9        8.608821
   10        9.143747
   11       12.358140
   12       14.534320
 
 -0.3333333E+00  0.2500000E+00  0.0000000E+00  0.3472222E-02
    1      -13.045243
    2      -12.835092
    3       -4.081025
    4       -3.994385
    5       -1.469940
    6       -1.424380
    7       -1.411259
    8        0.110423
    9       10.094806
   10       10.685413
   11       11.152246
   12       12.939200
 
 -0.2500000E+00  0.2500000E+00  0.0000000E+00  0.1736111E-02
    1      -13.691770
    2      -13.471962
    3       -2.996253
    4       -2.918717
    5       -2.175927
    6       -0.590091
    7       -0.574162
    8       -0.537681
    9       10.343529
   10       11.424504
   11       11.960780
   12       12.425707
 
  0.3333333E+00  0.3333333E+00  0.0000000E+00  0.1736111E-02
    1       -8.198090
    2       -8.122701
    3       -8.120869
    4       -8.047021
    5       -6.075203
    6       -6.074386
    7        3.903133
    8        4.423430
    9        4.431101
   10        5.047225
   11       15.476591
   12       15.498027
 
  0.4166667E+00  0.3333333E+00  0.0000000E+00  0.3472222E-02
    1       -9.415054
    2       -9.272030
    3       -7.524603
    4       -7.428012
    5       -5.213930
    6       -5.138875
    7        2.643469
    8        3.508363
    9        5.546587
   10        6.010859
   11       15.633038
   12       15.873548
 
  0.5000000E+00  0.3333333E+00  0.0000000E+00  0.3472222E-02
    1      -10.703873
    2      -10.530988
    3       -6.990482
    4       -6.873927
    5       -3.593240
    6       -3.522498
    7        1.234333
    8        2.384268
    9        6.669722
   10        7.311937
   11       14.050638
   12       14.323296
 
 -0.4166667E+00  0.3333333E+00  0.0000000E+00  0.3472222E-02
    1      -11.775841
    2      -11.585021
    3       -6.218516
    4       -6.103346
    5       -2.106080
    6       -2.055317
    7        0.038129
    8        1.378759
    9        7.805654
   10        8.587784
   11       12.545139
   12       12.731441
 
 -0.3333333E+00  0.3333333E+00  0.0000000E+00  0.1736111E-02
    1      -12.564850
    2      -12.361790
    3       -5.214095
    4       -5.108656
    5       -1.307783
    6       -1.268073
    7       -0.858847
    8        0.599385
    9        9.001778
   10        9.770429
   11       11.682580
   12       12.088772
 
  0.4166667E+00  0.4166667E+00  0.0000000E+00  0.1736111E-02
    1       -9.434605
    2       -9.350565
    3       -8.387291
    4       -8.328739
    5       -3.779520
    6       -3.705310
    7        2.343926
    8        2.913101
    9        5.856383
   10        6.135385
   11       14.186568
   12       14.649341
 
  0.5000000E+00  0.4166667E+00  0.0000000E+00  0.3472222E-02
    1      -10.282355
    2      -10.125620
    3       -8.163521
    4       -8.036107
    5       -2.434967
    6       -2.381911
    7        1.528603
    8        2.387886
    9        6.147910
   10        6.825954
   11       12.437541
   12       12.775827
 
 -0.4166667E+00  0.4166667E+00  0.0000000E+00  0.1736111E-02
    1      -11.158767
    2      -10.978627
    3       -7.325078
    4       -7.196270
    5       -1.780949
    6       -1.739125
    7        0.673830
    8        1.843246
    9        6.851903
   10        7.706403
   11       11.794034
   12       12.096480
 
  0.5000000E+00  0.5000000E+00  0.0000000E+00  0.8680556E-03
    1       -9.859326
    2       -9.771616
    3       -8.789745
    4       -8.723309
    5       -1.943159
    6       -1.900959
    7        1.744722
    8        2.325677
    9        5.951373
   10        6.546731
   11       11.705813
   12       12.027659
 
  0.0000000E+00  0.0000000E+00  0.1250000E+00  0.1736111E-02
    1      -15.158658
    2      -14.935378
    3       -3.895098
    4       -2.324041
    5        1.429334
    6        1.442302
    7        1.445933
    8        1.458480
    9        8.702577
   10       12.771122
   11       12.775819
   12       12.810426
 
  0.8333333E-01  0.0000000E+00  0.1250000E+00  0.6944444E-02
    1      -14.993316
    2      -14.772266
    3       -3.694794
    4       -2.134575
    5        0.784428
    6        0.808077
    7        1.091315
    8        1.111001
    9        8.903587
   10       12.823352
   11       12.889917
   12       13.502737
 
  0.1666667E+00  0.0000000E+00  0.1250000E+00  0.6944444E-02
    1      -14.498999
    2      -14.284775
    3       -3.098410
    4       -1.572223
    5       -0.866924
    6       -0.820822
    7        0.293711
    8        0.322044
    9        9.507465
   10       12.725164
   11       12.869506
   12       13.652675
 
  0.2500000E+00  0.0000000E+00  0.1250000E+00  0.6944444E-02
    1      -13.681632
    2      -13.478628
    3       -2.980618
    4       -2.909112
    5       -2.121994
    6       -0.660196
    7       -0.589220
    8       -0.555456
    9       10.500379
   10       11.458753
   11       11.937429
   12       12.405437
 
  0.3333333E+00  0.0000000E+00  0.1250000E+00  0.6944444E-02
    1      -12.553590
    2      -12.366081
    3       -5.199145
    4       -5.101955
    5       -1.324166
    6       -1.287306
    7       -0.806788
    8        0.538494
    9        9.030224
   10        9.740376
   11       11.805434
   12       12.075797
 
  0.4166667E+00 -0.2775558E-16  0.1250000E+00  0.6944444E-02
    1      -11.145884
    2      -10.979356
    3       -7.312275
    4       -7.193208
    5       -1.797962
    6       -1.759296
    7        0.720075
    8        1.803038
    9        6.876214
   10        7.669665
   11       11.772300
   12       12.051967
 
  0.5000000E+00  0.0000000E+00  0.1250000E+00  0.3472222E-02
    1       -9.844985
    2       -9.761963
    3       -8.786014
    4       -8.723115
    5       -1.960407
    6       -1.921269
    7        1.774512
    8        2.326849
    9        5.947987
   10        6.513496
   11       11.683226
   12       11.980602
 
  0.8333333E-01  0.8333333E-01  0.1250000E+00  0.3472222E-02
    1      -14.663236
    2      -14.446719
    3       -3.296129
    4       -1.758251
    5       -0.249853
    6       -0.227205
    7        0.414333
    8        0.431034
    9        9.307685
   10       13.099079
   11       13.197864
   12       14.301651
 
  0.1666667E+00  0.8333333E-01  0.1250000E+00  0.6944444E-02
    1      -14.007160
    2      -13.799688
    3       -2.508607
    4       -1.977162
    5       -1.928041
    6       -1.019185
    7       -0.589971
    8       -0.558703
    9       10.114481
   10       12.365538
   11       12.703816
   12       13.199111
 
  0.2500000E+00  0.8333333E-01  0.1250000E+00  0.6944444E-02
    1      -13.033957
    2      -12.839894
    3       -4.068268
    4       -3.988576
    5       -1.481939
    6       -1.439825
    7       -1.357656
    8        0.045353
    9       10.116887
   10       10.661678
   11       11.318192
   12       12.914032
 
  0.3333333E+00  0.8333333E-01  0.1250000E+00  0.6944444E-02
    1      -11.762974
    2      -11.586683
    3       -6.206591
    4       -6.100502
    5       -2.119842
    6       -2.072884
    7        0.088680
    8        1.326565
    9        7.833844
   10        8.555389
   11       12.558450
   12       12.753832
 
  0.4166667E+00  0.8333333E-01  0.1250000E+00  0.6944444E-02
    1      -10.267363
    2      -10.122107
    3       -8.154598
    4       -8.036687
    5       -2.450142
    6       -2.401135
    7        1.567720
    8        2.369960
    9        6.156727
   10        6.791526
   11       12.414121
   12       12.726523
 
  0.5000000E+00  0.8333333E-01  0.1250000E+00  0.6944444E-02
    1      -10.269735
    2      -10.124396
    3       -8.151923
    4       -8.033813
    5       -2.450924
    6       -2.401961
    7        1.566285
    8        2.369393
    9        6.156905
   10        6.793278
   11       12.415105
   12       12.727503
 
 -0.4166667E+00  0.8333333E-01  0.1250000E+00  0.6944444E-02
    1      -11.765144
    2      -11.588848
    3       -6.203124
    4       -6.096982
    5       -2.122210
    6       -2.075193
    7        0.086784
    8        1.324976
    9        7.834469
   10        8.557611
   11       12.560777
   12       12.754132
 
 -0.3333333E+00  0.8333333E-01  0.1250000E+00  0.6944444E-02
    1      -13.035656
    2      -12.841584
    3       -4.064998
    4       -3.985249
    5       -1.485027
    6       -1.442861
    7       -1.359291
    8        0.043819
    9       10.116335
   10       10.663416
   11       11.315835
   12       12.918567
 
 -0.2500000E+00  0.8333333E-01  0.1250000E+00  0.6944444E-02
    1      -14.008371
    2      -13.800906
    3       -2.509868
    4       -1.976356
    5       -1.927227
    6       -1.020371
    7       -0.590991
    8       -0.559828
    9       10.112836
   10       12.362826
   11       12.704863
   12       13.204949
 
 -0.1666667E+00  0.8333333E-01  0.1250000E+00  0.6944444E-02
    1      -14.663961
    2      -14.447438
    3       -3.296887
    4       -1.758990
    5       -0.257965
    6       -0.234783
    7        0.422068
    8        0.438774
    9        9.306660
   10       13.106277
   11       13.206240
   12       14.188777
 
 -0.8333333E-01  0.8333333E-01  0.1250000E+00  0.3472222E-02
    1      -14.993553
    2      -14.772504
    3       -3.695049
    4       -2.134824
    5        0.771502
    6        0.795403
    7        1.104331
    8        1.123887
    9        8.903234
   10       12.827776
   11       12.894613
   12       13.471529
 
  0.1666667E+00  0.1666667E+00  0.1250000E+00  0.3472222E-02
    1      -13.195193
    2      -12.998926
    3       -3.306436
    4       -3.267688
    5       -1.949670
    6       -1.921287
    7       -1.543586
    8       -0.122245
    9       10.637178
   10       10.997165
   11       11.129346
   12       14.364258
 
  0.2500000E+00  0.1666667E+00  0.1250000E+00  0.6944444E-02
    1      -12.077614
    2      -11.896781
    3       -5.054485
    4       -4.979222
    5       -3.018778
    6       -2.966978
    7       -0.242514
    8        1.061980
    9        8.633863
   10        9.119641
   11       12.502919
   12       14.504526
 
  0.3333333E+00  0.1666667E+00  0.1250000E+00  0.6944444E-02
    1      -10.689630
    2      -10.529829
    3       -6.982696
    4       -6.875331
    5       -3.603306
    6       -3.538118
    7        1.280770
    8        2.344730
    9        6.691584
   10        7.281314
   11       14.133278
   12       14.308518
 
  0.4166667E+00  0.1666667E+00  0.1250000E+00  0.6944444E-02
    1       -9.421214
    2       -9.341609
    3       -8.384804
    4       -8.329314
    5       -3.791369
    6       -3.722854
    7        2.373013
    8        2.914568
    9        5.844505
   10        6.115311
   11       14.162500
   12       14.587785
 
  0.5000000E+00  0.1666667E+00  0.1250000E+00  0.6944444E-02
    1      -10.694361
    2      -10.534537
    3       -6.976323
    4       -6.868836
    5       -3.605716
    6       -3.540438
    7        1.277149
    8        2.342009
    9        6.691529
   10        7.286184
   11       14.129463
   12       14.308155
 
 -0.4166667E+00  0.1666667E+00  0.1250000E+00  0.6944444E-02
    1      -12.081492
    2      -11.900685
    3       -5.048851
    4       -4.973381
    5       -3.021899
    6       -2.969992
    7       -0.246022
    8        1.058688
    9        8.631918
   10        9.124005
   11       12.497608
   12       14.510605
 
 -0.3333333E+00  0.1666667E+00  0.1250000E+00  0.6944444E-02
    1      -13.198099
    2      -13.001821
    3       -3.307982
    4       -3.268338
    5       -1.947217
    6       -1.918328
    7       -1.546441
    8       -0.125024
    9       10.631608
   10       10.999479
   11       11.125720
   12       14.383728
 
 -0.2500000E+00  0.1666667E+00  0.1250000E+00  0.6944444E-02
    1      -14.009092
    2      -13.801624
    3       -2.510620
    4       -1.987363
    5       -1.937694
    6       -1.021137
    7       -0.578810
    8       -0.547374
    9       10.111879
   10       12.358632
   11       12.702999
   12       13.224310
 
 -0.1666667E+00  0.1666667E+00  0.1250000E+00  0.3472222E-02
    1      -14.499961
    2      -14.285732
    3       -3.099424
    4       -1.573223
    5       -0.880490
    6       -0.834149
    7        0.308482
    8        0.336681
    9        9.506147
   10       12.743580
   11       12.887512
   12       13.647186
 
  0.2500000E+00  0.2500000E+00  0.1250000E+00  0.3472222E-02
    1      -10.838540
    2      -10.675346
    3       -6.084522
    4       -6.030153
    5       -4.495395
    6       -4.454905
    7        1.166350
    8        2.312030
    9        7.027131
   10        7.490097
   11       13.996964
   12       15.911419
 
  0.3333333E+00  0.2500000E+00  0.1250000E+00  0.6944444E-02
    1       -9.399900
    2       -9.267441
    3       -7.522971
    4       -7.434425
    5       -5.219495
    6       -5.150647
    7        2.682481
    8        3.487368
    9        5.560127
   10        5.979583
   11       15.420389
   12       15.645892
 
  0.4166667E+00  0.2500000E+00  0.1250000E+00  0.6944444E-02
    1       -9.407099
    2       -9.274506
    3       -7.515458
    4       -7.426183
    5       -5.220368
    6       -5.151404
    7        2.677999
    8        3.485010
    9        5.556682
   10        5.987703
   11       15.407997
   12       15.655474
 
  0.5000000E+00  0.2500000E+00  0.1250000E+00  0.6944444E-02
    1      -10.845023
    2      -10.681893
    3       -6.080734
    4       -6.025060
    5       -4.493810
    6       -4.452509
    7        1.161050
    8        2.306804
    9        7.023467
   10        7.497092
   11       13.987918
   12       15.921152
 
 -0.4166667E+00  0.2500000E+00  0.1250000E+00  0.6944444E-02
    1      -12.082715
    2      -11.901877
    3       -5.058847
    4       -4.982861
    5       -3.009818
    6       -2.957598
    7       -0.247199
    8        1.057197
    9        8.627637
   10        9.122177
   11       12.496371
   12       14.541518
 
 -0.3333333E+00  0.2500000E+00  0.1250000E+00  0.6944444E-02
    1      -13.037584
    2      -12.843509
    3       -4.077712
    4       -3.997760
    5       -1.468263
    6       -1.426097
    7       -1.361227
    8        0.041700
    9       10.108876
   10       10.659097
   11       11.313923
   12       12.947205
 
 -0.2500000E+00  0.2500000E+00  0.1250000E+00  0.3472222E-02
    1      -13.683800
    2      -13.480786
    3       -2.993493
    4       -2.921760
    5       -2.124218
    6       -0.662460
    7       -0.572802
    8       -0.539112
    9       10.497470
   10       11.451020
   11       11.932965
   12       12.432810
 
  0.3333333E+00  0.3333333E+00  0.1250000E+00  0.3472222E-02
    1       -8.192562
    2       -8.122491
    3       -8.120562
    4       -8.052796
    5       -6.075571
    6       -6.074876
    7        3.942012
    8        4.427264
    9        4.434368
   10        4.997783
   11       15.285618
   12       15.303742
 
  0.4166667E+00  0.3333333E+00  0.1250000E+00  0.6944444E-02
    1       -9.409814
    2       -9.277579
    3       -7.521009
    4       -7.431847
    5       -5.211310
    6       -5.141864
    7        2.677203
    8        3.478449
    9        5.558051
   10        5.987265
   11       15.407568
   12       15.662128
 
  0.5000000E+00  0.3333333E+00  0.1250000E+00  0.6944444E-02
    1      -10.697540
    2      -10.537831
    3       -6.986169
    4       -6.878559
    5       -3.590606
    6       -3.525302
    7        1.274788
    8        2.336983
    9        6.687665
   10        7.282609
   11       14.135087
   12       14.338433
 
 -0.4166667E+00  0.3333333E+00  0.1250000E+00  0.6944444E-02
    1      -11.768849
    2      -11.592577
    3       -6.214188
    4       -6.107928
    5       -2.104157
    6       -2.057216
    7        0.083457
    8        1.320466
    9        7.827474
   10        8.551417
   11       12.586694
   12       12.775779
 
 -0.3333333E+00  0.3333333E+00  0.1250000E+00  0.3472222E-02
    1      -12.557465
    2      -12.370026
    3       -5.210155
    4       -5.112795
    5       -1.306429
    6       -1.269638
    7       -0.810537
    8        0.534316
    9        9.021976
   10        9.734100
   11       11.809248
   12       12.105445
 
  0.4166667E+00  0.4166667E+00  0.1250000E+00  0.3472222E-02
    1       -9.431016
    2       -9.353229
    3       -8.385961
    4       -8.331696
    5       -3.776704
    6       -3.708186
    7        2.371468
    8        2.900461
    9        5.847943
   10        6.110317
   11       14.199702
   12       14.625417
 
  0.5000000E+00  0.4166667E+00  0.1250000E+00  0.6944444E-02
    1      -10.276524
    2      -10.131674
    3       -8.158973
    4       -8.041147
    5       -2.432914
    6       -2.384013
    7        1.562828
    8        2.358772
    9        6.155678
   10        6.785159
   11       12.449825
   12       12.762299
 
 -0.4166667E+00  0.4166667E+00  0.1250000E+00  0.3472222E-02
    1      -11.152171
    2      -10.985748
    3       -7.320528
    4       -7.201378
    5       -1.779404
    6       -1.740806
    7        0.715115
    8        1.795360
    9        6.871186
   10        7.662168
   11       11.805842
   12       12.085348
 
  0.5000000E+00  0.5000000E+00  0.1250000E+00  0.1736111E-02
    1       -9.855553
    2       -9.774419
    3       -8.788396
    4       -8.726743
    5       -1.941567
    6       -1.902487
    7        1.772342
    8        2.311860
    9        5.950059
   10        6.502608
   11       11.717616
   12       12.015004
 
  0.0000000E+00  0.0000000E+00  0.2500000E+00  0.1736111E-02
    1      -15.133703
    2      -14.962798
    3       -3.735010
    4       -2.540444
    5        1.430811
    6        1.440623
    7        1.447358
    8        1.456854
    9        9.206088
   10       12.779157
   11       12.788235
   12       12.807116
 
  0.8333333E-01  0.0000000E+00  0.2500000E+00  0.6944444E-02
    1      -14.968516
    2      -14.799379
    3       -3.535710
    4       -2.349092
    5        0.787199
    6        0.805284
    7        1.093611
    8        1.108737
    9        9.403261
   10       12.810193
   11       12.883504
   12       13.328844
 
  0.1666667E+00  0.0000000E+00  0.2500000E+00  0.6944444E-02
    1      -14.474926
    2      -14.311015
    3       -2.942478
    4       -1.781396
    5       -0.861509
    6       -0.826226
    7        0.297001
    8        0.318670
    9        9.994083
   10       12.718423
   11       12.852971
   12       13.657068
 
  0.2500000E+00  0.0000000E+00  0.2500000E+00  0.6944444E-02
    1      -13.658718
    2      -13.503432
    3       -2.972331
    4       -2.917641
    5       -1.971732
    6       -0.858967
    7       -0.585258
    8       -0.559409
    9       10.925050
   10       11.548420
   11       11.861481
   12       12.423648
 
  0.3333333E+00  0.0000000E+00  0.2500000E+00  0.6944444E-02
    1      -12.532409
    2      -12.388918
    3       -5.187987
    4       -5.113684
    5       -1.319977
    6       -1.291753
    7       -0.666575
    8        0.358503
    9        9.093865
   10        9.640563
   11       12.010969
   12       12.142633
 