       N       E                     dE             d eps       ncg     rms          rms(c)
DAV:   1     0.584323712692E+02    0.58432E+02   -0.90151E+03  5160   0.138E+03
DAV:   2    -0.348254900049E+02   -0.93258E+02   -0.86150E+02  7152   0.244E+02
DAV:   3    -0.391806743207E+02   -0.43552E+01   -0.43201E+01  6588   0.538E+01
DAV:   4    -0.392374955686E+02   -0.56821E-01   -0.56722E-01  6340   0.710E+00
DAV:   5    -0.392387735166E+02   -0.12779E-02   -0.12769E-02  6456   0.104E+00    0.781E+00
DAV:   6    -0.374177227517E+02    0.18211E+01   -0.18030E+00  5980   0.936E+00    0.410E+00
DAV:   7    -0.368365530284E+02    0.58117E+00   -0.18920E+00  6132   0.969E+00    0.689E-01
DAV:   8    -0.368455106886E+02   -0.89577E-02   -0.51551E-02  5868   0.157E+00    0.914E-02
DAV:   9    -0.368457054449E+02   -0.19476E-03   -0.13097E-03  6508   0.303E-01    0.399E-02
DAV:  10    -0.368458646223E+02   -0.15918E-03   -0.18561E-04  6228   0.120E-01    0.605E-03
DAV:  11    -0.368458657233E+02   -0.11010E-05   -0.34156E-06  6704   0.158E-02    0.186E-03
DAV:  12    -0.368458659835E+02   -0.26018E-06   -0.55468E-07  6376   0.632E-03    0.764E-04
DAV:  13    -0.368458661023E+02   -0.11880E-06   -0.16760E-07  6392   0.339E-03    0.127E-04
DAV:  14    -0.368458660945E+02    0.77641E-08   -0.13666E-09  4436   0.380E-04
   1 F= -.37450884E+02 E0= -.37450884E+02  d E =-.374509E+02
