   32   32    1    1
  0.8119452E+01  0.4932875E-09  0.4932875E-09  0.1233506E-08  0.5000000E-15
  1.000000000000000E-004
  CAR 
 graphite                                
    128    163     84
 
  0.0000000E+00  0.0000000E+00  0.0000000E+00  0.3086420E-02
    1      -14.298741
    2      -14.035921
    3      -14.035113
    4      -13.740147
    5       -8.912754
    6       -8.905274
    7       -8.902881
    8       -8.788392
    9       -8.787996
   10       -8.780489
   11       -8.776624
   12       -8.776517
   13       -8.774351
   14       -8.703387
   15       -8.691683
   16       -8.687968
   17       -7.783447
   18       -7.780448
   19       -7.778175
   20       -7.742958
   21       -7.739019
   22       -7.737148
   23       -7.736493
   24       -7.736348
   25       -7.732448
   26       -7.628891
   27       -7.623388
   28       -7.621451
   29       -3.457057
   30       -2.148815
   31       -2.146431
   32       -0.967192
   33       -0.964423
   34       -0.944979
   35       -0.909336
   36       -0.904969
   37       -0.904954
   38       -0.904139
   39       -0.886307
   40       -0.883708
   41       -0.845817
   42       -0.843271
   43       -0.823832
   44       -0.506065
   45        2.414119
   46        2.415597
   47        2.417958
   48        2.447567
   49        2.467076
   50        2.471557
   51        2.473861
   52        2.489893
   53        2.492537
   54        2.496411
   55        2.515708
   56        3.092634
   57        3.095458
   58        3.096995
   59        3.101223
   60        3.101754
   61        3.104022
   62        3.430812
   63        3.450115
   64        3.453099
   65        7.063747
   66        7.066818
   67        7.071954
   68        7.086856
   69        7.091796
   70        7.096096
   71        7.097164
   72        7.097566
   73        7.103946
   74        7.909819
   75        7.923867
   76        7.926251
   77       10.617229
   78       12.499798
   79       12.504141
   80       12.536795
   81       12.840682
   82       12.847056
   83       12.852213
   84       12.873655
 
  0.1111111E+00  0.0000000E+00  0.0000000E+00  0.6172840E-02
    1      -14.224551
    2      -13.962713
    3      -13.961908
    4      -13.668171
    5       -9.729944
    6       -9.535192
    7       -9.534357
    8       -9.325388
    9       -9.180435
   10       -9.172557
   11       -9.009485
   12       -9.008988
   13       -9.000461
   14       -8.999808
   15       -8.837647
   16       -8.827553
   17       -7.529238
   18       -7.523194
   19       -7.401352
   20       -7.398137
   21       -7.392944
   22       -7.392568
   23       -7.240553
   24       -7.233269
   25       -7.023366
   26       -6.870451
   27       -6.868569
   28       -6.699550
   29       -3.366961
   30       -2.062079
   31       -2.059696
   32       -1.195295
   33       -1.175573
   34       -1.129745
   35       -1.129180
   36       -1.110909
   37       -1.108348
   38       -1.062013
   39       -1.042284
   40       -0.893775
   41       -0.835548
   42       -0.832503
   43       -0.773212
   44       -0.424131
   45        1.779615
   46        2.160032
   47        2.187163
   48        2.191696
   49        2.219137
   50        2.280914
   51        2.284506
   52        2.292637
   53        2.316661
   54        2.321499
   55        2.346475
   56        2.672345
   57        2.675755
   58        3.041424
   59        3.043907
   60        3.047961
   61        3.051236
   62        3.482647
   63        3.544236
   64        3.562414
   65        7.083941
   66        7.089144
   67        7.217303
   68        7.223231
   69        7.227804
   70        7.230022
   71        7.263845
   72        7.637021
   73        7.641419
   74        8.048264
   75        8.059659
   76        8.556495
   77       10.701538
   78       12.544475
   79       12.837771
   80       12.874276
   81       12.883475
   82       12.888341
   83       13.205593
   84       13.216765
 
  0.2222222E+00  0.2775558E-16  0.0000000E+00  0.6172840E-02
    1      -14.002356
    2      -13.743502
    3      -13.742707
    4      -13.452761
    5      -10.751015
    6      -10.536445
    7      -10.535764
    8      -10.301547
    9       -9.536701
   10       -9.531084
   11       -9.345649
   12       -9.344715
   13       -9.339278
   14       -9.338589
   15       -9.139817
   16       -9.133417
   17       -6.860260
   18       -6.851080
   19       -6.712187
   20       -6.709379
   21       -6.701527
   22       -6.701063
   23       -6.546014
   24       -6.536598
   25       -5.694344
   26       -5.547947
   27       -5.546223
   28       -5.389737
   29       -3.097725
   30       -1.809933
   31       -1.802857
   32       -1.800483
   33       -1.791416
   34       -1.731122
   35       -1.730713
   36       -1.713492
   37       -1.710973
   38       -1.648783
   39       -1.630276
   40       -0.678097
   41       -0.621014
   42       -0.617806
   43       -0.559794
   44       -0.179735
   45        0.720360
   46        1.323368
   47        1.367898
   48        1.372289
   49        1.417168
   50        1.785405
   51        1.788177
   52        1.865128
   53        1.899515
   54        1.905001
   55        1.939669
   56        2.033598
   57        2.035668
   58        2.920372
   59        2.922292
   60        2.925694
   61        2.929013
   62        2.998529
   63        3.725977
   64        3.738678
   65        7.215884
   66        7.218312
   67        7.552182
   68        7.557951
   69        7.562349
   70        7.564574
   71        8.257334
   72        8.341237
   73        8.348153
   74        8.857544
   75        8.861096
   76        9.762418
   77       10.955578
   78       12.670112
   79       12.997799
   80       12.999880
   81       13.322314
   82       13.766005
   83       13.788869
   84       13.794668
 
  0.3333333E+00 -0.2775558E-16  0.0000000E+00  0.6172840E-02
    1      -13.633289
    2      -13.379315
    3      -13.378537
    4      -13.094881
    5      -11.670936
    6      -11.443232
    7      -11.442541
    8      -11.191779
    9       -9.796733
   10       -9.793114
   11       -9.598199
   12       -9.596908
   13       -9.593805
   14       -9.593004
   15       -9.381498
   16       -9.377558
   17       -6.047317
   18       -6.036525
   19       -5.908770
   20       -5.905823
   21       -5.896819
   22       -5.896144
   23       -5.757561
   24       -5.747087
   25       -4.250918
   26       -4.122165
   27       -4.120244
   28       -3.983811
   29       -2.651573
   30       -2.631699
   31       -2.615702
   32       -2.541833
   33       -2.541546
   34       -2.526758
   35       -2.524127
   36       -2.445553
   37       -2.429300
   38       -1.374470
   39       -1.372115
   40       -0.328420
   41       -0.322092
   42       -0.272911
   43       -0.269448
   44       -0.213394
   45        0.125453
   46        0.191197
   47        0.194845
   48        0.222700
   49        0.261290
   50        0.834624
   51        0.837164
   52        1.297603
   53        1.340127
   54        1.344899
   55        1.388070
   56        1.821670
   57        1.823921
   58        2.230453
   59        2.796577
   60        2.798080
   61        2.800450
   62        2.804055
   63        3.838032
   64        3.845628
   65        7.479341
   66        7.483437
   67        7.944149
   68        7.949750
   69        7.952976
   70        7.955102
   71        8.604600
   72        8.608273
   73        9.738355
   74       10.332158
   75       10.335360
   76       11.133205
   77       11.379568
   78       12.856803
   79       13.179044
   80       13.181464
   81       13.360947
   82       13.668827
   83       13.690935
   84       13.695333
 
  0.4444444E+00  0.5551115E-16  0.0000000E+00  0.6172840E-02
    1      -13.119250
    2      -12.872096
    3      -12.871333
    4      -12.596454
    5      -12.463456
    6      -12.224973
    7      -12.224263
    8      -11.960318
    9       -9.930092
   10       -9.927998
   11       -9.728965
   12       -9.727138
   13       -9.726134
   14       -9.724939
   15       -9.508207
   16       -9.505975
   17       -5.279461
   18       -5.271126
   19       -5.176394
   20       -5.172651
   21       -5.167499
   22       -5.165905
   23       -5.070721
   24       -5.064113
   25       -3.367658
   26       -3.359399
   27       -3.299002
   28       -3.297576
   29       -3.290392
   30       -3.287270
   31       -3.211845
   32       -3.201805
   33       -2.758770
   34       -2.650238
   35       -2.647891
   36       -2.533978
   37       -2.033214
   38       -1.274233
   39       -1.251365
   40       -1.188818
   41       -1.185646
   42       -1.093340
   43       -0.779850
   44       -0.777243
   45       -0.038070
   46       -0.035594
   47        0.139433
   48        0.192057
   49        0.195903
   50        0.249280
   51        0.697147
   52        0.745867
   53        0.749984
   54        0.773862
   55        0.799067
   56        1.455930
   57        1.705975
   58        1.707960
   59        2.722127
   60        2.723738
   61        2.724763
   62        2.728879
   63        3.879650
   64        3.883265
   65        7.720578
   66        7.723954
   67        8.211860
   68        8.217567
   69        8.218784
   70        8.220569
   71        8.731775
   72        8.734962
   73       11.379335
   74       11.864376
   75       11.867776
   76       11.967289
   77       12.540673
   78       12.677184
   79       13.007166
   80       13.186308
   81       13.235796
   82       13.240192
   83       13.412755
   84       13.434045
 
  0.0000000E+00  0.1111111E+00  0.0000000E+00  0.6172840E-02
    1      -14.224552
    2      -13.962715
    3      -13.961909
    4      -13.668173
    5       -9.729878
    6       -9.535034
    7       -9.534327
    8       -9.325263
    9       -9.180466
   10       -9.172775
   11       -9.009525
   12       -9.008951
   13       -9.000772
   14       -9.000155
   15       -8.837557
   16       -8.828108
   17       -7.529300
   18       -7.521791
   19       -7.401693
   20       -7.398137
   21       -7.392741
   22       -7.389870
   23       -7.240714
   24       -7.231854
   25       -7.024414
   26       -6.870802
   27       -6.870279
   28       -6.700573
   29       -3.366956
   30       -2.062073
   31       -2.059691
   32       -1.196635
   33       -1.175602
   34       -1.132243
   35       -1.129195
   36       -1.110909
   37       -1.108597
   38       -1.063299
   39       -1.042424
   40       -0.892288
   41       -0.832769
   42       -0.832469
   43       -0.771871
   44       -0.424122
   45        1.780340
   46        2.157316
   47        2.185423
   48        2.187170
   49        2.215366
   50        2.281302
   51        2.283934
   52        2.295748
   53        2.321492
   54        2.322924
   55        2.349216
   56        2.673815
   57        2.676347
   58        3.041078
   59        3.044046
   60        3.046801
   61        3.049937
   62        3.484105
   63        3.544335
   64        3.560786
   65        7.086588
   66        7.088750
   67        7.217653
   68        7.223189
   69        7.228524
   70        7.233373
   71        7.261671
   72        7.635983
   73        7.638636
   74        8.048395
   75        8.061717
   76        8.554783
   77       10.701549
   78       12.544993
   79       12.837241
   80       12.872644
   81       12.884187
   82       12.885305
   83       13.186535
   84       13.199024
 
  0.1111111E+00  0.1111111E+00  0.0000000E+00  0.6172840E-02
    1      -14.076235
    2      -13.816390
    3      -13.815592
    4      -13.524346
    5      -10.200680
    6      -10.197440
    7       -9.996774
    8       -9.993124
    9       -9.993094
   10       -9.990165
   11       -9.771530
   12       -9.768178
   13       -8.722170
   14       -8.600143
   15       -8.598820
   16       -8.515957
   17       -7.597491
   18       -7.559494
   19       -7.555821
   20       -7.450462
   21       -6.340738
   22       -6.337295
   23       -6.189911
   24       -6.187004
   25       -6.186968
   26       -6.182815
   27       -6.024236
   28       -6.020579
   29       -3.187152
   30       -1.889004
   31       -1.886625
   32       -1.867503
   33       -1.788550
   34       -1.786375
   35       -1.704711
   36       -1.051513
   37       -1.048508
   38       -0.988711
   39       -0.984260
   40       -0.984246
   41       -0.982971
   42       -0.919908
   43       -0.917149
   44       -0.260852
   45        1.321933
   46        1.324181
   47        1.629750
   48        1.657714
   49        1.662587
   50        1.686872
   51        1.980153
   52        1.999846
   53        2.005383
   54        2.029031
   55        2.312686
   56        2.316947
   57        2.317056
   58        2.319603
   59        2.683810
   60        3.358337
   61        3.361465
   62        3.365141
   63        3.368252
   64        3.686571
   65        7.014601
   66        7.020365
   67        7.078862
   68        7.655960
   69        7.659109
   70        7.674849
   71        8.177288
   72        8.179282
   73        8.179804
   74        8.184483
   75        9.071504
   76        9.074126
   77       10.871212
   78       12.921738
   79       12.925966
   80       13.253638
   81       13.259061
   82       13.260144
   83       13.265347
   84       13.630906
 
  0.2222222E+00  0.1111111E+00  0.0000000E+00  0.6172840E-02
    1      -13.780521
    2      -13.524581
    3      -13.523798
    4      -13.237648
    5      -11.173801
    6      -10.953192
    7      -10.952497
    8      -10.710581
    9      -10.544469
   10      -10.333165
   11      -10.332456
   12      -10.101788
   13       -8.791209
   14       -8.626201
   15       -8.625496
   16       -8.460525
   17       -7.177886
   18       -7.058047
   19       -7.054894
   20       -6.908378
   21       -5.549659
   22       -5.408839
   23       -5.408033
   24       -5.257980
   25       -4.948343
   26       -4.811909
   27       -4.810161
   28       -4.664926
   29       -2.829337
   30       -2.784012
   31       -2.690897
   32       -2.688762
   33       -2.589868
   34       -1.583034
   35       -1.544955
   36       -1.542581
   37       -1.506826
   38       -1.506546
   39       -1.427162
   40       -0.763383
   41       -0.701889
   42       -0.698765
   43       -0.635762
   44        0.062797
   45        0.251867
   46        0.664956
   47        0.710563
   48        0.715588
   49        0.759190
   50        0.973104
   51        1.366210
   52        1.368828
   53        1.428333
   54        1.459485
   55        1.465378
   56        1.499426
   57        2.028628
   58        2.031038
   59        2.683727
   60        2.801460
   61        3.233160
   62        3.560092
   63        3.563625
   64        4.057702
   65        6.979694
   66        7.024936
   67        7.030022
   68        7.598427
   69        8.187246
   70        8.747454
   71        8.750248
   72        8.944370
   73        9.511860
   74        9.547302
   75        9.550471
   76       10.368112
   77       11.212068
   78       13.083389
   79       13.406202
   80       13.408317
   81       13.678648
   82       13.892455
   83       13.923831
   84       13.950410
 
  0.3333333E+00  0.1111111E+00  0.0000000E+00  0.6172840E-02
    1      -13.338851
    2      -13.088782
    3      -13.088019
    4      -12.809358
    5      -12.030608
    6      -11.798028
    7      -11.797319
    8      -11.540589
    9      -10.755170
   10      -10.540514
   11      -10.539776
   12      -10.305153
   13       -8.942815
   14       -8.760816
   15       -8.760284
   16       -8.566397
   17       -6.417504
   18       -6.290205
   19       -6.287215
   20       -6.150833
   21       -4.738420
   22       -4.620460
   23       -4.618957
   24       -4.496609
   25       -3.722837
   26       -3.629516
   27       -3.627227
   28       -3.522142
   29       -3.487585
   30       -3.370804
   31       -3.368841
   32       -3.246081
   33       -2.296771
   34       -2.283216
   35       -2.204767
   36       -2.203698
   37       -2.117398
   38       -1.035605
   39       -1.033349
   40       -0.739583
   41       -0.596419
   42       -0.524269
   43       -0.520240
   44       -0.450365
   45       -0.345234
   46       -0.286961
   47       -0.283651
   48       -0.223641
   49        0.445502
   50        0.447998
   51        0.540361
   52        0.754595
   53        0.796316
   54        0.840583
   55        0.845510
   56        0.891849
   57        1.844909
   58        1.847298
   59        1.892678
   60        2.774425
   61        3.130916
   62        3.649797
   63        3.652903
   64        4.466328
   65        6.795843
   66        7.145627
   67        7.150231
   68        7.706489
   69        8.687277
   70        9.201142
   71        9.204277
   72        9.772950
   73       10.512520
   74       11.049234
   75       11.052235
   76       11.720626
   77       11.745719
   78       13.123642
   79       13.420930
   80       13.609150
   81       13.612043
   82       13.675040
   83       13.716875
   84       13.726748
 
  0.4444444E+00  0.1111111E+00  0.0000000E+00  0.6172840E-02
    1      -12.755944
    2      -12.752764
    3      -12.514901
    4      -12.511958
    5      -12.511014
    6      -12.508633
    7      -12.244011
    8      -12.240735
    9      -10.826155
   10      -10.610783
   11      -10.610031
   12      -10.374074
   13       -8.999325
   14       -8.814058
   15       -8.813474
   16       -8.614486
   17       -5.887780
   18       -5.801564
   19       -5.798732
   20       -5.721428
   21       -4.244358
   22       -4.217132
   23       -4.175071
   24       -4.173455
   25       -4.170502
   26       -4.167767
   27       -4.103261
   28       -4.102037
   29       -2.676745
   30       -2.635708
   31       -2.632652
   32       -2.571564
   33       -2.015983
   34       -2.012529
   35       -1.921003
   36       -1.920707
   37       -1.918939
   38       -1.914000
   39       -1.820618
   40       -1.816702
   41       -1.597526
   42       -1.594919
   43       -0.367482
   44       -0.363675
   45       -0.362981
   46       -0.360487
   47        0.182625
   48        0.188930
   49        0.234201
   50        0.241966
   51        0.244188
   52        0.244364
   53        0.295445
   54        0.300268
   55        0.680848
   56        1.157116
   57        1.160140
   58        1.781512
   59        1.783950
   60        2.753083
   61        3.092497
   62        3.672704
   63        3.675413
   64        4.644638
   65        6.713718
   66        7.214468
   67        7.218213
   68        7.760916
   69        8.909094
   70        9.377284
   71        9.380880
   72        9.840422
   73       12.132288
   74       12.136435
   75       12.388537
   76       12.390835
   77       12.534217
   78       12.535946
   79       12.537138
   80       12.543342
   81       13.109323
   82       13.113006
   83       13.611598
   84       13.618522
 
 -0.4444444E+00  0.1111111E+00  0.0000000E+00  0.6172840E-02
    1      -13.339619
    2      -13.089555
    3      -13.088781
    4      -12.810122
    5      -12.029410
    6      -11.796814
    7      -11.796119
    8      -11.539387
    9      -10.756941
   10      -10.542380
   11      -10.541630
   12      -10.306974
   13       -8.940261
   14       -8.758039
   15       -8.757429
   16       -8.563179
   17       -6.409146
   18       -6.280931
   19       -6.279770
   20       -6.142732
   21       -4.750040
   22       -4.632441
   23       -4.629365
   24       -4.507185
   25       -3.734846
   26       -3.641129
   27       -3.640588
   28       -3.534895
   29       -3.489761
   30       -3.373198
   31       -3.370850
   32       -3.248235
   33       -2.297492
   34       -2.268937
   35       -2.190991
   36       -2.188034
   37       -2.102374
   38       -1.036307
   39       -1.034070
   40       -0.738502
   41       -0.596399
   42       -0.523640
   43       -0.521177
   44       -0.450724
   45       -0.343143
   46       -0.285080
   47       -0.281344
   48       -0.221688
   49        0.446512
   50        0.449057
   51        0.539663
   52        0.753389
   53        0.796568
   54        0.841229
   55        0.844495
   56        0.891318
   57        1.843250
   58        1.845767
   59        1.893537
   60        2.774350
   61        3.128182
   62        3.652464
   63        3.654998
   64        4.475912
   65        6.794301
   66        7.149423
   67        7.152485
   68        7.706902
   69        8.681715
   70        9.195995
   71        9.200010
   72        9.772084
   73       10.513567
   74       11.048612
   75       11.051875
   76       11.719532
   77       11.743901
   78       13.123387
   79       13.419158
   80       13.605962
   81       13.609887
   82       13.667781
   83       13.720086
   84       13.740655
 
 -0.3333333E+00  0.1111111E+00  0.0000000E+00  0.6172840E-02
    1      -13.781069
    2      -13.525130
    3      -13.524340
    4      -13.238191
    5      -11.172373
    6      -10.951753
    7      -10.951080
    8      -10.709141
    9      -10.548042
   10      -10.336727
   11      -10.335999
   12      -10.105481
   13       -8.785852
   14       -8.619857
   15       -8.619275
   16       -8.452821
   17       -7.171713
   18       -7.049540
   19       -7.048919
   20       -6.900621
   21       -5.561344
   22       -5.421247
   23       -5.418707
   24       -5.269311
   25       -4.950609
   26       -4.814310
   27       -4.812414
   28       -4.667276
   29       -2.829874
   30       -2.799934
   31       -2.705982
   32       -2.705661
   33       -2.606036
   34       -1.564621
   35       -1.545469
   36       -1.543108
   37       -1.489505
   38       -1.486928
   39       -1.408704
   40       -0.761647
   41       -0.700295
   42       -0.696909
   43       -0.633992
   44        0.062286
   45        0.253061
   46        0.660970
   47        0.707689
   48        0.709623
   49        0.754080
   50        0.970832
   51        1.367255
   52        1.369981
   53        1.433889
   54        1.465249
   55        1.467962
   56        1.502711
   57        2.025308
   58        2.027969
   59        2.684590
   60        2.800154
   61        3.227460
   62        3.565048
   63        3.567625
   64        4.074733
   65        6.975267
   66        7.031120
   67        7.033916
   68        7.603099
   69        8.180684
   70        8.739089
   71        8.743407
   72        8.944799
   73        9.507874
   74        9.546337
   75        9.549750
   76       10.366150
   77       11.211289
   78       13.080925
   79       13.403700
   80       13.406186
   81       13.677028
   82       13.925241
   83       13.941579
   84       13.966102
 
 -0.2222222E+00  0.1111111E+00  0.0000000E+00  0.6172840E-02
    1      -14.076567
    2      -13.816719
    3      -13.815917
    4      -13.524683
    5      -10.204394
    6      -10.197429
    7       -9.999118
    8       -9.998445
    9       -9.992045
   10       -9.991347
   11       -9.775535
   12       -9.768320
   13       -8.713641
   14       -8.589111
   15       -8.588638
   16       -8.502792
   17       -7.595442
   18       -7.554119
   19       -7.553737
   20       -7.445353
   21       -6.349449
   22       -6.340606
   23       -6.198262
   24       -6.195901
   25       -6.189181
   26       -6.187415
   27       -6.032808
   28       -6.024167
   29       -3.187477
   30       -1.889337
   31       -1.886992
   32       -1.885358
   33       -1.805655
   34       -1.805246
   35       -1.722616
   36       -1.049550
   37       -1.029457
   38       -0.986177
   39       -0.983048
   40       -0.965829
   41       -0.963347
   42       -0.918167
   43       -0.898194
   44       -0.261164
   45        1.320442
   46        1.323965
   47        1.616899
   48        1.647159
   49        1.647904
   50        1.674220
   51        1.994059
   52        2.015095
   53        2.015225
   54        2.040775
   55        2.310662
   56        2.313567
   57        2.315925
   58        2.318981
   59        2.681348
   60        3.357400
   61        3.363692
   62        3.366703
   63        3.368449
   64        3.707527
   65        7.022646
   66        7.025418
   67        7.071068
   68        7.652026
   69        7.659072
   70        7.685135
   71        8.168319
   72        8.172911
   73        8.178319
   74        8.182333
   75        9.065026
   76        9.071706
   77       10.870719
   78       12.922007
   79       12.958065
   80       13.256541
   81       13.257900
   82       13.292027
   83       13.293682
   84       13.628310
 
 -0.1111111E+00  0.1111111E+00  0.0000000E+00  0.6172840E-02
    1      -14.224662
    2      -13.962825
    3      -13.962017
    4      -13.668281
    5       -9.737081
    6       -9.542523
    7       -9.541942
    8       -9.333150
    9       -9.172445
   10       -9.170267
   11       -9.002098
   12       -8.998923
   13       -8.998834
   14       -8.997155
   15       -8.828164
   16       -8.825372
   17       -7.525096
   18       -7.522905
   19       -7.395459
   20       -7.394386
   21       -7.394296
   22       -7.391290
   23       -7.235464
   24       -7.233468
   25       -7.032029
   26       -6.879522
   27       -6.877106
   28       -6.708322
   29       -3.367065
   30       -2.062179
   31       -2.059799
   32       -1.196914
   33       -1.194215
   34       -1.133058
   35       -1.128807
   36       -1.128789
   37       -1.127902
   38       -1.063464
   39       -1.060997
   40       -0.872378
   41       -0.813983
   42       -0.811524
   43       -0.751989
   44       -0.424227
   45        1.777742
   46        2.141711
   47        2.169126
   48        2.175114
   49        2.202272
   50        2.282831
   51        2.284247
   52        2.309220
   53        2.333577
   54        2.339146
   55        2.364263
   56        2.667790
   57        2.670974
   58        3.044395
   59        3.049496
   60        3.049997
   61        3.051358
   62        3.470980
   63        3.559857
   64        3.562817
   65        7.084521
   66        7.087785
   67        7.226120
   68        7.228122
   69        7.228517
   70        7.234181
   71        7.260821
   72        7.626489
   73        7.631398
   74        8.058112
   75        8.060688
   76        8.545971
   77       10.701379
   78       12.579577
   79       12.836033
   80       12.840603
   81       12.918697
   82       12.921051
   83       13.180558
   84       13.188697
 
  0.0000000E+00  0.2222222E+00  0.0000000E+00  0.6172840E-02
    1      -14.002363
    2      -13.743511
    3      -13.742711
    4      -13.452768
    5      -10.751058
    6      -10.536501
    7      -10.535783
    8      -10.301579
    9       -9.536889
   10       -9.530966
   11       -9.346174
   12       -9.344731
   13       -9.339194
   14       -9.338286
   15       -9.139915
   16       -9.133425
   17       -6.860417
   18       -6.849827
   19       -6.712638
   20       -6.709382
   21       -6.701212
   22       -6.698637
   23       -6.546123
   24       -6.535283
   25       -5.695303
   26       -5.548323
   27       -5.547795
   28       -5.390733
   29       -3.097706
   30       -1.811280
   31       -1.802830
   32       -1.800468
   33       -1.791515
   34       -1.733664
   35       -1.730745
   36       -1.713492
   37       -1.711241
   38       -1.650062
   39       -1.630405
   40       -0.676552
   41       -0.618129
   42       -0.617780
   43       -0.558411
   44       -0.179698
   45        0.720788
   46        1.321134
   47        1.367260
   48        1.367917
   49        1.414296
   50        1.786177
   51        1.788597
   52        1.868312
   53        1.904706
   54        1.905016
   55        1.941899
   56        2.032796
   57        2.035587
   58        2.919565
   59        2.921973
   60        2.925498
   61        2.927868
   62        2.999509
   63        3.725960
   64        3.737089
   65        7.216662
   66        7.219758
   67        7.552729
   68        7.557915
   69        7.563146
   70        7.567740
   71        8.255505
   72        8.341591
   73        8.350191
   74        8.856606
   75        8.859178
   76        9.761089
   77       10.955609
   78       12.670748
   79       12.998919
   80       13.000022
   81       13.322897
   82       13.782767
   83       13.790728
   84       13.799639
 
  0.1111111E+00  0.2222222E+00  0.0000000E+00  0.6172840E-02
    1      -13.780526
    2      -13.524588
    3      -13.523801
    4      -13.237653
    5      -11.173860
    6      -10.953277
    7      -10.952525
    8      -10.710634
    9      -10.544425
   10      -10.333109
   11      -10.332436
   12      -10.101758
   13       -8.791195
   14       -8.626198
   15       -8.625480
   16       -8.460520
   17       -7.177837
   18       -7.057919
   19       -7.054894
   20       -6.908296
   21       -5.548588
   22       -5.408126
   23       -5.406560
   24       -5.256858
   25       -4.949393
   26       -4.812427
   27       -4.811802
   28       -4.666040
   29       -2.829322
   30       -2.784106
   31       -2.690898
   32       -2.688939
   33       -2.589952
   34       -1.584549
   35       -1.544932
   36       -1.542564
   37       -1.509554
   38       -1.506743
   39       -1.428576
   40       -0.761769
   41       -0.698900
   42       -0.698686
   43       -0.634297
   44        0.062833
   45        0.252216
   46        0.663877
   47        0.710562
   48        0.713184
   49        0.757788