 running on    6 total cores
 distrk:  each k-point on    6 cores,    1 groups
 distr:  one band on    1 cores,    6 groups
 using from now: INCAR     
 vasp.5.3.5 31Mar14 (build Nov 02 2014 15:17:37) complex                        
  
 POSCAR found :  1 types and      32 ions
 scaLAPACK will be used

 ----------------------------------------------------------------------------- 
|                                                                             |
|           W    W    AA    RRRRR   N    N  II  N    N   GGGG   !!!           |
|           W    W   A  A   R    R  NN   N  II  NN   N  G    G  !!!           |
|           W    W  A    A  R    R  N N  N  II  N N  N  G       !!!           |
|           W WW W  AAAAAA  RRRRR   N  N N  II  N  N N  G  GGG   !            |
|           WW  WW  A    A  R   R   N   NN  II  N   NN  G    G                |
|           W    W  A    A  R    R  N    N  II  N    N   GGGG   !!!           |
|                                                                             |
|      For optimal performance we recommend to set                            |
|        NCORE= 4 - approx SQRT( number of cores)                             |
|      NCORE specifies how many cores store one orbital (NPAR=cpu/NCORE).     |
|      This setting can  greatly improve the performance of VASP for DFT.     |
|      The default, NPAR=number of cores might be grossly inefficient         |
|      on modern multi-core architectures or massively parallel machines.     |
|      Do your own testing !!!!                                               |
|      Unfortunately you need to use the default for GW and RPA calculations. |
|      (for HF NCORE is supported but not extensively tested yet)             |
|                                                                             |
 ----------------------------------------------------------------------------- 


 ----------------------------------------------------------------------------- 
|                                                                             |
|  ADVICE TO THIS USER RUNNING 'VASP/VAMP'   (HEAR YOUR MASTER'S VOICE ...):  |
|                                                                             |
|      You have a (more or less) 'large supercell' and for larger cells       |
|      it might be more efficient to use real space projection operators      |
|      So try LREAL= Auto  in the INCAR   file.                               |
|      Mind: If you want to do a very accurate calculations keep the          |
|      reciprocal projection scheme          (i.e. LREAL=.FALSE.)             |
|                                                                             |
 ----------------------------------------------------------------------------- 

 LDA part: xc-table for Pade appr. of Perdew
 POSCAR, INCAR and KPOINTS ok, starting setup
 WARNING: small aliasing (wrap around) errors must be expected
 FFT: planning ...
 WAVECAR not read
 WARNING: random wavefunctions but no delay for mixing, default for NELMDL
 entering main loop
       N       E                     dE             d eps       ncg     rms          rms(c)
DAV:   1     0.556109296929E+03    0.55611E+03   -0.72743E+04 27384   0.161E+03
DAV:   2    -0.266283500469E+03   -0.82239E+03   -0.79196E+03 33852   0.310E+02
DAV:   3    -0.311342630777E+03   -0.45059E+02   -0.44602E+02 33324   0.723E+01
DAV:   4    -0.312152241618E+03   -0.80961E+00   -0.80830E+00 34032   0.105E+01
DAV:   5    -0.312174945800E+03   -0.22704E-01   -0.22695E-01 34200   0.168E+00    0.221E+01
DAV:   6    -0.298155423563E+03    0.14020E+02   -0.14447E+01 31296   0.106E+01    0.116E+01
DAV:   7    -0.293786798773E+03    0.43686E+01   -0.14706E+01 31224   0.108E+01    0.188E+00
DAV:   8    -0.293834530851E+03   -0.47732E-01   -0.33427E-01 30996   0.167E+00    0.231E-01
DAV:   9    -0.293836137740E+03   -0.16069E-02   -0.10976E-02 33624   0.341E-01    0.967E-02
DAV:  10    -0.293836653643E+03   -0.51590E-03   -0.10892E-03 32700   0.102E-01    0.547E-02
DAV:  11    -0.293836887661E+03   -0.23402E-03   -0.48436E-04 31368   0.745E-02    0.103E-02
DAV:  12    -0.293836884701E+03    0.29606E-05   -0.49761E-05 33060   0.213E-02    0.411E-03
DAV:  13    -0.293836885326E+03   -0.62554E-06   -0.44794E-06 28776   0.734E-03
   1 F= -.29935285E+03 E0= -.29935285E+03  d E =0.000000E+00
