 vasp.5.3.5 31Mar14 (build Nov 02 2014 15:17:37) complex                        
  
 executed on        ion-Intel-MKL date 2016.08.30  22:55:00
 running on    6 total cores
 distrk:  each k-point on    6 cores,    1 groups
 distr:  one band on NCORES_PER_BAND=   1 cores,    6 groups


--------------------------------------------------------------------------------------------------------


 INCAR:
 POTCAR:   PAW_PBE C 08Apr2002                    

 ----------------------------------------------------------------------------- 
|                                                                             |
|           W    W    AA    RRRRR   N    N  II  N    N   GGGG   !!!           |
|           W    W   A  A   R    R  NN   N  II  NN   N  G    G  !!!           |
|           W    W  A    A  R    R  N N  N  II  N N  N  G       !!!           |
|           W WW W  AAAAAA  RRRRR   N  N N  II  N  N N  G  GGG   !            |
|           WW  WW  A    A  R   R   N   NN  II  N   NN  G    G                |
|           W    W  A    A  R    R  N    N  II  N    N   GGGG   !!!           |
|                                                                             |
|      For optimal performance we recommend to set                            |
|        NCORE= 4 - approx SQRT( number of cores)                             |
|      NCORE specifies how many cores store one orbital (NPAR=cpu/NCORE).     |
|      This setting can  greatly improve the performance of VASP for DFT.     |
|      The default, NPAR=number of cores might be grossly inefficient         |
|      on modern multi-core architectures or massively parallel machines.     |
|      Do your own testing !!!!                                               |
|      Unfortunately you need to use the default for GW and RPA calculations. |
|      (for HF NCORE is supported but not extensively tested yet)             |
|                                                                             |
 ----------------------------------------------------------------------------- 

 POTCAR:   PAW_PBE C 08Apr2002                    
   VRHFIN =C: s2p2                                                              
   LEXCH  = PE                                                                  
   EATOM  =   147.1560 eV,   10.8157 Ry                                         
                                                                                
   TITEL  = PAW_PBE C 08Apr2002                                                 
   LULTRA =        F    use ultrasoft PP ?                                      
   IUNSCR =        0    unscreen: 0-lin 1-nonlin 2-no                           
   RPACOR =     .000    partial core radius                                     
   POMASS =   12.011; ZVAL   =    4.000    mass and valenz                      
   RCORE  =    1.500    outmost cutoff radius                                   
   RWIGS  =    1.630; RWIGS  =     .863    wigner-seitz radius (au A)           
   ENMAX  =  400.000; ENMIN  =  300.000 eV                                      
   ICORE  =        2    local potential                                         
   LCOR   =        T    correct aug charges                                     
   LPAW   =        T    paw PP                                                  
   EAUG   =  644.873                                                            
   DEXC   =     .000                                                            
   RMAX   =    2.266    core radius for proj-oper                               
   RAUG   =    1.300    factor for augmentation sphere                          
   RDEP   =    1.501    radius for radial grids                                 
   RDEPT  =    1.300    core radius for aug-charge                              
   QCUT   =   -5.516; QGAM   =   11.032    optimization parameters              
                                                                                
   Description                                                                  
     l     E      TYP  RCUT    TYP  RCUT                                        
     0   .000     23  1.200                                                     
     0   .000     23  1.200                                                     
     1   .000     23  1.500                                                     
     1  2.500     23  1.500                                                     
     2   .000      7  1.500                                                     
  local pseudopotential read in
  atomic valenz-charges read in
  non local Contribution for L=           0  read in
    real space projection operators read in
  non local Contribution for L=           0  read in
    real space projection operators read in
  non local Contribution for L=           1  read in
    real space projection operators read in
  non local Contribution for L=           1  read in
    real space projection operators read in
    PAW grid and wavefunctions read in
 
   number of l-projection  operators is LMAX  =           4
   number of lm-projection operators is LMMAX =           8
 

 ----------------------------------------------------------------------------- 
|                                                                             |
|  ADVICE TO THIS USER RUNNING 'VASP/VAMP'   (HEAR YOUR MASTER'S VOICE ...):  |
|                                                                             |
|      You have a (more or less) 'large supercell' and for larger cells       |
|      it might be more efficient to use real space projection operators      |
|      So try LREAL= Auto  in the INCAR   file.                               |
|      Mind: If you want to do a very accurate calculations keep the          |
|      reciprocal projection scheme          (i.e. LREAL=.FALSE.)             |
|                                                                             |
 ----------------------------------------------------------------------------- 

 PAW_PBE C 08Apr2002                    :
 energy of atom  1       EATOM= -147.1560
 kinetic energy error for atom=    0.0057 (will be added to EATOM!!)
 
 
 POSCAR: C                                       
  positions in direct lattice
  No initial velocities read in
 exchange correlation table for  LEXCH =        8
   RHO(1)=    0.500       N(1)  =     2000
   RHO(2)=  100.500       N(2)  =     4000
 


--------------------------------------------------------------------------------------------------------


 ion  position               nearest neighbor table
   1  0.500  0.000  0.126-  20 1.42  18 1.42  19 1.43
   2  1.000  0.000  0.125-  17 1.42  20 1.42  19 1.42
   3  0.500  0.500  0.125-  20 1.42  17 1.42  18 1.42
   4  1.000  0.500  0.125-  19 1.42  18 1.42  17 1.42
   5  0.500  0.000  0.625-  22 1.42  23 1.42  24 1.42
   6  1.000  0.000  0.625-  21 1.42  24 1.42  23 1.42
   7  0.500  0.500  0.625-  24 1.42  21 1.42  22 1.42
   8  1.000  0.500  0.625-  23 1.42  22 1.42  21 1.42
   9  0.000  0.500  0.375-  27 1.42  26 1.42  28 1.42
  10  0.500  0.500  0.375-  28 1.42  25 1.42  27 1.42
  11  0.000  1.000  0.375-  25 1.42  28 1.42  26 1.42
  12  0.500  1.000  0.375-  26 1.42  27 1.42  25 1.42
  13  0.000  0.500  0.875-  31 1.42  30 1.42  32 1.42
  14  0.500  0.500  0.875-  32 1.42  29 1.42  31 1.42
  15  0.000  1.000  0.875-  29 1.42  32 1.42  30 1.42
  16  0.500  1.000  0.875-  30 1.42  31 1.42  29 1.42
  17  0.166  0.334  0.125-   2 1.42   3 1.42   4 1.42
  18  0.666  0.334  0.125-   4 1.42   1 1.42   3 1.42
  19  0.166  0.834  0.125-   4 1.42   2 1.42   1 1.43
  20  0.666  0.834  0.125-   1 1.42   3 1.42   2 1.42
  21  0.166  0.334  0.625-   6 1.42   7 1.42   8 1.42
  22  0.666  0.334  0.625-   5 1.42   8 1.42   7 1.42
  23  0.166  0.834  0.625-   8 1.42   5 1.42   6 1.42
  24  0.666  0.834  0.625-   7 1.42   6 1.42   5 1.42
  25  0.334  0.166  0.375-  11 1.42  10 1.42  12 1.42
  26  0.834  0.166  0.375-  12 1.42   9 1.42  11 1.42
  27  0.334  0.666  0.375-   9 1.42  12 1.42  10 1.42
  28  0.834  0.666  0.375-  10 1.42  11 1.42   9 1.42
  29  0.334  0.166  0.875-  15 1.42  14 1.42  16 1.42
  30  0.834  0.166  0.875-  16 1.42  13 1.42  15 1.42
  31  0.334  0.666  0.875-  13 1.42  16 1.42  14 1.42
  32  0.834  0.666  0.875-  14 1.42  15 1.42  13 1.42
 
  LATTYP: Found a base centered orthorhombic cell.
 ALAT       =     4.9295501972
 B/A-ratio  =     1.7336081796
 C/A-ratio  =     2.5022681302
  
  Lattice vectors:
  
 A1 = (   4.9328744980,  -0.0019192860,   0.0000000000)
 A2 = (  -2.4680993993,   4.2710349859,   0.0000000000)
 A3 = (   0.0000000000,   0.0000000000,  12.3350563544)


Analysis of symmetry for initial positions (statically):
=====================================================================
 Subroutine PRICEL returns:
 Original cell was already a primitive cell.
 

 Routine SETGRP: Setting up the symmetry group for a 
 base centered orthorhombic supercell.


 Subroutine GETGRP returns: Found  1 space group operations
 (whereof  1 operations were pure point group operations)
 out of a pool of  8 trial point group operations.


The static configuration has the point symmetry C_1 .


Analysis of symmetry for dynamics (positions and initial velocities):
=====================================================================
 Subroutine PRICEL returns:
 Original cell was already a primitive cell.
 

 Routine SETGRP: Setting up the symmetry group for a 
 base centered orthorhombic supercell.


 Subroutine GETGRP returns: Found  1 space group operations
 (whereof  1 operations were pure point group operations)
 out of a pool of  8 trial point group operations.


The dynamic configuration has the point symmetry C_1 .
 
 
 KPOINTS: B4C B11C-CBC                            

Automatic generation of k-mesh.
Space group operators:
 irot       det(A)        alpha          n_x          n_y          n_z        tau_x        tau_y        tau_z
    1     1.000000     0.000000     1.000000     0.000000     0.000000     0.000000     0.000000     0.000000
 
 Subroutine IBZKPT returns following result:
 ===========================================
 
 Found    163 irreducible k-points:
 
 Following reciprocal coordinates:
            Coordinates               Weight
  0.000000  0.000000  0.000000      1.000000
  0.111111  0.000000  0.000000      2.000000
  0.222222  0.000000  0.000000      2.000000
  0.333333 -0.000000  0.000000      2.000000
  0.444444  0.000000  0.000000      2.000000
  0.000000  0.111111  0.000000      2.000000
  0.111111  0.111111  0.000000      2.000000
  0.222222  0.111111  0.000000      2.000000
  0.333333  0.111111  0.000000      2.000000
  0.444444  0.111111  0.000000      2.000000
 -0.444444  0.111111  0.000000      2.000000
 -0.333333  0.111111  0.000000      2.000000
 -0.222222  0.111111  0.000000      2.000000
 -0.111111  0.111111  0.000000      2.000000
  0.000000  0.222222  0.000000      2.000000
  0.111111  0.222222  0.000000      2.000000
  0.222222  0.222222  0.000000      2.000000
  0.333333  0.222222  0.000000      2.000000
  0.444444  0.222222  0.000000      2.000000
 -0.444444  0.222222  0.000000      2.000000
 -0.333333  0.222222  0.000000      2.000000
 -0.222222  0.222222  0.000000      2.000000
 -0.111111  0.222222  0.000000      2.000000
 -0.000000  0.333333  0.000000      2.000000
  0.111111  0.333333  0.000000      2.000000
  0.222222  0.333333  0.000000      2.000000
  0.333333  0.333333  0.000000      2.000000
  0.444444  0.333333  0.000000      2.000000
 -0.444444  0.333333  0.000000      2.000000
 -0.333333  0.333333  0.000000      2.000000
 -0.222222  0.333333  0.000000      2.000000
 -0.111111  0.333333  0.000000      2.000000
  0.000000  0.444444  0.000000      2.000000
  0.111111  0.444444  0.000000      2.000000
  0.222222  0.444444  0.000000      2.000000
  0.333333  0.444444  0.000000      2.000000
  0.444444  0.444444  0.000000      2.000000
 -0.444444  0.444444  0.000000      2.000000
 -0.333333  0.444444  0.000000      2.000000
 -0.222222  0.444444  0.000000      2.000000
 -0.111111  0.444444  0.000000      2.000000
  0.000000  0.000000  0.250000      2.000000
  0.111111  0.000000  0.250000      2.000000
  0.222222  0.000000  0.250000      2.000000
  0.333333 -0.000000  0.250000      2.000000
  0.444444  0.000000  0.250000      2.000000
 -0.444444 -0.000000  0.250000      2.000000
 -0.333333  0.000000  0.250000      2.000000
 -0.222222 -0.000000  0.250000      2.000000
 -0.111111  0.000000  0.250000      2.000000
  0.000000  0.111111  0.250000      2.000000
  0.111111  0.111111  0.250000      2.000000
  0.222222  0.111111  0.250000      2.000000
  0.333333  0.111111  0.250000      2.000000
  0.444444  0.111111  0.250000      2.000000
 -0.444444  0.111111  0.250000      2.000000
 -0.333333  0.111111  0.250000      2.000000
 -0.222222  0.111111  0.250000      2.000000
 -0.111111  0.111111  0.250000      2.000000
  0.000000  0.222222  0.250000      2.000000
  0.111111  0.222222  0.250000      2.000000
  0.222222  0.222222  0.250000      2.000000
  0.333333  0.222222  0.250000      2.000000
  0.444444  0.222222  0.250000      2.000000
 -0.444444  0.222222  0.250000      2.000000
 -0.333333  0.222222  0.250000      2.000000
 -0.222222  0.222222  0.250000      2.000000
 -0.111111  0.222222  0.250000      2.000000
 -0.000000  0.333333  0.250000      2.000000
  0.111111  0.333333  0.250000      2.000000
  0.222222  0.333333  0.250000      2.000000
  0.333333  0.333333  0.250000      2.000000
  0.444444  0.333333  0.250000      2.000000
 -0.444444  0.333333  0.250000      2.000000
 -0.333333  0.333333  0.250000      2.000000
 -0.222222  0.333333  0.250000      2.000000
 -0.111111  0.333333  0.250000      2.000000
  0.000000  0.444444  0.250000      2.000000
  0.111111  0.444444  0.250000      2.000000
  0.222222  0.444444  0.250000      2.000000
  0.333333  0.444444  0.250000      2.000000
  0.444444  0.444444  0.250000      2.000000
 -0.444444  0.444444  0.250000      2.000000
 -0.333333  0.444444  0.250000      2.000000
 -0.222222  0.444444  0.250000      2.000000
 -0.111111  0.444444  0.250000      2.000000
  0.000000 -0.444444  0.250000      2.000000
  0.111111 -0.444444  0.250000      2.000000
  0.222222 -0.444444  0.250000      2.000000
  0.333333 -0.444444  0.250000      2.000000
  0.444444 -0.444444  0.250000      2.000000
 -0.444444 -0.444444  0.250000      2.000000
 -0.333333 -0.444444  0.250000      2.000000
 -0.222222 -0.444444  0.250000      2.000000
 -0.111111 -0.444444  0.250000      2.000000
  0.000000 -0.333333  0.250000      2.000000
  0.111111 -0.333333  0.250000      2.000000
  0.222222 -0.333333  0.250000      2.000000
  0.333333 -0.333333  0.250000      2.000000
  0.444444 -0.333333  0.250000      2.000000
 -0.444444 -0.333333  0.250000      2.000000
 -0.333333 -0.333333  0.250000      2.000000
 -0.222222 -0.333333  0.250000      2.000000
 -0.111111 -0.333333  0.250000      2.000000
  0.000000 -0.222222  0.250000      2.000000
  0.111111 -0.222222  0.250000      2.000000
  0.222222 -0.222222  0.250000      2.000000
  0.333333 -0.222222  0.250000      2.000000
  0.444444 -0.222222  0.250000      2.000000
 -0.444444 -0.222222  0.250000      2.000000
 -0.333333 -0.222222  0.250000      2.000000
 -0.222222 -0.222222  0.250000      2.000000
 -0.111111 -0.222222  0.250000      2.000000
  0.000000 -0.111111  0.250000      2.000000
  0.111111 -0.111111  0.250000      2.000000
  0.222222 -0.111111  0.250000      2.000000
  0.333333 -0.111111  0.250000      2.000000
  0.444444 -0.111111  0.250000      2.000000
 -0.444444 -0.111111  0.250000      2.000000
 -0.333333 -0.111111  0.250000      2.000000
 -0.222222 -0.111111  0.250000      2.000000
 -0.111111 -0.111111  0.250000      2.000000
  0.000000  0.000000  0.500000      1.000000
  0.111111  0.000000  0.500000      2.000000
  0.222222  0.000000  0.500000      2.000000
  0.333333 -0.000000  0.500000      2.000000
  0.444444  0.000000  0.500000      2.000000
  0.000000  0.111111  0.500000      2.000000
  0.111111  0.111111  0.500000      2.000000
  0.222222  0.111111  0.500000      2.000000
  0.333333  0.111111  0.500000      2.000000
  0.444444  0.111111  0.500000      2.000000
 -0.444444  0.111111  0.500000      2.000000
 -0.333333  0.111111  0.500000      2.000000
 -0.222222  0.111111  0.500000      2.000000
 -0.111111  0.111111  0.500000      2.000000
  0.000000  0.222222  0.500000      2.000000
  0.111111  0.222222  0.500000      2.000000
  0.222222  0.222222  0.500000      2.000000
  0.333333  0.222222  0.500000      2.000000
  0.444444  0.222222  0.500000      2.000000
 -0.444444  0.222222  0.500000      2.000000
 -0.333333  0.222222  0.500000      2.000000
 -0.222222  0.222222  0.500000      2.000000
 -0.111111  0.222222  0.500000      2.000000
 -0.000000  0.333333  0.500000      2.000000
  0.111111  0.333333  0.500000      2.000000
  0.222222  0.333333  0.500000      2.000000
  0.333333  0.333333  0.500000      2.000000
  0.444444  0.333333  0.500000      2.000000
 -0.444444  0.333333  0.500000      2.000000
 -0.333333  0.333333  0.500000      2.000000
 -0.222222  0.333333  0.500000      2.000000
 -0.111111  0.333333  0.500000      2.000000
  0.000000  0.444444  0.500000      2.000000
  0.111111  0.444444  0.500000      2.000000
  0.222222  0.444444  0.500000      2.000000
  0.333333  0.444444  0.500000      2.000000
  0.444444  0.444444  0.500000      2.000000
 -0.444444  0.444444  0.500000      2.000000
 -0.333333  0.444444  0.500000      2.000000
 -0.222222  0.444444  0.500000      2.000000
 -0.111111  0.444444  0.500000      2.000000
 
 Following cartesian coordinates:
            Coordinates               Weight
  0.000000  0.000000  0.000000      1.000000
  0.022530  0.013019  0.000000      2.000000
  0.045059  0.026038  0.000000      2.000000
  0.067589  0.039058  0.000000      2.000000
  0.090119  0.052077  0.000000      2.000000
  0.000010  0.026021  0.000000      2.000000
  0.022540  0.039040  0.000000      2.000000
  0.045069  0.052059  0.000000      2.000000
  0.067599  0.065079  0.000000      2.000000
  0.090129  0.078098  0.000000      2.000000
 -0.090109 -0.026056  0.000000      2.000000
 -0.067579 -0.013037  0.000000      2.000000
 -0.045049 -0.000018  0.000000      2.000000
 -0.022520  0.013002  0.000000      2.000000
  0.000020  0.052042  0.000000      2.000000
  0.022550  0.065061  0.000000      2.000000
  0.045080  0.078080  0.000000      2.000000
  0.067609  0.091099  0.000000      2.000000
  0.090139  0.104119  0.000000      2.000000
 -0.090098 -0.000035  0.000000      2.000000
 -0.067569  0.012984  0.000000      2.000000
 -0.045039  0.026003  0.000000      2.000000
 -0.022509  0.039023  0.000000      2.000000
  0.000030  0.078063  0.000000      2.000000
  0.022560  0.091082  0.000000      2.000000
  0.045090  0.104101  0.000000      2.000000
  0.067619  0.117120  0.000000      2.000000
  0.090149  0.130139  0.000000      2.000000
 -0.090088  0.025986  0.000000      2.000000
 -0.067559  0.039005  0.000000      2.000000
 -0.045029  0.052024  0.000000      2.000000
 -0.022499  0.065043  0.000000      2.000000
  0.000040  0.104084  0.000000      2.000000
  0.022570  0.117103  0.000000      2.000000
  0.045100  0.130122  0.000000      2.000000
  0.067630  0.143141  0.000000      2.000000
  0.090159  0.156160  0.000000      2.000000
 -0.090078  0.052007  0.000000      2.000000
 -0.067549  0.065026  0.000000      2.000000
 -0.045019  0.078045  0.000000      2.000000
 -0.022489  0.091064  0.000000      2.000000
  0.000000  0.000000  0.020267      2.000000
  0.022530  0.013019  0.020267      2.000000
  0.045059  0.026038  0.020267      2.000000
  0.067589  0.039058  0.020267      2.000000
  0.090119  0.052077  0.020267      2.000000
 -0.090119 -0.052077  0.020267      2.000000
 -0.067589 -0.039058  0.020267      2.000000
 -0.045059 -0.026038  0.020267      2.000000
 -0.022530 -0.013019  0.020267      2.000000
  0.000010  0.026021  0.020267      2.000000
  0.022540  0.039040  0.020267      2.000000
  0.045069  0.052059  0.020267      2.000000
  0.067599  0.065079  0.020267      2.000000
  0.090129  0.078098  0.020267      2.000000
 -0.090109 -0.026056  0.020267      2.000000
 -0.067579 -0.013037  0.020267      2.000000
 -0.045049 -0.000018  0.020267      2.000000
 -0.022520  0.013002  0.020267      2.000000
  0.000020  0.052042  0.020267      2.000000
  0.022550  0.065061  0.020267      2.000000
  0.045080  0.078080  0.020267      2.000000
  0.067609  0.091099  0.020267      2.000000
  0.090139  0.104119  0.020267      2.000000
 -0.090098 -0.000035  0.020267      2.000000
 -0.067569  0.012984  0.020267      2.000000
 -0.045039  0.026003  0.020267      2.000000
 -0.022509  0.039023  0.020267      2.000000
  0.000030  0.078063  0.020267      2.000000
  0.022560  0.091082  0.020267      2.000000
  0.045090  0.104101  0.020267      2.000000
  0.067619  0.117120  0.020267      2.000000
  0.090149  0.130139  0.020267      2.000000
 -0.090088  0.025986  0.020267      2.000000
 -0.067559  0.039005  0.020267      2.000000
 -0.045029  0.052024  0.020267      2.000000
 -0.022499  0.065043  0.020267      2.000000
  0.000040  0.104084  0.020267      2.000000
  0.022570  0.117103  0.020267      2.000000
  0.045100  0.130122  0.020267      2.000000
  0.067630  0.143141  0.020267      2.000000
  0.090159  0.156160  0.020267      2.000000
 -0.090078  0.052007  0.020267      2.000000
 -0.067549  0.065026  0.020267      2.000000
 -0.045019  0.078045  0.020267      2.000000
 -0.022489  0.091064  0.020267      2.000000
 -0.000040 -0.104084  0.020267      2.000000
  0.022489 -0.091064  0.020267      2.000000
  0.045019 -0.078045  0.020267      2.000000
  0.067549 -0.065026  0.020267      2.000000
  0.090078 -0.052007  0.020267      2.000000
 -0.090159 -0.156160  0.020267      2.000000
 -0.067630 -0.143141  0.020267      2.000000
 -0.045100 -0.130122  0.020267      2.000000
 -0.022570 -0.117103  0.020267      2.000000
 -0.000030 -0.078063  0.020267      2.000000
  0.022499 -0.065043  0.020267      2.000000
  0.045029 -0.052024  0.020267      2.000000
  0.067559 -0.039005  0.020267      2.000000
  0.090088 -0.025986  0.020267      2.000000
 -0.090149 -0.130139  0.020267      2.000000
 -0.067619 -0.117120  0.020267      2.000000
 -0.045090 -0.104101  0.020267      2.000000
 -0.022560 -0.091082  0.020267      2.000000
 -0.000020 -0.052042  0.020267      2.000000
  0.022509 -0.039023  0.020267      2.000000
  0.045039 -0.026003  0.020267      2.000000
  0.067569 -0.012984  0.020267      2.000000
  0.090098  0.000035  0.020267      2.000000
 -0.090139 -0.104119  0.020267      2.000000
 -0.067609 -0.091099  0.020267      2.000000
 -0.045080 -0.078080  0.020267      2.000000
 -0.022550 -0.065061  0.020267      2.000000
 -0.000010 -0.026021  0.020267      2.000000
  0.022520 -0.013002  0.020267      2.000000
  0.045049  0.000018  0.020267      2.000000
  0.067579  0.013037  0.020267      2.000000
  0.090109  0.026056  0.020267      2.000000
 -0.090129 -0.078098  0.020267      2.000000
 -0.067599 -0.065079  0.020267      2.000000
 -0.045069 -0.052059  0.020267      2.000000
 -0.022540 -0.039040  0.020267      2.000000
  0.000000  0.000000  0.040535      1.000000
  0.022530  0.013019  0.040535      2.000000
  0.045059  0.026038  0.040535      2.000000
  0.067589  0.039058  0.040535      2.000000
  0.090119  0.052077  0.040535      2.000000
  0.000010  0.026021  0.040535      2.000000
  0.022540  0.039040  0.040535      2.000000
  0.045069  0.052059  0.040535      2.000000
  0.067599  0.065079  0.040535      2.000000
  0.090129  0.078098  0.040535      2.000000
 -0.090109 -0.026056  0.040535      2.000000
 -0.067579 -0.013037  0.040535      2.000000
 -0.045049 -0.000018  0.040535      2.000000
 -0.022520  0.013002  0.040535      2.000000
  0.000020  0.052042  0.040535      2.000000
  0.022550  0.065061  0.040535      2.000000
  0.045080  0.078080  0.040535      2.000000
  0.067609  0.091099  0.040535      2.000000
  0.090139  0.104119  0.040535      2.000000
 -0.090098 -0.000035  0.040535      2.000000
 -0.067569  0.012984  0.040535      2.000000
 -0.045039  0.026003  0.040535      2.000000
 -0.022509  0.039023  0.040535      2.000000
  0.000030  0.078063  0.040535      2.000000
  0.022560  0.091082  0.040535      2.000000
  0.045090  0.104101  0.040535      2.000000
  0.067619  0.117120  0.040535      2.000000
  0.090149  0.130139  0.040535      2.000000
 -0.090088  0.025986  0.040535      2.000000
 -0.067559  0.039005  0.040535      2.000000
 -0.045029  0.052024  0.040535      2.000000
 -0.022499  0.065043  0.040535      2.000000
  0.000040  0.104084  0.040535      2.000000
  0.022570  0.117103  0.040535      2.000000
  0.045100  0.130122  0.040535      2.000000
  0.067630  0.143141  0.040535      2.000000
  0.090159  0.156160  0.040535      2.000000
 -0.090078  0.052007  0.040535      2.000000
 -0.067549  0.065026  0.040535      2.000000
 -0.045019  0.078045  0.040535      2.000000
 -0.022489  0.091064  0.040535      2.000000
 
 TETIRR: Found    970 inequivalent tetrahedra from     1944


--------------------------------------------------------------------------------------------------------




 Dimension of arrays:
   k-points           NKPTS =    163   k-points in BZ     NKDIM =    163   number of bands    NBANDS=     84
   number of dos      NEDOS =    301   number of ions     NIONS =     32
   non local maximal  LDIM  =      4   non local SUM 2l+1 LMDIM =      8
   total plane-waves  NPLWV = 160000
   max r-space proj   IRMAX =      1   max aug-charges    IRDMAX=   7466
   dimension x,y,z NGX =    40 NGY =   40 NGZ =  100
   dimension x,y,z NGXF=    80 NGYF=   80 NGZF=  200
   support grid    NGXF=    80 NGYF=   80 NGZF=  200
   ions per type =              32
 NGX,Y,Z   is equivalent  to a cutoff of  13.48, 13.48, 13.48 a.u.
 NGXF,Y,Z  is equivalent  to a cutoff of  26.96, 26.96, 26.96 a.u.


 I would recommend the setting:
   dimension x,y,z NGX =    39 NGY =   39 NGZ =   99
 SYSTEM =  graphite                                
 POSCAR =  C                                       

 Startparameter for this run:
   NWRITE =      2    write-flag & timer
   PREC   = accura    normal or accurate (medium, high low for compatibility)
   ISTART =      0    job   : 0-new  1-cont  2-samecut
   ICHARG =      2    charge: 1-file 2-atom 10-const
   ISPIN  =      1    spin polarized calculation?
   LNONCOLLINEAR =      F non collinear calculations
   LSORBIT =      F    spin-orbit coupling
   INIWAV =      1    electr: 0-lowe 1-rand  2-diag
   LASPH  =      F    aspherical Exc in radial PAW
   METAGGA=      F    non-selfconsistent MetaGGA calc.

 Electronic Relaxation 1
   ENCUT  =  600.0 eV  44.10 Ry    6.64 a.u.   9.85  9.85 24.64*2*pi/ulx,y,z
   ENINI  =  600.0     initial cutoff
   ENAUG  =  644.9 eV  augmentation charge cutoff
   NELM   =    200;   NELMIN=  2; NELMDL=  0     # of ELM steps 
   EDIFF  = 0.1E-05   stopping-criterion for ELM
   LREAL  =      F    real-space projection
   NLSPLINE    = F    spline interpolate recip. space projectors
   LCOMPAT=      F    compatible to vasp.4.4
   GGA_COMPAT  = T    GGA compatible to vasp.4.4-vasp.4.6
   LMAXPAW     = -100 max onsite density
   LMAXMIX     =    2 max onsite mixed and CHGCAR
   VOSKOWN=      0    Vosko Wilk Nusair interpolation
   ROPT   =    0.00000
 Ionic relaxation
   EDIFFG = 0.1E-02   stopping-criterion for IOM
   NSW    =      0    number of steps for IOM
   NBLOCK =      1;   KBLOCK =      1    inner block; outer block 
   IBRION =     -1    ionic relax: 0-MD 1-quasi-New 2-CG
   NFREE  =      0    steps in history (QN), initial steepest desc. (CG)
   ISIF   =      2    stress and relaxation
   IWAVPR =     10    prediction:  0-non 1-charg 2-wave 3-comb
   ISYM   =      2    0-nonsym 1-usesym 2-fastsym
   LCORR  =      T    Harris-Foulkes like correction to forces

   POTIM  = 0.5000    time-step for ionic-motion
   TEIN   =    0.0    initial temperature
   TEBEG  =    0.0;   TEEND  =   0.0 temperature during run
   SMASS  =  -3.00    Nose mass-parameter (am)
   estimated Nose-frequenzy (Omega)   =  0.10E-29 period in steps =****** mass=  -0.556E-27a.u.
   SCALEE = 1.0000    scale energy and forces
   NPACO  =    256;   APACO  = 16.0  distance and # of slots for P.C.
   PSTRESS=    0.0 pullay stress

  Mass of Ions in am
   POMASS =  12.01
  Ionic Valenz
   ZVAL   =   4.00
  Atomic Wigner-Seitz radii
   RWIGS  =  -1.00
  virtual crystal weights 
   VCA    =   1.00
   NELECT =     128.0000    total number of electrons
   NUPDOWN=      -1.0000    fix difference up-down

 DOS related values:
   EMIN   =  10.00;   EMAX   =-10.00  energy-range for DOS
   EFERMI =   0.00
   ISMEAR =    -5;   SIGMA  =   0.20  broadening in eV -4-tet -1-fermi 0-gaus

 Electronic relaxation 2 (details)
   IALGO  =     38    algorithm
   LDIAG  =      T    sub-space diagonalisation (order eigenvalues)
   LSUBROT=      F    optimize rotation matrix (better conditioning)
   TURBO    =      0    0=normal 1=particle mesh
   IRESTART =      0    0=no restart 2=restart with 2 vectors
   NREBOOT  =      0    no. of reboots
   NMIN     =      0    reboot dimension
   EREF     =   0.00    reference energy to select bands
   IMIX   =      4    mixing-type and parameters
     AMIX     =   0.40;   BMIX     =  1.00
     AMIX_MAG =   1.60;   BMIX_MAG =  1.00
     AMIN     =   0.10
     WC   =   100.;   INIMIX=   1;  MIXPRE=   1;  MAXMIX= -45

 Intra band minimization:
   WEIMIN = 0.0000     energy-eigenvalue tresh-hold
   EBREAK =  0.30E-08  absolut break condition
   DEPER  =   0.30     relativ break condition  

   TIME   =   0.40     timestep for ELM

  volume/ion in A,a.u.               =       8.12        54.79
  Fermi-wavevector in a.u.,A,eV,Ry     =   1.292962  2.443345 22.745567  1.671752
  Thomas-Fermi vector in A             =   2.424638
 
 Write flags
   LWAVE  =      F    write WAVECAR
   LCHARG =      F    write CHGCAR
   LVTOT  =      F    write LOCPOT, total local potential
   LVHAR  =      F    write LOCPOT, Hartree potential only
   LELF   =      F    write electronic localiz. function (ELF)
   LORBIT =      0    0 simple, 1 ext, 2 COOP (PROOUT)


 Dipole corrections
   LMONO  =      F    monopole corrections only (constant potential shift)
   LDIPOL =      F    correct potential (dipole corrections)
   IDIPOL =      0    1-x, 2-y, 3-z, 4-all directions 
   EPSILON=  1.0000000 bulk dielectric constant

 Exchange correlation treatment:
   GGA     =    PE    GGA type
   LEXCH   =     8    internal setting for exchange type
   VOSKOWN=      0    Vosko Wilk Nusair interpolation
   LHFCALC =     F    Hartree Fock is set to
   LHFONE  =     F    Hartree Fock one center treatment
   AEXX    =    0.0000 exact exchange contribution

 Linear response parameters
   LEPSILON=     F    determine dielectric tensor
   LRPA    =     F    only Hartree local field effects (RPA)
   LNABLA  =     F    use nabla operator in PAW spheres
   LVEL    =     F    velocity operator in full k-point grid
   LINTERFAST=   F  fast interpolation
   KINTER  =     0    interpolate to denser k-point grid
   CSHIFT  =0.1000    complex shift for real part using Kramers Kronig
   OMEGAMAX=  -1.0    maximum frequency
   DEG_THRESHOLD= 0.2000000E-02 threshold for treating states as degnerate
   RTIME   =    0.100 relaxation time in fs

 Orbital magnetization related:
   ORBITALMAG=     F  switch on orbital magnetization
   LCHIMAG   =     F  perturbation theory with respect to B field
   DQ        =  0.001000  dq finite difference perturbation B field



--------------------------------------------------------------------------------------------------------


 Static calculation
 charge density and potential will be updated during run
 non-spin polarized calculation
 Variant of blocked Davidson
 Davidson routine will perform the subspace rotation
 perform sub-space diagonalisation
    after iterative eigenvector-optimisation
 modified Broyden-mixing scheme, WC =      100.0
 initial mixing is a Kerker type mixing with AMIX =  0.4000 and BMIX =      1.0000
 Hartree-type preconditioning will be used
 using additional bands           20
 reciprocal scheme for non local part
 calculate Harris-corrections to forces 
   (improved forces if not selfconsistent)
 use gradient corrections 
 use of overlap-Matrix (Vanderbilt PP)
 Fermi weights with tetrahedron method with Bloechl corrections


--------------------------------------------------------------------------------------------------------


  energy-cutoff  :      600.00
  volume of cell :      259.82
      direct lattice vectors                 reciprocal lattice vectors
     4.932874498 -0.001919286  0.000000000     0.202767147  0.117172881  0.000000000
    -2.468099399  4.271034986  0.000000000     0.000091118  0.234187941  0.000000000
     0.000000000  0.000000000 12.335056354     0.000000000  0.000000000  0.081069755

  length of vectors
     4.932874871  4.932874871 12.335056354     0.234187958  0.234187958  0.081069755


 
 k-points in units of 2pi/SCALE and weight: B4C B11C-CBC                            
   0.00000000  0.00000000  0.00000000       0.003
   0.02252968  0.01301921  0.00000000       0.006
   0.04505937  0.02603842  0.00000000       0.006
   0.06758905  0.03905763  0.00000000       0.006
   0.09011873  0.05207684  0.00000000       0.006
   0.00001012  0.02602088  0.00000000       0.006
   0.02253981  0.03904009  0.00000000       0.006
   0.04506949  0.05205930  0.00000000       0.006
   0.06759917  0.06507851  0.00000000       0.006
   0.09012886  0.07809772  0.00000000       0.006
  -0.09010861 -0.02605595  0.00000000       0.006
  -0.06757892 -0.01303674  0.00000000       0.006
  -0.04504924 -0.00001754  0.00000000       0.006
  -0.02251956  0.01300167  0.00000000       0.006
   0.00002025  0.05204176  0.00000000       0.006
   0.02254993  0.06506097  0.00000000       0.006
   0.04507961  0.07808018  0.00000000       0.006
   0.06760930  0.09109939  0.00000000       0.006
   0.09013898  0.10411860  0.00000000       0.006
  -0.09009848 -0.00003507  0.00000000       0.006
  -0.06756880  0.01298414  0.00000000       0.006
  -0.04503912  0.02600335  0.00000000       0.006
  -0.02250943  0.03902256  0.00000000       0.006
   0.00003037  0.07806265  0.00000000       0.006
   0.02256006  0.09108186  0.00000000       0.006
   0.04508974  0.10410106  0.00000000       0.006
   0.06761942  0.11712027  0.00000000       0.006
   0.09014910  0.13013948  0.00000000       0.006
  -0.09008836  0.02598581  0.00000000       0.006
  -0.06755868  0.03900502  0.00000000       0.006
  -0.04502899  0.05202423  0.00000000       0.006
  -0.02249931  0.06504344  0.00000000       0.006
   0.00004050  0.10408353  0.00000000       0.006
   0.02257018  0.11710274  0.00000000       0.006
   0.04509986  0.13012195  0.00000000       0.006
   0.06762955  0.14314116  0.00000000       0.006
   0.09015923  0.15616037  0.00000000       0.006
  -0.09007824  0.05200669  0.00000000       0.006
  -0.06754855  0.06502590  0.00000000       0.006
  -0.04501887  0.07804511  0.00000000       0.006
  -0.02248919  0.09106432  0.00000000       0.006
   0.00000000  0.00000000  0.02026744       0.006
   0.02252968  0.01301921  0.02026744       0.006
   0.04505937  0.02603842  0.02026744       0.006
   0.06758905  0.03905763  0.02026744       0.006
   0.09011873  0.05207684  0.02026744       0.006
  -0.09011873 -0.05207684  0.02026744       0.006
  -0.06758905 -0.03905763  0.02026744       0.006
  -0.04505937 -0.02603842  0.02026744       0.006
  -0.02252968 -0.01301921  0.02026744       0.006
   0.00001012  0.02602088  0.02026744       0.006
   0.02253981  0.03904009  0.02026744       0.006
   0.04506949  0.05205930  0.02026744       0.006
   0.06759917  0.06507851  0.02026744       0.006
   0.09012886  0.07809772  0.02026744       0.006
  -0.09010861 -0.02605595  0.02026744       0.006
  -0.06757892 -0.01303674  0.02026744       0.006
  -0.04504924 -0.00001754  0.02026744       0.006
  -0.02251956  0.01300167  0.02026744       0.006
   0.00002025  0.05204176  0.02026744       0.006
   0.02254993  0.06506097  0.02026744       0.006
   0.04507961  0.07808018  0.02026744       0.006
   0.06760930  0.09109939  0.02026744       0.006
   0.09013898  0.10411860  0.02026744       0.006
  -0.09009848 -0.00003507  0.02026744       0.006
  -0.06756880  0.01298414  0.02026744       0.006
  -0.04503912  0.02600335  0.02026744       0.006
  -0.02250943  0.03902256  0.02026744       0.006
   0.00003037  0.07806265  0.02026744       0.006
   0.02256006  0.09108186  0.02026744       0.006
   0.04508974  0.10410106  0.02026744       0.006
   0.06761942  0.11712027  0.02026744       0.006
   0.09014910  0.13013948  0.02026744       0.006
  -0.09008836  0.02598581  0.02026744       0.006
  -0.06755868  0.03900502  0.02026744       0.006
  -0.04502899  0.05202423  0.02026744       0.006
  -0.02249931  0.06504344  0.02026744       0.006
   0.00004050  0.10408353  0.02026744       0.006
   0.02257018  0.11710274  0.02026744       0.006
   0.04509986  0.13012195  0.02026744       0.006
   0.06762955  0.14314116  0.02026744       0.006
   0.09015923  0.15616037  0.02026744       0.006
  -0.09007824  0.05200669  0.02026744       0.006
  -0.06754855  0.06502590  0.02026744       0.006
  -0.04501887  0.07804511  0.02026744       0.006
  -0.02248919  0.09106432  0.02026744       0.006
  -0.00004050 -0.10408353  0.02026744       0.006
   0.02248919 -0.09106432  0.02026744       0.006
   0.04501887 -0.07804511  0.02026744       0.006
   0.06754855 -0.06502590  0.02026744       0.006
   0.09007824 -0.05200669  0.02026744       0.006
  -0.09015923 -0.15616037  0.02026744       0.006
  -0.06762955 -0.14314116  0.02026744       0.006
  -0.04509986 -0.13012195  0.02026744       0.006
  -0.02257018 -0.11710274  0.02026744       0.006
  -0.00003037 -0.07806265  0.02026744       0.006
   0.02249931 -0.06504344  0.02026744       0.006
   0.04502899 -0.05202423  0.02026744       0.006
   0.06755868 -0.03900502  0.02026744       0.006
   0.09008836 -0.02598581  0.02026744       0.006
  -0.09014910 -0.13013948  0.02026744       0.006
  -0.06761942 -0.11712027  0.02026744       0.006
  -0.04508974 -0.10410106  0.02026744       0.006
  -0.02256006 -0.09108186  0.02026744       0.006
  -0.00002025 -0.05204176  0.02026744       0.006
   0.02250943 -0.03902256  0.02026744       0.006
   0.04503912 -0.02600335  0.02026744       0.006
   0.06756880 -0.01298414  0.02026744       0.006
   0.09009848  0.00003507  0.02026744       0.006
  -0.09013898 -0.10411860  0.02026744       0.006
  -0.06760930 -0.09109939  0.02026744       0.006
  -0.04507961 -0.07808018  0.02026744       0.006
  -0.02254993 -0.06506097  0.02026744       0.006
  -0.00001012 -0.02602088  0.02026744       0.006
   0.02251956 -0.01300167  0.02026744       0.006
   0.04504924  0.00001754  0.02026744       0.006
   0.06757892  0.01303674  0.02026744       0.006
   0.09010861  0.02605595  0.02026744       0.006
  -0.09012886 -0.07809772  0.02026744       0.006
  -0.06759917 -0.06507851  0.02026744       0.006
  -0.04506949 -0.05205930  0.02026744       0.006
  -0.02253981 -0.03904009  0.02026744       0.006
   0.00000000  0.00000000  0.04053488       0.003
   0.02252968  0.01301921  0.04053488       0.006
   0.04505937  0.02603842  0.04053488       0.006
   0.06758905  0.03905763  0.04053488       0.006
   0.09011873  0.05207684  0.04053488       0.006
   0.00001012  0.02602088  0.04053488       0.006
   0.02253981  0.03904009  0.04053488       0.006
   0.04506949  0.05205930  0.04053488       0.006
   0.06759917  0.06507851  0.04053488       0.006
   0.09012886  0.07809772  0.04053488       0.006
  -0.09010861 -0.02605595  0.04053488       0.006
  -0.06757892 -0.01303674  0.04053488       0.006
  -0.04504924 -0.00001754  0.04053488       0.006
  -0.02251956  0.01300167  0.04053488       0.006
   0.00002025  0.05204176  0.04053488       0.006
   0.02254993  0.06506097  0.04053488       0.006
   0.04507961  0.07808018  0.04053488       0.006
   0.06760930  0.09109939  0.04053488       0.006
   0.09013898  0.10411860  0.04053488       0.006
  -0.09009848 -0.00003507  0.04053488       0.006
  -0.06756880  0.01298414  0.04053488       0.006
  -0.04503912  0.02600335  0.04053488       0.006
  -0.02250943  0.03902256  0.04053488       0.006
   0.00003037  0.07806265  0.04053488       0.006
   0.02256006  0.09108186  0.04053488       0.006
   0.04508974  0.10410106  0.04053488       0.006
   0.06761942  0.11712027  0.04053488       0.006
   0.09014910  0.13013948  0.04053488       0.006
  -0.09008836  0.02598581  0.04053488       0.006
  -0.06755868  0.03900502  0.04053488       0.006
  -0.04502899  0.05202423  0.04053488       0.006
  -0.02249931  0.06504344  0.04053488       0.006
   0.00004050  0.10408353  0.04053488       0.006
   0.02257018  0.11710274  0.04053488       0.006
   0.04509986  0.13012195  0.04053488       0.006
   0.06762955  0.14314116  0.04053488       0.006
   0.09015923  0.15616037  0.04053488       0.006
  -0.09007824  0.05200669  0.04053488       0.006
  -0.06754855  0.06502590  0.04053488       0.006
  -0.04501887  0.07804511  0.04053488       0.006
  -0.02248919  0.09106432  0.04053488       0.006
 
 k-points in reciprocal lattice and weights: B4C B11C-CBC                            
   0.00000000  0.00000000  0.00000000       0.003
   0.11111111  0.00000000  0.00000000       0.006
   0.22222222  0.00000000  0.00000000       0.006
   0.33333333 -0.00000000  0.00000000       0.006
   0.44444444  0.00000000  0.00000000       0.006
   0.00000000  0.11111111  0.00000000       0.006
   0.11111111  0.11111111  0.00000000       0.006
   0.22222222  0.11111111  0.00000000       0.006
   0.33333333  0.11111111  0.00000000       0.006
   0.44444444  0.11111111  0.00000000       0.006
  -0.44444444  0.11111111  0.00000000       0.006
  -0.33333333  0.11111111  0.00000000       0.006
  -0.22222222  0.11111111  0.00000000       0.006
  -0.11111111  0.11111111  0.00000000       0.006
   0.00000000  0.22222222  0.00000000       0.006
   0.11111111  0.22222222  0.00000000       0.006
   0.22222222  0.22222222  0.00000000       0.006
   0.33333333  0.22222222  0.00000000       0.006
   0.44444444  0.22222222  0.00000000       0.006
  -0.44444444  0.22222222  0.00000000       0.006
  -0.33333333  0.22222222  0.00000000       0.006
  -0.22222222  0.22222222  0.00000000       0.006
  -0.11111111  0.22222222  0.00000000       0.006
  -0.00000000  0.33333333  0.00000000       0.006
   0.11111111  0.33333333  0.00000000       0.006
   0.22222222  0.33333333  0.00000000       0.006
   0.33333333  0.33333333  0.00000000       0.006
   0.44444444  0.33333333  0.00000000       0.006
  -0.44444444  0.33333333  0.00000000       0.006
  -0.33333333  0.33333333  0.00000000       0.006
  -0.22222222  0.33333333  0.00000000       0.006
  -0.11111111  0.33333333  0.00000000       0.006
   0.00000000  0.44444444  0.00000000       0.006
   0.11111111  0.44444444  0.00000000       0.006
   0.22222222  0.44444444  0.00000000       0.006
   0.33333333  0.44444444  0.00000000       0.006
   0.44444444  0.44444444  0.00000000       0.006
  -0.44444444  0.44444444  0.00000000       0.006
  -0.33333333  0.44444444  0.00000000       0.006
  -0.22222222  0.44444444  0.00000000       0.006
  -0.11111111  0.44444444  0.00000000       0.006
   0.00000000  0.00000000  0.25000000       0.006
   0.11111111  0.00000000  0.25000000       0.006
   0.22222222  0.00000000  0.25000000       0.006
   0.33333333 -0.00000000  0.25000000       0.006
   0.44444444  0.00000000  0.25000000       0.006
  -0.44444444 -0.00000000  0.25000000       0.006
  -0.33333333  0.00000000  0.25000000       0.006
  -0.22222222 -0.00000000  0.25000000       0.006
  -0.11111111  0.00000000  0.25000000       0.006
   0.00000000  0.11111111  0.25000000       0.006
   0.11111111  0.11111111  0.25000000       0.006
   0.22222222  0.11111111  0.25000000       0.006
   0.33333333  0.11111111  0.25000000       0.006
   0.44444444  0.11111111  0.25000000       0.006
  -0.44444444  0.11111111  0.25000000       0.006
  -0.33333333  0.11111111  0.25000000       0.006
  -0.22222222  0.11111111  0.25000000       0.006
  -0.11111111  0.11111111  0.25000000       0.006
   0.00000000  0.22222222  0.25000000       0.006
   0.11111111  0.22222222  0.25000000       0.006
   0.22222222  0.22222222  0.25000000       0.006
   0.33333333  0.22222222  0.25000000       0.006
   0.44444444  0.22222222  0.25000000       0.006
  -0.44444444  0.22222222  0.25000000       0.006
  -0.33333333  0.22222222  0.25000000       0.006
  -0.22222222  0.22222222  0.25000000       0.006
  -0.11111111  0.22222222  0.25000000       0.006
  -0.00000000  0.33333333  0.25000000       0.006
   0.11111111  0.33333333  0.25000000       0.006
   0.22222222  0.33333333  0.25000000       0.006
   0.33333333  0.33333333  0.25000000       0.006
   0.44444444  0.33333333  0.25000000       0.006
  -0.44444444  0.33333333  0.25000000       0.006
  -0.33333333  0.33333333  0.25000000       0.006
  -0.22222222  0.33333333  0.25000000       0.006
  -0.11111111  0.33333333  0.25000000       0.006
   0.00000000  0.44444444  0.25000000       0.006
   0.11111111  0.44444444  0.25000000       0.006
   0.22222222  0.44444444  0.25000000       0.006
   0.33333333  0.44444444  0.25000000       0.006
   0.44444444  0.44444444  0.25000000       0.006
  -0.44444444  0.44444444  0.25000000       0.006
  -0.33333333  0.44444444  0.25000000       0.006
  -0.22222222  0.44444444  0.25000000       0.006
  -0.11111111  0.44444444  0.25000000       0.006
   0.00000000 -0.44444444  0.25000000       0.006
   0.11111111 -0.44444444  0.25000000       0.006
   0.22222222 -0.44444444  0.25000000       0.006
   0.33333333 -0.44444444  0.25000000       0.006
   0.44444444 -0.44444444  0.25000000       0.006
  -0.44444444 -0.44444444  0.25000000       0.006
  -0.33333333 -0.44444444  0.25000000       0.006
  -0.22222222 -0.44444444  0.25000000       0.006
  -0.11111111 -0.44444444  0.25000000       0.006
   0.00000000 -0.33333333  0.25000000       0.006
   0.11111111 -0.33333333  0.25000000       0.006
   0.22222222 -0.33333333  0.25000000       0.006
   0.33333333 -0.33333333  0.25000000       0.006
   0.44444444 -0.33333333  0.25000000       0.006
  -0.44444444 -0.33333333  0.25000000       0.006
  -0.33333333 -0.33333333  0.25000000       0.006
  -0.22222222 -0.33333333  0.25000000       0.006
  -0.11111111 -0.33333333  0.25000000       0.006
   0.00000000 -0.22222222  0.25000000       0.006
   0.11111111 -0.22222222  0.25000000       0.006
   0.22222222 -0.22222222  0.25000000       0.006
   0.33333333 -0.22222222  0.25000000       0.006
   0.44444444 -0.22222222  0.25000000       0.006
  -0.44444444 -0.22222222  0.25000000       0.006
  -0.33333333 -0.22222222  0.25000000       0.006
  -0.22222222 -0.22222222  0.25000000       0.006
  -0.11111111 -0.22222222  0.25000000       0.006
   0.00000000 -0.11111111  0.25000000       0.006
   0.11111111 -0.11111111  0.25000000       0.006
   0.22222222 -0.11111111  0.25000000       0.006
   0.33333333 -0.11111111  0.25000000       0.006
   0.44444444 -0.11111111  0.25000000       0.006
  -0.44444444 -0.11111111  0.25000000       0.006
  -0.33333333 -0.11111111  0.25000000       0.006
  -0.22222222 -0.11111111  0.25000000       0.006
  -0.11111111 -0.11111111  0.25000000       0.006
   0.00000000  0.00000000  0.50000000       0.003
   0.11111111  0.00000000  0.50000000       0.006
   0.22222222  0.00000000  0.50000000       0.006
   0.33333333 -0.00000000  0.50000000       0.006
   0.44444444  0.00000000  0.50000000       0.006
   0.00000000  0.11111111  0.50000000       0.006
   0.11111111  0.11111111  0.50000000       0.006
   0.22222222  0.11111111  0.50000000       0.006
   0.33333333  0.11111111  0.50000000       0.006
   0.44444444  0.11111111  0.50000000       0.006
  -0.44444444  0.11111111  0.50000000       0.006
  -0.33333333  0.11111111  0.50000000       0.006
  -0.22222222  0.11111111  0.50000000       0.006
  -0.11111111  0.11111111  0.50000000       0.006
   0.00000000  0.22222222  0.50000000       0.006
   0.11111111  0.22222222  0.50000000       0.006
   0.22222222  0.22222222  0.50000000       0.006
   0.33333333  0.22222222  0.50000000       0.006
   0.44444444  0.22222222  0.50000000       0.006
  -0.44444444  0.22222222  0.50000000       0.006
  -0.33333333  0.22222222  0.50000000       0.006
  -0.22222222  0.22222222  0.50000000       0.006
  -0.11111111  0.22222222  0.50000000       0.006
  -0.00000000  0.33333333  0.50000000       0.006
   0.11111111  0.33333333  0.50000000       0.006
   0.22222222  0.33333333  0.50000000       0.006
   0.33333333  0.33333333  0.50000000       0.006
   0.44444444  0.33333333  0.50000000       0.006
  -0.44444444  0.33333333  0.50000000       0.006
  -0.33333333  0.33333333  0.50000000       0.006
  -0.22222222  0.33333333  0.50000000       0.006
  -0.11111111  0.33333333  0.50000000       0.006
   0.00000000  0.44444444  0.50000000       0.006
   0.11111111  0.44444444  0.50000000       0.006
   0.22222222  0.44444444  0.50000000       0.006
   0.33333333  0.44444444  0.50000000       0.006
   0.44444444  0.44444444  0.50000000       0.006
  -0.44444444  0.44444444  0.50000000       0.006
  -0.33333333  0.44444444  0.50000000       0.006
  -0.22222222  0.44444444  0.50000000       0.006
  -0.11111111  0.44444444  0.50000000       0.006
 
 position of ions in fractional coordinates (direct lattice) 
   0.50042604  0.00032672  0.12575274
   0.99967330  0.00032672  0.12500000
   0.49967330  0.50032672  0.12500000
   0.99967330  0.50032672  0.12500000
   0.49967330  0.00032672  0.62500000
   0.99967330  0.00032672  0.62500000
   0.49967330  0.50032672  0.62500000
   0.99967330  0.50032672  0.62500000
   0.00032672  0.49967330  0.37500000
   0.50032672  0.49967330  0.37500000
   0.00032672  0.99967330  0.37500000
   0.50032672  0.99967330  0.37500000
   0.00032672  0.49967330  0.87500000
   0.50032672  0.49967330  0.87500000
   0.00032672  0.99967330  0.87500000
   0.50032672  0.99967330  0.87500000
   0.16629246  0.33370753  0.12500000
   0.66629246  0.33370753  0.12500000
   0.16629246  0.83370753  0.12500000
   0.66629246  0.83370753  0.12500000
   0.16629246  0.33370753  0.62500000
   0.66629246  0.33370753  0.62500000
   0.16629246  0.83370753  0.62500000
   0.66629246  0.83370753  0.62500000
   0.33370753  0.16629246  0.37500000
   0.83370753  0.16629246  0.37500000
   0.33370753  0.66629246  0.37500000
   0.83370753  0.66629246  0.37500000
   0.33370753  0.16629246  0.87500000
   0.83370753  0.16629246  0.87500000
   0.33370753  0.66629246  0.87500000
   0.83370753  0.66629246  0.87500000
 
 position of ions in cartesian coordinates  (Angst):
   2.46773249  0.00043497  1.55116711
   4.93045658 -0.00052323  1.54188204
   1.22996963  2.13595390  1.54188204
   3.69640688  2.13499426  1.54188204
   2.46401933  0.00043641  7.70941022
   4.93045658 -0.00052323  7.70941022
   1.22996963  2.13595390  7.70941022
   3.69640688  2.13499426  7.70941022
  -1.23163172  2.13412154  4.62564613
   1.23480553  2.13316189  4.62564613
  -2.46568142  4.26963903  4.62564613
   0.00075583  4.26867939  4.62564613
  -1.23163172  2.13412154 10.79317431
   1.23480553  2.13316189 10.79317431
  -2.46568142  4.26963903 10.79317431
   0.00075583  4.26867939 10.79317431
  -0.00332350  1.42495737  1.54188204
   2.46311374  1.42399773  1.54188204
  -1.23737320  3.56047486  1.54188204
   1.22906405  3.55951522  1.54188204
  -0.00332350  1.42495737  7.70941022
   2.46311374  1.42399773  7.70941022
  -1.23737320  3.56047486  7.70941022
   1.22906405  3.55951522  7.70941022
   1.23571103  0.70960044  4.62564613
   3.70214828  0.70864080  4.62564613
   0.00166133  2.84511794  4.62564613
   2.46809858  2.84415829  4.62564613
   1.23571103  0.70960044 10.79317431
   3.70214828  0.70864080 10.79317431
   0.00166133  2.84511794 10.79317431
   2.46809858  2.84415829 10.79317431
 


--------------------------------------------------------------------------------------------------------


 k-point  1 :   0.0000 0.0000 0.0000  plane waves:    8629
 k-point  2 :   0.1111 0.0000 0.0000  plane waves:    8647
 k-point  3 :   0.2222 0.0000 0.0000  plane waves:    8683
 k-point  4 :   0.3333-0.0000 0.0000  plane waves:    8699
 k-point  5 :   0.4444 0.0000 0.0000  plane waves:    8699
 k-point  6 :   0.0000 0.1111 0.0000  plane waves:    8647
 k-point  7 :   0.1111 0.1111 0.0000  plane waves:    8672
 k-point  8 :   0.2222 0.1111 0.0000  plane waves:    8656
 k-point  9 :   0.3333 0.1111 0.0000  plane waves:    8688
 k-point 10 :   0.4444 0.1111 0.0000  plane waves:    8670
 k-point 11 :  -0.4444 0.1111 0.0000  plane waves:    8692
 k-point 12 :  -0.3333 0.1111 0.0000  plane waves:    8654
 k-point 13 :  -0.2222 0.1111 0.0000  plane waves:    8672
 k-point 14 :  -0.1111 0.1111 0.0000  plane waves:    8647
 k-point 15 :   0.0000 0.2222 0.0000  plane waves:    8683
 k-point 16 :   0.1111 0.2222 0.0000  plane waves:    8656
 k-point 17 :   0.2222 0.2222 0.0000  plane waves:    8658
 k-point 18 :   0.3333 0.2222 0.0000  plane waves:    8666
 k-point 19 :   0.4444 0.2222 0.0000  plane waves:    8664
 k-point 20 :  -0.4444 0.2222 0.0000  plane waves:    8650
 k-point 21 :  -0.3333 0.2222 0.0000  plane waves:    8658
 k-point 22 :  -0.2222 0.2222 0.0000  plane waves:    8681
 k-point 23 :  -0.1111 0.2222 0.0000  plane waves:    8672
 k-point 24 :  -0.0000 0.3333 0.0000  plane waves:    8699
 k-point 25 :   0.1111 0.3333 0.0000  plane waves:    8688
 k-point 26 :   0.2222 0.3333 0.0000  plane waves:    8666
 k-point 27 :   0.3333 0.3333 0.0000  plane waves:    8660
 k-point 28 :   0.4444 0.3333 0.0000  plane waves:    8666
 k-point 29 :  -0.4444 0.3333 0.0000  plane waves:    8688
 k-point 30 :  -0.3333 0.3333 0.0000  plane waves:    8689
 k-point 31 :  -0.2222 0.3333 0.0000  plane waves:    8658
 k-point 32 :  -0.1111 0.3333 0.0000  plane waves:    8654
 k-point 33 :   0.0000 0.4444 0.0000  plane waves:    8699
 k-point 34 :   0.1111 0.4444 0.0000  plane waves:    8670
 k-point 35 :   0.2222 0.4444 0.0000  plane waves:    8664
 k-point 36 :   0.3333 0.4444 0.0000  plane waves:    8666
 k-point 37 :   0.4444 0.4444 0.0000  plane waves:    8672
 k-point 38 :  -0.4444 0.4444 0.0000  plane waves:    8701
 k-point 39 :  -0.3333 0.4444 0.0000  plane waves:    8688
 k-point 40 :  -0.2222 0.4444 0.0000  plane waves:    8650
 k-point 41 :  -0.1111 0.4444 0.0000  plane waves:    8692
 k-point 42 :   0.0000 0.0000 0.2500  plane waves:    8637
 k-point 43 :   0.1111 0.0000 0.2500  plane waves:    8645
 k-point 44 :   0.2222 0.0000 0.2500  plane waves:    8666
 k-point 45 :   0.3333-0.0000 0.2500  plane waves:    8669
 k-point 46 :   0.4444 0.0000 0.2500  plane waves:    8693
 k-point 47 :  -0.4444-0.0000 0.2500  plane waves:    8693
 k-point 48 :  -0.3333 0.0000 0.2500  plane waves:    8669
 k-point 49 :  -0.2222-0.0000 0.2500  plane waves:    8666
 k-point 50 :  -0.1111 0.0000 0.2500  plane waves:    8645
 k-point 51 :   0.0000 0.1111 0.2500  plane waves:    8645
 k-point 52 :   0.1111 0.1111 0.2500  plane waves:    8653
 k-point 53 :   0.2222 0.1111 0.2500  plane waves:    8672
 k-point 54 :   0.3333 0.1111 0.2500  plane waves:    8673
 k-point 55 :   0.4444 0.1111 0.2500  plane waves:    8687
 k-point 56 :  -0.4444 0.1111 0.2500  plane waves:    8676
 k-point 57 :  -0.3333 0.1111 0.2500  plane waves:    8673
 k-point 58 :  -0.2222 0.1111 0.2500  plane waves:    8661
 k-point 59 :  -0.1111 0.1111 0.2500  plane waves:    8649
 k-point 60 :   0.0000 0.2222 0.2500  plane waves:    8666
 k-point 61 :   0.1111 0.2222 0.2500  plane waves:    8672
 k-point 62 :   0.2222 0.2222 0.2500  plane waves:    8669
 k-point 63 :   0.3333 0.2222 0.2500  plane waves:    8676
 k-point 64 :   0.4444 0.2222 0.2500  plane waves:    8677
 k-point 65 :  -0.4444 0.2222 0.2500  plane waves:    8667
 k-point 66 :  -0.3333 0.2222 0.2500  plane waves:    8675
 k-point 67 :  -0.2222 0.2222 0.2500  plane waves:    8666
 k-point 68 :  -0.1111 0.2222 0.2500  plane waves:    8661
 k-point 69 :  -0.0000 0.3333 0.2500  plane waves:    8669
 k-point 70 :   0.1111 0.3333 0.2500  plane waves:    8673
 k-point 71 :   0.2222 0.3333 0.2500  plane waves:    8676
 k-point 72 :   0.3333 0.3333 0.2500  plane waves:    8685
 k-point 73 :   0.4444 0.3333 0.2500  plane waves:    8680
 k-point 74 :  -0.4444 0.3333 0.2500  plane waves:    8673
 k-point 75 :  -0.3333 0.3333 0.2500  plane waves:    8672
 k-point 76 :  -0.2222 0.3333 0.2500  plane waves:    8675
 k-point 77 :  -0.1111 0.3333 0.2500  plane waves:    8673
 k-point 78 :   0.0000 0.4444 0.2500  plane waves:    8693
 k-point 79 :   0.1111 0.4444 0.2500  plane waves:    8687
 k-point 80 :   0.2222 0.4444 0.2500  plane waves:    8677
 k-point 81 :   0.3333 0.4444 0.2500  plane waves:    8680
 k-point 82 :   0.4444 0.4444 0.2500  plane waves:    8692
 k-point 83 :  -0.4444 0.4444 0.2500  plane waves:    8688
 k-point 84 :  -0.3333 0.4444 0.2500  plane waves:    8673
 k-point 85 :  -0.2222 0.4444 0.2500  plane waves:    8667
 k-point 86 :  -0.1111 0.4444 0.2500  plane waves:    8676
 k-point 87 :   0.0000-0.4444 0.2500  plane waves:    8693
 k-point 88 :   0.1111-0.4444 0.2500  plane waves:    8676
 k-point 89 :   0.2222-0.4444 0.2500  plane waves:    8667
 k-point 90 :   0.3333-0.4444 0.2500  plane waves:    8673
 k-point 91 :   0.4444-0.4444 0.2500  plane waves:    8688
 k-point 92 :  -0.4444-0.4444 0.2500  plane waves:    8692
 k-point 93 :  -0.3333-0.4444 0.2500  plane waves:    8680
 k-point 94 :  -0.2222-0.4444 0.2500  plane waves:    8677
 k-point 95 :  -0.1111-0.4444 0.2500  plane waves:    8687
 k-point 96 :   0.0000-0.3333 0.2500  plane waves:    8669
 k-point 97 :   0.1111-0.3333 0.2500  plane waves:    8673
 k-point 98 :   0.2222-0.3333 0.2500  plane waves:    8675
 k-point 99 :   0.3333-0.3333 0.2500  plane waves:    8672
 k-point ** :   0.4444-0.3333 0.2500  plane waves:    8673
 k-point ** :  -0.4444-0.3333 0.2500  plane waves:    8680
 k-point ** :  -0.3333-0.3333 0.2500  plane waves:    8685
 k-point ** :  -0.2222-0.3333 0.2500  plane waves:    8676
 k-point ** :  -0.1111-0.3333 0.2500  plane waves:    8673
 k-point ** :   0.0000-0.2222 0.2500  plane waves:    8666
 k-point ** :   0.1111-0.2222 0.2500  plane waves:    8661
 k-point ** :   0.2222-0.2222 0.2500  plane waves:    8666
 k-point ** :   0.3333-0.2222 0.2500  plane waves:    8675
 k-point ** :   0.4444-0.2222 0.2500  plane waves:    8667
 k-point ** :  -0.4444-0.2222 0.2500  plane waves:    8677
 k-point ** :  -0.3333-0.2222 0.2500  plane waves:    8676
 k-point ** :  -0.2222-0.2222 0.2500  plane waves:    8669
 k-point ** :  -0.1111-0.2222 0.2500  plane waves:    8672
 k-point ** :   0.0000-0.1111 0.2500  plane waves:    8645
 k-point ** :   0.1111-0.1111 0.2500  plane waves:    8649
 k-point ** :   0.2222-0.1111 0.2500  plane waves:    8661
 k-point ** :   0.3333-0.1111 0.2500  plane waves:    8673
 k-point ** :   0.4444-0.1111 0.2500  plane waves:    8676
 k-point ** :  -0.4444-0.1111 0.2500  plane waves:    8687
 k-point ** :  -0.3333-0.1111 0.2500  plane waves:    8673
 k-point ** :  -0.2222-0.1111 0.2500  plane waves:    8672
 k-point ** :  -0.1111-0.1111 0.2500  plane waves:    8653
 k-point ** :   0.0000 0.0000 0.5000  plane waves:    8606
 k-point ** :   0.1111 0.0000 0.5000  plane waves:    8652
 k-point ** :   0.2222 0.0000 0.5000  plane waves:    8652
 k-point ** :   0.3333-0.0000 0.5000  plane waves:    8682
 k-point ** :   0.4444 0.0000 0.5000  plane waves:    8672
 k-point ** :   0.0000 0.1111 0.5000  plane waves:    8652
 k-point ** :   0.1111 0.1111 0.5000  plane waves:    8646
 k-point ** :   0.2222 0.1111 0.5000  plane waves:    8678
 k-point ** :   0.3333 0.1111 0.5000  plane waves:    8678
 k-point ** :   0.4444 0.1111 0.5000  plane waves:    8700
 k-point ** :  -0.4444 0.1111 0.5000  plane waves:    8678
 k-point ** :  -0.3333 0.1111 0.5000  plane waves:    8680
 k-point ** :  -0.2222 0.1111 0.5000  plane waves:    8642
 k-point ** :  -0.1111 0.1111 0.5000  plane waves:    8658
 k-point ** :   0.0000 0.2222 0.5000  plane waves:    8652
 k-point ** :   0.1111 0.2222 0.5000  plane waves:    8678
 k-point ** :   0.2222 0.2222 0.5000  plane waves:    8684
 k-point ** :   0.3333 0.2222 0.5000  plane waves:    8690
 k-point ** :   0.4444 0.2222 0.5000  plane waves:    8684
 k-point ** :  -0.4444 0.2222 0.5000  plane waves:    8686
 k-point ** :  -0.3333 0.2222 0.5000  plane waves:    8678
 k-point ** :  -0.2222 0.2222 0.5000  plane waves:    8656
 k-point ** :  -0.1111 0.2222 0.5000  plane waves:    8642
 k-point ** :  -0.0000 0.3333 0.5000  plane waves:    8682
 k-point ** :   0.1111 0.3333 0.5000  plane waves:    8678
 k-point ** :   0.2222 0.3333 0.5000  plane waves:    8690
 k-point ** :   0.3333 0.3333 0.5000  plane waves:    8674
 k-point ** :   0.4444 0.3333 0.5000  plane waves:    8688
 k-point ** :  -0.4444 0.3333 0.5000  plane waves:    8678
 k-point ** :  -0.3333 0.3333 0.5000  plane waves:    8680
 k-point ** :  -0.2222 0.3333 0.5000  plane waves:    8678
 k-point ** :  -0.1111 0.3333 0.5000  plane waves:    8680
 k-point ** :   0.0000 0.4444 0.5000  plane waves:    8672
 k-point ** :   0.1111 0.4444 0.5000  plane waves:    8700
 k-point ** :   0.2222 0.4444 0.5000  plane waves:    8684
 k-point ** :   0.3333 0.4444 0.5000  plane waves:    8688
 k-point ** :   0.4444 0.4444 0.5000  plane waves:    8702
 k-point ** :  -0.4444 0.4444 0.5000  plane waves:    8672
 k-point ** :  -0.3333 0.4444 0.5000  plane waves:    8678
 k-point ** :  -0.2222 0.4444 0.5000  plane waves:    8686
 k-point ** :  -0.1111 0.4444 0.5000  plane waves:    8678

 maximum and minimum number of plane-waves per node :      8702     8606

 maximum number of plane-waves:      8702
 maximum index in each direction: 
   IXMAX=   10   IYMAX=   10   IZMAX=   24
   IXMIN=  -10   IYMIN=  -10   IZMIN=  -25

 WARNING: aliasing errors must be expected set NGX to  42 to avoid them
 WARNING: aliasing errors must be expected set NGY to  42 to avoid them
 NGZ is ok and might be reduce to 100
 aliasing errors are usually negligible using standard VASP settings
 and one can safely disregard these warnings

 serial   3D FFT for wavefunctions
 parallel 3D FFT for charge:
    minimum data exchange during FFTs selected (reduces bandwidth)


 total amount of memory used by VASP on root node   478060. kBytes
========================================================================

   base      :      30000. kBytes
   nonl-proj :      95278. kBytes
   fftplans  :       8142. kBytes
   grid      :      17249. kBytes
   one-center:         98. kBytes
   wavefun   :     327293. kBytes
 
     INWAV:  cpu time    0.00: real time    0.00
 Broyden mixing: mesh for mixing (old mesh)
   NGX = 19   NGY = 19   NGZ = 49
  (NGX  = 80   NGY  = 80   NGZ  =200)
  gives a total of  17689 points

 initial charge density was supplied:
 charge density of overlapping atoms calculated
 number of electron     128.0000000 magnetization 
 keeping initial charge density in first step


--------------------------------------------------------------------------------------------------------


 Maximum index for augmentation-charges         1440 (set IRDMAX)


--------------------------------------------------------------------------------------------------------


 First call to EWALD:  gamma=   0.278
 Maximum number of real-space cells 4x 4x 2
 Maximum number of reciprocal cells 2x 2x 5

 FEWALD executed in parallel
    FEWALD:  cpu time    0.00: real time    0.00


----------------------------------------- Iteration    1(   1)  ---------------------------------------


    POTLOK:  cpu time    0.41: real time    0.41
    SETDIJ:  cpu time    0.02: real time    0.02
     EDDAV:  cpu time  158.41: real time  158.50
 BZINTS: Fermi energy: 16.666136;128.000000 electrons
         Band energy: 143.694498;  BLOECHL correction: -0.118389
       DOS:  cpu time    0.21: real time    0.21
    --------------------------------------------
      LOOP:  cpu time  159.04: real time  159.15

 eigenvalue-minimisations  : 27384
 total energy-change (2. order) : 0.5561093E+03  (-0.7274327E+04)
 number of electron     128.0000000 magnetization 
 augmentation part      128.0000000 magnetization 

 Free energy of the ion-electron system (eV)
  ---------------------------------------------------
  alpha Z        PSCENC =       321.12578185
  Ewald energy   TEWEN  =     -4083.58624716
  -Hartree energ DENC   =      -941.65707730
  -exchange      EXHF   =         0.00000000
  -V(xc)+E(xc)   XCENC  =       444.53848254
  PAW double counting   =      1210.60617908    -1247.42152856
  entropy T*S    EENTRO =         0.00000000
  eigenvalues    EBANDS =       143.69449823
  atomic energy  EATOM  =      4708.80920826
  ---------------------------------------------------
  free energy    TOTEN  =       556.10929693 eV

  energy without entropy =      556.10929693  energy(sigma->0) =      556.10929693


--------------------------------------------------------------------------------------------------------




----------------------------------------- Iteration    1(   2)  ---------------------------------------


     EDDAV:  cpu time  179.77: real time  179.86
 BZINTS: Fermi energy:  4.791496;128.000000 electrons
         Band energy:-678.698299;  BLOECHL correction: -0.000771
       DOS:  cpu time    0.15: real time    0.16
    --------------------------------------------
      LOOP:  cpu time  179.93: real time  180.02

 eigenvalue-minimisations  : 33852
 total energy-change (2. order) :-0.8223928E+03  (-0.7919621E+03)
 number of electron     128.0000000 magnetization 
 augmentation part      128.0000000 magnetization 

 Free energy of the ion-electron system (eV)
  ---------------------------------------------------
  alpha Z        PSCENC =       321.12578185
  Ewald energy   TEWEN  =     -4083.58624716
  -Hartree energ DENC   =      -941.65707730
  -exchange      EXHF   =         0.00000000
  -V(xc)+E(xc)   XCENC  =       444.53848254
  PAW double counting   =      1210.60617908    -1247.42152856
  entropy T*S    EENTRO =         0.00000000
  eigenvalues    EBANDS =      -678.69829917
  atomic energy  EATOM  =      4708.80920826
  ---------------------------------------------------
  free energy    TOTEN  =      -266.28350047 eV

  energy without entropy =     -266.28350047  energy(sigma->0) =     -266.28350047


--------------------------------------------------------------------------------------------------------




----------------------------------------- Iteration    1(   3)  ---------------------------------------


     EDDAV:  cpu time  177.87: real time  177.96
 BZINTS: Fermi energy:  4.144159;128.000000 electrons
         Band energy:-723.757429;  BLOECHL correction: -0.000234
       DOS:  cpu time    0.13: real time    0.13
    --------------------------------------------
      LOOP:  cpu time  178.00: real time  178.10

 eigenvalue-minimisations  : 33324
 total energy-change (2. order) :-0.4505913E+02  (-0.4460165E+02)
 number of electron     128.0000000 magnetization 
 augmentation part      128.0000000 magnetization 

 Free energy of the ion-electron system (eV)
  ---------------------------------------------------
  alpha Z        PSCENC =       321.12578185
  Ewald energy   TEWEN  =     -4083.58624716
  -Hartree energ DENC   =      -941.65707730
  -exchange      EXHF   =         0.00000000
  -V(xc)+E(xc)   XCENC  =       444.53848254
  PAW double counting   =      1210.60617908    -1247.42152856
  entropy T*S    EENTRO =         0.00000000
  eigenvalues    EBANDS =      -723.75742948
  atomic energy  EATOM  =      4708.80920826
  ---------------------------------------------------
  free energy    TOTEN  =      -311.34263078 eV

  energy without entropy =     -311.34263078  energy(sigma->0) =     -311.34263078


--------------------------------------------------------------------------------------------------------




----------------------------------------- Iteration    1(   4)  ---------------------------------------


     EDDAV:  cpu time  180.15: real time  180.24
 BZINTS: Fermi energy:  4.124197;128.000000 electrons
         Band energy:-724.567040;  BLOECHL correction: -0.000003
       DOS:  cpu time    0.12: real time    0.12
    --------------------------------------------
      LOOP:  cpu time  180.27: real time  180.36

 eigenvalue-minimisations  : 34032
 total energy-change (2. order) :-0.8096108E+00  (-0.8082991E+00)
 number of electron     128.0000000 magnetization 
 augmentation part      128.0000000 magnetization 

 Free energy of the ion-electron system (eV)
  ---------------------------------------------------
  alpha Z        PSCENC =       321.12578185
  Ewald energy   TEWEN  =     -4083.58624716
  -Hartree energ DENC   =      -941.65707730
  -exchange      EXHF   =         0.00000000
  -V(xc)+E(xc)   XCENC  =       444.53848254
  PAW double counting   =      1210.60617908    -1247.42152856
  entropy T*S    EENTRO =         0.00000000
  eigenvalues    EBANDS =      -724.56704032
  atomic energy  EATOM  =      4708.80920826
  ---------------------------------------------------
  free energy    TOTEN  =      -312.15224162 eV

  energy without entropy =     -312.15224162  energy(sigma->0) =     -312.15224162


--------------------------------------------------------------------------------------------------------




----------------------------------------- Iteration    1(   5)  ---------------------------------------


     EDDAV:  cpu time  179.37: real time  179.46
 BZINTS: Fermi energy:  4.124144;128.000000 electrons
         Band energy:-724.589745;  BLOECHL correction: -0.000003
       DOS:  cpu time    0.13: real time    0.13
    CHARGE:  cpu time    6.62: real time    6.62
    MIXING:  cpu time    0.01: real time    0.01
    --------------------------------------------
      LOOP:  cpu time  186.13: real time  186.22

 eigenvalue-minimisations  : 34200
 total energy-change (2. order) :-0.2270418E-01  (-0.2269490E-01)
 number of electron     128.0000013 magnetization 
 augmentation part        3.3927528 magnetization 

 Broyden mixing:
  rms(total) = 0.22062E+01    rms(broyden)= 0.22059E+01
  rms(prec ) = 0.26615E+01
  weight for this iteration     100.00

 Free energy of the ion-electron system (eV)
  ---------------------------------------------------
  alpha Z        PSCENC =       321.12578185
  Ewald energy   TEWEN  =     -4083.58624716
  -Hartree energ DENC   =      -941.65707730
  -exchange      EXHF   =         0.00000000
  -V(xc)+E(xc)   XCENC  =       444.53848254
  PAW double counting   =      1210.60617908    -1247.42152856
  entropy T*S    EENTRO =         0.00000000
  eigenvalues    EBANDS =      -724.58974450
  atomic energy  EATOM  =      4708.80920826
  ---------------------------------------------------
  free energy    TOTEN  =      -312.17494580 eV

  energy without entropy =     -312.17494580  energy(sigma->0) =     -312.17494580


--------------------------------------------------------------------------------------------------------




----------------------------------------- Iteration    1(   6)  ---------------------------------------


    POTLOK:  cpu time    0.79: real time    0.79
    SETDIJ:  cpu time    0.01: real time    0.01
     EDDAV:  cpu time  166.19: real time  166.27
 BZINTS: Fermi energy:  4.793520;128.000000 electrons
         Band energy:-595.411654;  BLOECHL correction:  0.000000
       DOS:  cpu time    0.07: real time    0.07
    CHARGE:  cpu time    7.91: real time    7.91
    MIXING:  cpu time    0.01: real time    0.01
    --------------------------------------------
      LOOP:  cpu time  174.98: real time  175.07

 eigenvalue-minimisations  : 31296
 total energy-change (2. order) : 0.1401952E+02  (-0.1444703E+01)
 number of electron     128.0000012 magnetization 
 augmentation part        3.2399903 magnetization 

 Broyden mixing:
  rms(total) = 0.11561E+01    rms(broyden)= 0.11561E+01
  rms(prec ) = 0.13821E+01
  weight for this iteration     100.00

 eigenvalues of (default mixing * dielectric matrix)
  average eigenvalue GAMMA=   2.0357
  2.0357

 Free energy of the ion-electron system (eV)
  ---------------------------------------------------
  alpha Z        PSCENC =       321.12578185
  Ewald energy   TEWEN  =     -4083.58624716
  -Hartree energ DENC   =     -1062.08321056
  -exchange      EXHF   =         0.00000000
  -V(xc)+E(xc)   XCENC  =       452.71974602
  PAW double counting   =      1640.66099288    -1680.39004110
  entropy T*S    EENTRO =         0.00000000
  eigenvalues    EBANDS =      -595.41165375
  atomic energy  EATOM  =      4708.80920826
  ---------------------------------------------------
  free energy    TOTEN  =      -298.15542356 eV

  energy without entropy =     -298.15542356  energy(sigma->0) =     -298.15542356


--------------------------------------------------------------------------------------------------------




----------------------------------------- Iteration    1(   7)  ---------------------------------------


    POTLOK:  cpu time    0.40: real time    0.40
    SETDIJ:  cpu time    0.01: real time    0.02
     EDDAV:  cpu time  168.94: real time  169.02
 BZINTS: Fermi energy:  5.442512;128.000000 electrons
         Band energy:-465.132099;  BLOECHL correction:  0.000000
       DOS:  cpu time    0.05: real time    0.05
    CHARGE:  cpu time    7.90: real time    7.90
    MIXING:  cpu time    0.01: real time    0.01
    --------------------------------------------
      LOOP:  cpu time  177.31: real time  177.40

 eigenvalue-minimisations  : 31224
 total energy-change (2. order) : 0.4368625E+01  (-0.1470594E+01)
 number of electron     128.0000011 magnetization 
 augmentation part        3.0785277 magnetization 

 Broyden mixing:
  rms(total) = 0.18761E+00    rms(broyden)= 0.18754E+00
  rms(prec ) = 0.20236E+00
  weight for this iteration     100.00

 eigenvalues of (default mixing * dielectric matrix)
  average eigenvalue GAMMA=   2.1626
  2.0619  2.2633

 Free energy of the ion-electron system (eV)
  ---------------------------------------------------
  alpha Z        PSCENC =       321.12578185
  Ewald energy   TEWEN  =     -4083.58624716
  -Hartree energ DENC   =     -1194.84974516
  -exchange      EXHF   =         0.00000000
  -V(xc)+E(xc)   XCENC  =       461.95640824
  PAW double counting   =      2178.01073351    -2220.12083939
  entropy T*S    EENTRO =         0.00000000
  eigenvalues    EBANDS =      -465.13209892
  atomic energy  EATOM  =      4708.80920826
  ---------------------------------------------------
  free energy    TOTEN  =      -293.78679877 eV

  energy without entropy =     -293.78679877  energy(sigma->0) =     -293.78679877


--------------------------------------------------------------------------------------------------------




----------------------------------------- Iteration    1(   8)  ---------------------------------------


    POTLOK:  cpu time    0.40: real time    0.40
    SETDIJ:  cpu time    0.01: real time    0.02
     EDDAV:  cpu time  168.00: real time  168.08
 BZINTS: Fermi energy:  5.413967;128.000000 electrons
         Band energy:-468.492003;  BLOECHL correction:  0.000000
       DOS:  cpu time    0.06: real time    0.06
    CHARGE:  cpu time    7.83: real time    7.84
    MIXING:  cpu time    0.01: real time    0.01
    --------------------------------------------
      LOOP:  cpu time  176.32: real time  176.41

 eigenvalue-minimisations  : 30996
 total energy-change (2. order) :-0.4773208E-01  (-0.3342661E-01)
 number of electron     128.0000011 magnetization 
 augmentation part        3.0734775 magnetization 

 Broyden mixing:
  rms(total) = 0.23113E-01    rms(broyden)= 0.23096E-01
  rms(prec ) = 0.28439E-01
  weight for this iteration     100.00

 eigenvalues of (default mixing * dielectric matrix)
  average eigenvalue GAMMA=   1.8319
  1.0398  1.9413  2.5147

 Free energy of the ion-electron system (eV)
  ---------------------------------------------------
  alpha Z        PSCENC =       321.12578185
  Ewald energy   TEWEN  =     -4083.58624716
  -Hartree energ DENC   =     -1192.14466193
  -exchange      EXHF   =         0.00000000
  -V(xc)+E(xc)   XCENC  =       461.81822681
  PAW double counting   =      2215.36110762    -2256.72594368
  entropy T*S    EENTRO =         0.00000000
  eigenvalues    EBANDS =      -468.49200262
  atomic energy  EATOM  =      4708.80920826
  ---------------------------------------------------
  free energy    TOTEN  =      -293.83453085 eV

  energy without entropy =     -293.83453085  energy(sigma->0) =     -293.83453085


--------------------------------------------------------------------------------------------------------




----------------------------------------- Iteration    1(   9)  ---------------------------------------


    POTLOK:  cpu time    0.60: real time    0.60
    SETDIJ:  cpu time    0.01: real time    0.02
     EDDAV:  cpu time  177.99: real time  178.09
 BZINTS: Fermi energy:  5.421766;128.000000 electrons
         Band energy:-466.488878;  BLOECHL correction: -0.000000
       DOS:  cpu time    0.06: real time    0.06
    CHARGE:  cpu time    8.02: real time    8.03
    MIXING:  cpu time    0.01: real time    0.01
    --------------------------------------------
      LOOP:  cpu time  186.70: real time  186.80

 eigenvalue-minimisations  : 33624
 total energy-change (2. order) :-0.1606889E-02  (-0.1097588E-02)
 number of electron     128.0000011 magnetization 
 augmentation part        3.0698628 magnetization 

 Broyden mixing:
  rms(total) = 0.96747E-02    rms(broyden)= 0.96711E-02
  rms(prec ) = 0.11462E-01
  weight for this iteration     100.00

 eigenvalues of (default mixing * dielectric matrix)
  average eigenvalue GAMMA=   1.7805
  2.5474  1.9891  1.7007  0.8847

 Free energy of the ion-electron system (eV)
  ---------------------------------------------------
  alpha Z        PSCENC =       321.12578185
  Ewald energy   TEWEN  =     -4083.58624716
  -Hartree energ DENC   =     -1194.32527247
  -exchange      EXHF   =         0.00000000
  -V(xc)+E(xc)   XCENC  =       461.98270897
  PAW double counting   =      2225.53508400    -2266.88852325
  entropy T*S    EENTRO =         0.00000000
  eigenvalues    EBANDS =      -466.48887794
  atomic energy  EATOM  =      4708.80920826
  ---------------------------------------------------
  free energy    TOTEN  =      -293.83613774 eV

  energy without entropy =     -293.83613774  energy(sigma->0) =     -293.83613774


--------------------------------------------------------------------------------------------------------




----------------------------------------- Iteration    1(  10)  ---------------------------------------


    POTLOK:  cpu time    0.60: real time    0.60
    SETDIJ:  cpu time    0.01: real time    0.02
     EDDAV:  cpu time  175.24: real time  175.33
 BZINTS: Fermi energy:  5.428083;128.000000 electrons
         Band energy:-466.234026;  BLOECHL correction:  0.000000
       DOS:  cpu time    0.06: real time    0.06
    CHARGE:  cpu time    7.69: real time    7.69
    MIXING:  cpu time    0.01: real time    0.01
    --------------------------------------------
      LOOP:  cpu time  183.62: real time  183.72

 eigenvalue-minimisations  : 32700
 total energy-change (2. order) :-0.5159027E-03  (-0.1089186E-03)
 number of electron     128.0000011 magnetization 
 augmentation part        3.0695194 magnetization 

 Broyden mixing:
  rms(total) = 0.54685E-02    rms(broyden)= 0.54677E-02
  rms(prec ) = 0.66628E-02
  weight for this iteration     100.00

 eigenvalues of (default mixing * dielectric matrix)
  average eigenvalue GAMMA=   1.7736
  2.8008  2.5349  1.9058  0.9901  0.6364

 Free energy of the ion-electron system (eV)
  ---------------------------------------------------
[...]
     79      13.4252      0.00000
     80      13.4270      0.00000
     81      13.6646      0.00000
     82      13.6698      0.00000
     83      13.7178      0.00000
     84      13.7213      0.00000

 k-point   162 :      -0.2222    0.4444    0.5000
  band No.  band energies     occupation 
      1     -13.3427      2.00000
      2     -13.3422      2.00000
      3     -12.9676      2.00000
      4     -12.9671      2.00000
      5     -11.3991      2.00000
      6     -11.3974      2.00000
      7     -11.3926      2.00000
      8     -11.3911      2.00000
      9     -11.0658      2.00000
     10     -11.0642      2.00000
     11     -11.0593      2.00000
     12     -11.0577      2.00000
     13      -8.1098      2.00000
     14      -8.1081      2.00000
     15      -7.9645      2.00000
     16      -7.9627      2.00000
     17      -7.0988      2.00000
     18      -7.0953      2.00000
     19      -7.0179      2.00000
     20      -7.0142      2.00000
     21      -4.1334      2.00000
     22      -4.1301      2.00000
     23      -4.1226      2.00000
     24      -4.1208      2.00000
     25      -3.9569      2.00000
     26      -3.9537      2.00000
     27      -3.9468      2.00000
     28      -3.9448      2.00000
     29      -3.8199      2.00000
     30      -3.8177      2.00000
     31      -3.6701      2.00000
     32      -3.6679      2.00000
     33      -2.0355      2.00000
     34      -2.0339      2.00000
     35      -1.1856      2.00000
     36      -1.1841      2.00000
     37      -1.1711      2.00000
     38      -1.1684      2.00000
     39      -1.0827      2.00000
     40      -1.0814      2.00000
     41      -1.0683      2.00000
     42      -1.0651      2.00000
     43      -0.2365      2.00000
     44      -0.2315      2.00000
     45      -0.1727      2.00000
     46      -0.1684      2.00000
     47      -0.0513      2.00000
     48      -0.0491      2.00000
     49       0.2494      2.00000
     50       0.2513      2.00000
     51       0.2549      2.00000
     52       0.2567      2.00000
     53       0.7455      2.00000
     54       0.7499      2.00000
     55       0.7890      2.00000
     56       0.7945      2.00000
     57       2.0139      2.00000
     58       2.0159      2.00000
     59       2.0200      2.00000
     60       2.0221      2.00000
     61       3.6804      2.00000
     62       3.6836      2.00000
     63       4.4241      2.00000
     64       4.4272      2.00000
     65       6.7110      0.00000
     66       6.7142      0.00000
     67       6.7592      0.00000
     68       6.7642      0.00000
     69       9.7416      0.00000
     70       9.7451      0.00000
     71       9.7525      0.00000
     72       9.7548      0.00000
     73      10.5931      0.00000
     74      10.5963      0.00000
     75      10.5969      0.00000
     76      10.5994      0.00000
     77      12.5540      0.00000
     78      12.5558      0.00000
     79      13.9401      0.00000
     80      13.9472      0.00000
     81      14.1664      0.00000
     82      14.1703      0.00000
     83      14.2015      0.00000
     84      14.2177      0.00000

 k-point   163 :      -0.1111    0.4444    0.5000
  band No.  band energies     occupation 
      1     -13.2691      2.00000
      2     -13.2686      2.00000
      3     -12.8956      2.00000
      4     -12.8951      2.00000
      5     -11.9636      2.00000
      6     -11.9631      2.00000
      7     -11.6178      2.00000
      8     -11.6174      2.00000
      9     -10.6959      2.00000
     10     -10.6954      2.00000
     11     -10.3783      2.00000
     12     -10.3779      2.00000
     13      -8.8883      2.00000
     14      -8.8879      2.00000
     15      -8.6220      2.00000
     16      -8.6215      2.00000
     17      -6.3721      2.00000
     18      -6.3701      2.00000
     19      -6.1834      2.00000
     20      -6.1817      2.00000
     21      -4.7160      2.00000
     22      -4.7143      2.00000
     23      -4.5441      2.00000
     24      -4.5425      2.00000
     25      -3.7109      2.00000
     26      -3.7090      2.00000
     27      -3.5694      2.00000
     28      -3.5675      2.00000
     29      -3.4572      2.00000
     30      -3.4568      2.00000
     31      -3.2865      2.00000
     32      -3.2861      2.00000
     33      -2.2482      2.00000
     34      -2.2463      2.00000
     35      -2.1303      2.00000
     36      -2.1282      2.00000
     37      -1.9479      2.00000
     38      -1.9464      2.00000
     39      -0.5789      2.00000
     40      -0.5771      2.00000
     41      -0.4758      2.00000
     42      -0.4735      2.00000
     43      -0.4088      2.00000
     44      -0.4071      2.00000
     45      -0.3241      2.00000
     46      -0.3237      2.00000
     47      -0.2385      2.00000
     48      -0.2381      2.00000
     49       0.0282      2.00000
     50       0.0303      2.00000
     51       0.8114      2.00000
     52       0.8131      2.00000
     53       0.8784      2.00000
     54       0.8800      2.00000
     55       1.0584      2.00000
     56       1.0601      2.00000
     57       1.4287      2.00000
     58       1.4306      2.00000
     59       2.7229      2.00000
     60       2.7249      2.00000
     61       3.0280      2.00000
     62       3.0301      2.00000
     63       4.2533      2.00000
     64       4.2558      2.00000
     65       6.8672      0.00000
     66       6.8706      0.00000
     67       7.5253      0.00000
     68       7.5277      0.00000
     69       8.8228      0.00000
     70       8.8254      0.00000
     71       9.5983      0.00000
     72       9.6004      0.00000
     73      10.6461      0.00000
     74      10.6488      0.00000
     75      11.5213      0.00000
     76      11.5233      0.00000
     77      12.6134      0.00000
     78      12.6157      0.00000
     79      13.3944      0.00000
     80      13.3959      0.00000
     81      13.6657      0.00000
     82      13.6688      0.00000
     83      13.6919      0.00000
     84      13.6949      0.00000


--------------------------------------------------------------------------------------------------------


 soft charge-density along one line, spin component           1
         0         1         2         3         4         5         6         7         8         9
 total charge-density along one line
 
 pseudopotential strength for first ion, spin component:           1
  9.725   0.004  -0.000  -0.000   0.000   0.000   0.000  -0.000
  0.004  -0.002   0.000   0.000   0.000   0.000   0.000  -0.000
 -0.000   0.000  -3.903   0.000   0.000  -0.015   0.000   0.000
 -0.000   0.000   0.000  -3.897   0.000   0.000  -0.012   0.000
  0.000   0.000   0.000   0.000  -3.903   0.000   0.000  -0.015
  0.000   0.000  -0.015   0.000   0.000  -0.762   0.000   0.000
  0.000   0.000   0.000  -0.012   0.000   0.000  -0.762  -0.000
 -0.000  -0.000   0.000   0.000  -0.015   0.000  -0.000  -0.762
 total augmentation occupancy for first ion, spin component:           1
  1.472  -1.106   0.000   0.000   0.003   0.000  -0.001   0.001
 -1.106   1.039  -0.000   0.006  -0.003  -0.000   0.002  -0.001
  0.000  -0.000   1.225  -0.000  -0.002   0.225  -0.000  -0.001
  0.000   0.006  -0.000   0.924  -0.000  -0.000   0.103  -0.000
  0.003  -0.003  -0.002  -0.000   1.225  -0.001  -0.000   0.225
  0.000  -0.000   0.225  -0.000  -0.001   0.047  -0.000  -0.000
 -0.001   0.002  -0.000   0.103  -0.000  -0.000   0.013  -0.000
  0.001  -0.001  -0.001  -0.000   0.225  -0.000  -0.000   0.047


------------------------ aborting loop because EDIFF is reached ----------------------------------------


    CHARGE:  cpu time    8.04: real time    8.04
    FORLOC:  cpu time    0.05: real time    0.05
    FORNL :  cpu time   50.05: real time   50.07
    STRESS:  cpu time   96.86: real time   96.91
    FORHAR:  cpu time    0.29: real time    0.29
    MIXING:  cpu time    0.01: real time    0.01
    OFIELD:  cpu time    0.00: real time    0.00

 ---------------------------------------------------------------------------------------------

         DFTD3 V3.0 Rev 1        
 IVDW         = 12
 DF pbe       
 parameters
 VDW_S6       =    1.0000
 VDW_S8       =    0.7875
 VDW_A1       =    0.4289
 VDW_A2       =    4.4407
 k1-k3        =   16.0000    1.3333   -4.0000
 VDW_RADIUS   =   50.2022 A
 VDW_CNRADIUS =   21.1671 A
 Edisp (eV)   -5.51596

 E6    (eV) :    -3.9361
 E8    (eV) :    -1.5798
 % E8        : 28.64
    FORVDW:  cpu time    0.33: real time    0.33

  FORCE on cell =-STRESS in cart. coord.  units (eV):
  Direction    XX          YY          ZZ          XY          YZ          ZX
  --------------------------------------------------------------------------------------
  Alpha Z   321.12578   321.12578   321.12578
  Ewald     221.37814   220.87841 -4525.86251    -1.24436    -0.00062    -0.00763
  Hartree  1015.13842  1015.12709  -835.33447    -0.11993    -0.00017    -0.00160
  E(xc)    -468.48439  -468.49141  -484.32621    -0.00910    -0.00002     0.00000
  Local   -2887.65516 -2887.23335  3442.81611     1.12993     0.00047     0.00775
  n-local  -112.23269  -112.34298  -103.31192    -0.10195    -0.00024     0.00036
  augment   -12.38844   -12.38760   -11.34762     0.00203     0.00000     0.00001
  Kinetic  1922.63754  1923.44987  2209.99075     0.83005     0.00312    -0.00326
  Fock        0.00000     0.00000     0.00000     0.00000     0.00000     0.00000
  vdW        -0.56506    -0.55366    -6.13148     0.01036     0.00000    -0.00002
  -------------------------------------------------------------------------------------
  Total      -1.04585    -0.42784     7.61844     0.49705     0.00255    -0.00439
  in kB      -6.44918    -2.63822    46.97859     3.06500     0.01573    -0.02709
  external pressure =       12.63 kB  Pullay stress =        0.00 kB


 VOLUME and BASIS-vectors are now :
 -----------------------------------------------------------------------------
  energy-cutoff  :      600.00
  volume of cell :      259.82
      direct lattice vectors                 reciprocal lattice vectors
     4.932874498 -0.001919286  0.000000000     0.202767147  0.117172881  0.000000000
    -2.468099399  4.271034986  0.000000000     0.000091118  0.234187941  0.000000000
     0.000000000  0.000000000 12.335056354     0.000000000  0.000000000  0.081069755

  length of vectors
     4.932874871  4.932874871 12.335056354     0.234187958  0.234187958  0.081069755


 FORCES acting on ions
    electron-ion (+dipol)            ewald-force                    non-local-force                 convergence-correction
 -----------------------------------------------------------------------------------------------
   0.695E+00 0.607E-01 -.144E+01   -.829E+00 -.566E-01 0.147E+01   -.106E+00 0.280E-02 -.167E+00   -.427E-03 0.125E-04 0.223E-02
   -.329E+00 0.646E-01 0.371E+00   0.341E+00 -.615E-01 -.356E+00   0.142E-01 0.267E-02 -.200E-01   0.482E-03 -.718E-05 0.224E-02
   -.141E+00 0.173E+00 0.371E+00   0.127E+00 -.185E+00 -.356E+00   0.266E-02 -.407E-02 -.200E-01   0.162E-04 -.279E-03 0.224E-02
   -.141E+00 -.439E-01 0.371E+00   0.126E+00 0.627E-01 -.356E+00   0.274E-02 0.923E-02 -.200E-01   0.276E-05 0.257E-03 0.224E-02
   -.112E+00 0.646E-01 -.102E+00   0.106E+00 -.614E-01 0.105E+00   -.446E-02 0.258E-02 0.299E-02   -.225E-04 0.137E-04 -.240E-02
   -.112E+00 0.646E-01 -.100E+00   0.107E+00 -.614E-01 0.103E+00   -.449E-02 0.259E-02 0.314E-02   -.135E-04 -.257E-04 -.240E-02
   -.112E+00 0.647E-01 -.100E+00   0.106E+00 -.616E-01 0.103E+00   -.448E-02 0.259E-02 0.315E-02   0.511E-04 -.103E-04 -.238E-02
   -.112E+00 0.645E-01 -.100E+00   0.106E+00 -.613E-01 0.103E+00   -.447E-02 0.258E-02 0.315E-02   -.673E-04 -.595E-05 -.239E-02
   0.111E+00 -.711E-01 -.848E-01   -.106E+00 0.680E-01 0.833E-01   0.448E-02 -.277E-02 -.326E-02   0.298E-04 0.193E-04 0.133E-02
   0.111E+00 -.584E-01 -.843E-01   -.106E+00 0.549E-01 0.831E-01   0.432E-02 -.251E-02 -.377E-02   -.331E-04 -.642E-04 0.135E-02
   0.100E+00 -.644E-01 -.845E-01   -.948E-01 0.613E-01 0.831E-01   0.417E-02 -.250E-02 -.350E-02   0.869E-04 0.148E-04 0.135E-02
   0.125E+00 -.644E-01 -.170E+00   -.119E+00 0.612E-01 0.170E+00   0.450E-02 -.260E-02 -.325E-02   -.787E-04 -.230E-04 0.136E-02
   0.112E+00 -.706E-01 -.823E-01   -.106E+00 0.679E-01 0.835E-01   0.440E-02 -.264E-02 -.372E-02   -.277E-05 -.112E-04 -.114E-02
   0.112E+00 -.579E-01 -.826E-01   -.106E+00 0.547E-01 0.835E-01   0.456E-02 -.238E-02 -.321E-02   0.966E-05 -.152E-04 -.115E-02
   0.101E+00 -.647E-01 -.824E-01   -.947E-01 0.614E-01 0.835E-01   0.425E-02 -.264E-02 -.347E-02   0.186E-04 0.309E-05 -.114E-02
   0.125E+00 -.646E-01 -.166E+00   -.120E+00 0.615E-01 0.169E+00   0.457E-02 -.255E-02 -.302E-02   0.262E-05 0.579E-05 -.112E-02
   0.283E-01 -.639E-01 0.308E+00   -.227E-01 0.611E-01 -.309E+00   0.590E-02 -.248E-02 0.112E-01   0.146E-03 -.946E-05 0.223E-02
   0.365E+00 -.555E-01 0.824E+00   -.356E+00 0.518E-01 -.860E+00   0.323E-01 -.230E-02 0.786E-01   -.160E-03 0.554E-05 0.218E-02
   -.248E+00 -.416E+00 0.820E+00   0.315E+00 0.446E+00 -.855E+00   0.233E-01 -.758E-02 0.783E-01   -.418E-04 0.111E-03 0.219E-02
   -.237E+00 0.285E+00 0.828E+00   0.304E+00 -.321E+00 -.864E+00   0.244E-01 0.216E-02 0.789E-01   0.392E-06 -.590E-04 0.218E-02
   0.110E+00 -.636E-01 -.100E+00   -.105E+00 0.608E-01 0.103E+00   0.430E-02 -.248E-02 -.613E-03   0.625E-05 -.368E-04 -.239E-02
   0.110E+00 -.636E-01 -.101E+00   -.105E+00 0.608E-01 0.104E+00   0.428E-02 -.249E-02 -.589E-03   0.255E-04 0.303E-04 -.238E-02
   0.110E+00 -.637E-01 -.101E+00   -.105E+00 0.609E-01 0.104E+00   0.429E-02 -.247E-02 -.593E-03   -.710E-05 0.775E-05 -.239E-02
   0.110E+00 -.635E-01 -.101E+00   -.105E+00 0.607E-01 0.104E+00   0.429E-02 -.248E-02 -.591E-03   0.624E-04 0.156E-04 -.238E-02
   -.810E-01 0.503E-01 -.101E+00   0.755E-01 -.472E-01 0.997E-01   -.413E-02 0.253E-02 0.155E-02   -.438E-04 -.305E-04 0.131E-02
   -.140E+00 0.429E-01 -.124E+00   0.136E+00 -.395E-01 0.124E+00   -.425E-02 0.238E-02 0.104E-02   0.465E-05 0.568E-04 0.136E-02
   -.104E+00 0.977E-01 -.113E+00   0.992E-01 -.957E-01 0.112E+00   -.406E-02 0.256E-02 0.130E-02   -.840E-04 0.600E-05 0.133E-02
   -.115E+00 0.635E-01 -.774E-01   0.111E+00 -.607E-01 0.761E-01   -.446E-02 0.249E-02 0.661E-04   0.508E-04 0.331E-04 0.133E-02
   -.140E+00 0.840E-01 -.122E+00   0.136E+00 -.819E-01 0.124E+00   -.423E-02 0.255E-02 0.113E-02   -.367E-04 -.338E-06 -.112E-02
   -.815E-01 0.765E-01 -.984E-01   0.760E-01 -.740E-01 0.996E-01   -.415E-02 0.240E-02 0.160E-02   0.233E-04 0.895E-05 -.116E-02
   -.104E+00 0.298E-01 -.110E+00   0.991E-01 -.263E-01 0.111E+00   -.406E-02 0.239E-02 0.134E-02   0.137E-05 -.293E-04 -.115E-02
   -.115E+00 0.635E-01 -.754E-01   0.111E+00 -.608E-01 0.766E-01   -.447E-02 0.244E-02 0.161E-03   0.296E-05 0.519E-05 -.116E-02
 -----------------------------------------------------------------------------------------------
   -.193E-03 0.266E-04 -.116E-01   -.874E-15 -.661E-14 -.355E-13   0.139E-03 -.159E-04 0.111E-01   0.395E-05 -.157E-05 0.175E-03
 
 
 POSITION                                       TOTAL-FORCE (eV/Angst)
 -----------------------------------------------------------------------------------
      2.46773      0.00043      1.55117        -0.242207      0.006964     -0.134557
      4.93046     -0.00052      1.54188         0.028463      0.005813     -0.002912
      1.22997      2.13595      1.54188        -0.011525     -0.017284     -0.002844
      3.69641      2.13499      1.54188        -0.011636      0.029047     -0.003074
      2.46402      0.00044      7.70941        -0.010088      0.005819      0.003242
      4.93046     -0.00052      7.70941        -0.010047      0.005816      0.003369
      1.22997      2.13595      7.70941        -0.010078      0.005805      0.003369
      3.69641      2.13499      7.70941        -0.010069      0.005834      0.003369
     -1.23163      2.13412      4.62565         0.010037     -0.005928     -0.003462
      1.23481      2.13316      4.62565         0.009572     -0.006050     -0.003648
     -2.46568      4.26964      4.62565         0.009907     -0.005578     -0.003553
      0.00076      4.26868      4.62565         0.009620     -0.005861     -0.001960
     -1.23163      2.13412     10.79317         0.009884     -0.005486     -0.003664
      1.23481      2.13316     10.79317         0.010325     -0.005585     -0.003487
     -2.46568      4.26964     10.79317         0.010184     -0.005941     -0.003580
      0.00076      4.26868     10.79317         0.009913     -0.005688     -0.001867
     -0.00332      1.42496      1.54188         0.011798     -0.005379      0.012312
      2.46311      1.42400      1.54188         0.041346     -0.006105      0.044928
     -1.23737      3.56047      1.54188         0.089916      0.022528      0.045384
      1.22906      3.55952      1.54188         0.090299     -0.033703      0.044399
     -0.00332      1.42496      7.70941         0.009256     -0.005352     -0.000547
      2.46311      1.42400      7.70941         0.009261     -0.005360     -0.000494
     -1.23737      3.56047      7.70941         0.009250     -0.005364     -0.000493
      1.22906      3.55952      7.70941         0.009250     -0.005354     -0.000491
      1.23571      0.70960      4.62565        -0.009724      0.005689      0.001617
      3.70215      0.70864      4.62565        -0.008298      0.005915      0.001728
      0.00166      2.84512      4.62565        -0.009209      0.004581      0.001670
      2.46810      2.84416      4.62565        -0.008894      0.005390      0.000137
      1.23571      0.70960     10.79317        -0.008451      0.004708      0.001732
      3.70215      0.70864     10.79317        -0.009744      0.004942      0.001583
      0.00166      2.84512     10.79317        -0.009307      0.005955      0.001634
      2.46810      2.84416     10.79317        -0.009004      0.005212      0.000160
 -----------------------------------------------------------------------------------
    total drift:                               -0.000050      0.000009     -0.000271


--------------------------------------------------------------------------------------------------------



  FREE ENERGIE OF THE ION-ELECTRON SYSTEM (eV)
  ---------------------------------------------------
  free  energy   TOTEN  =      -299.35284637 eV

  energy  without entropy=     -299.35284637  energy(sigma->0) =     -299.35284637
 


--------------------------------------------------------------------------------------------------------


    POTLOK:  cpu time    0.42: real time    0.42


--------------------------------------------------------------------------------------------------------


     LOOP+:  cpu time 2460.02: real time 2461.33
    4ORBIT:  cpu time    0.00: real time    0.00
 BZINTS: Fermi energy:  5.429862;128.000000 electrons
         Band energy:-465.961880;  BLOECHL correction:  0.000000

 total amount of memory used by VASP on root node   478060. kBytes
========================================================================

   base      :      30000. kBytes
   nonl-proj :      95278. kBytes
   fftplans  :       8142. kBytes
   grid      :      17249. kBytes
   one-center:         98. kBytes
   wavefun   :     327293. kBytes
 
  
  
 General timing and accounting informations for this job:
 ========================================================
  
                  Total CPU time used (sec):     2499.925
                            User time (sec):     2107.548
                          System time (sec):      392.377
                         Elapsed time (sec):     2501.495
  
                   Maximum memory used (kb):      593352.
                   Average memory used (kb):           0.
  
                          Minor page faults:     33790680
                          Major page faults:            0
                 Voluntary context switches:          902
