 vasp.5.3.5 31Mar14 (build Nov 02 2014 15:17:37) complex                        
  
 executed on        ion-Intel-MKL date 2016.08.24  08:55:27
 running on    6 total cores
 distrk:  each k-point on    6 cores,    1 groups
 distr:  one band on NCORES_PER_BAND=   1 cores,    6 groups


--------------------------------------------------------------------------------------------------------


 INCAR:
 POTCAR:   PAW_PBE C 08Apr2002                    

 ----------------------------------------------------------------------------- 
|                                                                             |
|           W    W    AA    RRRRR   N    N  II  N    N   GGGG   !!!           |
|           W    W   A  A   R    R  NN   N  II  NN   N  G    G  !!!           |
|           W    W  A    A  R    R  N N  N  II  N N  N  G       !!!           |
|           W WW W  AAAAAA  RRRRR   N  N N  II  N  N N  G  GGG   !            |
|           WW  WW  A    A  R   R   N   NN  II  N   NN  G    G                |
|           W    W  A    A  R    R  N    N  II  N    N   GGGG   !!!           |
|                                                                             |
|      For optimal performance we recommend to set                            |
|        NCORE= 4 - approx SQRT( number of cores)                             |
|      NCORE specifies how many cores store one orbital (NPAR=cpu/NCORE).     |
|      This setting can  greatly improve the performance of VASP for DFT.     |
|      The default, NPAR=number of cores might be grossly inefficient         |
|      on modern multi-core architectures or massively parallel machines.     |
|      Do your own testing !!!!                                               |
|      Unfortunately you need to use the default for GW and RPA calculations. |
|      (for HF NCORE is supported but not extensively tested yet)             |
|                                                                             |
 ----------------------------------------------------------------------------- 

 POTCAR:   PAW_PBE C 08Apr2002                    
   VRHFIN =C: s2p2                                                              
   LEXCH  = PE                                                                  
   EATOM  =   147.1560 eV,   10.8157 Ry                                         
                                                                                
   TITEL  = PAW_PBE C 08Apr2002                                                 
   LULTRA =        F    use ultrasoft PP ?                                      
   IUNSCR =        0    unscreen: 0-lin 1-nonlin 2-no                           
   RPACOR =     .000    partial core radius                                     
   POMASS =   12.011; ZVAL   =    4.000    mass and valenz                      
   RCORE  =    1.500    outmost cutoff radius                                   
   RWIGS  =    1.630; RWIGS  =     .863    wigner-seitz radius (au A)           
   ENMAX  =  400.000; ENMIN  =  300.000 eV                                      
   ICORE  =        2    local potential                                         
   LCOR   =        T    correct aug charges                                     
   LPAW   =        T    paw PP                                                  
   EAUG   =  644.873                                                            
   DEXC   =     .000                                                            
   RMAX   =    2.266    core radius for proj-oper                               
   RAUG   =    1.300    factor for augmentation sphere                          
   RDEP   =    1.501    radius for radial grids                                 
   RDEPT  =    1.300    core radius for aug-charge                              
   QCUT   =   -5.516; QGAM   =   11.032    optimization parameters              
                                                                                
   Description                                                                  
     l     E      TYP  RCUT    TYP  RCUT                                        
     0   .000     23  1.200                                                     
     0   .000     23  1.200                                                     
     1   .000     23  1.500                                                     
     1  2.500     23  1.500                                                     
     2   .000      7  1.500                                                     
  local pseudopotential read in
  atomic valenz-charges read in
  non local Contribution for L=           0  read in
    real space projection operators read in
  non local Contribution for L=           0  read in
    real space projection operators read in
  non local Contribution for L=           1  read in
    real space projection operators read in
  non local Contribution for L=           1  read in
    real space projection operators read in
    PAW grid and wavefunctions read in
 
   number of l-projection  operators is LMAX  =           4
   number of lm-projection operators is LMMAX =           8
 

 ----------------------------------------------------------------------------- 
|                                                                             |
|  ADVICE TO THIS USER RUNNING 'VASP/VAMP'   (HEAR YOUR MASTER'S VOICE ...):  |
|                                                                             |
|      You have a (more or less) 'large supercell' and for larger cells       |
|      it might be more efficient to use real space projection operators      |
|      So try LREAL= Auto  in the INCAR   file.                               |
|      Mind: If you want to do a very accurate calculations keep the          |
|      reciprocal projection scheme          (i.e. LREAL=.FALSE.)             |
|                                                                             |
 ----------------------------------------------------------------------------- 

 PAW_PBE C 08Apr2002                    :
 energy of atom  1       EATOM= -147.1560
 kinetic energy error for atom=    0.0057 (will be added to EATOM!!)
 
 
 POSCAR: C                                       
  positions in direct lattice
  No initial velocities read in
 exchange correlation table for  LEXCH =        8
   RHO(1)=    0.500       N(1)  =     2000
   RHO(2)=  100.500       N(2)  =     4000
 


--------------------------------------------------------------------------------------------------------


 ion  position               nearest neighbor table
   1  0.500  0.000  0.125-  20 1.42  18 1.42  19 1.42  16 1.68  12 1.68
   2  1.000  0.000  0.125-  19 1.42  20 1.42  17 1.42  15 1.68  11 1.68
   3  0.500  0.500  0.125-  17 1.42  18 1.42  20 1.42  14 1.68  10 1.68
   4  1.000  0.500  0.125-  19 1.42  18 1.42  17 1.43  13 1.68   9 1.68
   5  0.500  0.000  0.625-  24 1.42  22 1.42  23 1.42  16 1.68  12 1.68
   6  1.000  0.000  0.625-  23 1.42  21 1.42  24 1.42  15 1.68  11 1.68
   7  0.500  0.500  0.625-  22 1.42  24 1.42  21 1.42  14 1.68  10 1.68
   8  1.000  0.500  0.625-  21 1.42  23 1.42  22 1.42  13 1.68   9 1.68
   9  0.000  0.500  0.375-  28 1.42  27 1.42  26 1.42   8 1.68   4 1.68
  10  0.500  0.500  0.375-  27 1.42  28 1.42  25 1.42   7 1.68   3 1.68
  11  0.000  1.000  0.375-  26 1.42  25 1.42  28 1.42   6 1.68   2 1.68
  12  0.500  1.000  0.375-  25 1.42  26 1.42  27 1.42   5 1.68   1 1.68
  13  0.000  0.500  0.875-  32 1.42  31 1.42  30 1.42   8 1.68   4 1.68
  14  0.500  0.500  0.875-  31 1.42  32 1.42  29 1.42   7 1.68   3 1.68
  15  0.000  1.000  0.875-  30 1.42  29 1.42  32 1.42   6 1.68   2 1.68
  16  0.500  1.000  0.875-  29 1.42  30 1.42  31 1.42   5 1.68   1 1.68
  17  0.168  0.333  0.126-   3 1.42   2 1.42   4 1.43
  18  0.667  0.333  0.125-   3 1.42   1 1.42   4 1.42
  19  0.167  0.833  0.125-   2 1.42   4 1.42   1 1.42
  20  0.667  0.833  0.125-   1 1.42   3 1.42   2 1.42
  21  0.167  0.333  0.625-   8 1.42   6 1.42   7 1.42
  22  0.667  0.333  0.625-   7 1.42   5 1.42   8 1.42
  23  0.167  0.833  0.625-   6 1.42   8 1.42   5 1.42
  24  0.667  0.833  0.625-   5 1.42   7 1.42   6 1.42
  25  0.333  0.167  0.375-  12 1.42  11 1.42  10 1.42
  26  0.833  0.167  0.375-  11 1.42  12 1.42   9 1.42
  27  0.333  0.667  0.375-  10 1.42   9 1.42  12 1.42
  28  0.833  0.667  0.375-   9 1.42  10 1.42  11 1.42
  29  0.333  0.167  0.875-  16 1.42  15 1.42  14 1.42
  30  0.833  0.167  0.875-  15 1.42  16 1.42  13 1.42
  31  0.333  0.667  0.875-  14 1.42  13 1.42  16 1.42
  32  0.833  0.667  0.875-  13 1.42  14 1.42  15 1.42
 
  LATTYP: Found a base centered orthorhombic cell.
 ALAT       =     4.9339256766
 B/A-ratio  =     1.7322311103
 C/A-ratio  =     1.3631624696
  
  Lattice vectors:
  
 A1 = (   4.9343108848,  -0.0002224000,   0.0000000000)
 A2 = (  -2.4673480464,   4.2731273763,   0.0000000000)
 A3 = (   0.0000000000,   0.0000000000,   6.7257423100)


Analysis of symmetry for initial positions (statically):
=====================================================================
 Subroutine PRICEL returns:
 Original cell was already a primitive cell.
 

 Routine SETGRP: Setting up the symmetry group for a 
 base centered orthorhombic supercell.


 Subroutine GETGRP returns: Found  1 space group operations
 (whereof  1 operations were pure point group operations)
 out of a pool of  8 trial point group operations.


The static configuration has the point symmetry C_1 .


Analysis of symmetry for dynamics (positions and initial velocities):
=====================================================================
 Subroutine PRICEL returns:
 Original cell was already a primitive cell.
 

 Routine SETGRP: Setting up the symmetry group for a 
 base centered orthorhombic supercell.


 Subroutine GETGRP returns: Found  1 space group operations
 (whereof  1 operations were pure point group operations)
 out of a pool of  8 trial point group operations.


The dynamic configuration has the point symmetry C_1 .
 
 
 KPOINTS: B4C B11C-CBC                            

Automatic generation of k-mesh.
Space group operators:
 irot       det(A)        alpha          n_x          n_y          n_z        tau_x        tau_y        tau_z
    1     1.000000     0.000000     1.000000     0.000000     0.000000     0.000000     0.000000     0.000000
 
 Subroutine IBZKPT returns following result:
 ===========================================
 
 Found    163 irreducible k-points:
 
 Following reciprocal coordinates:
            Coordinates               Weight
  0.000000  0.000000  0.000000      1.000000
  0.111111  0.000000  0.000000      2.000000
  0.222222  0.000000  0.000000      2.000000
  0.333333  0.000000  0.000000      2.000000
  0.444444  0.000000  0.000000      2.000000
 -0.000000  0.111111  0.000000      2.000000
  0.111111  0.111111  0.000000      2.000000
  0.222222  0.111111  0.000000      2.000000
  0.333333  0.111111  0.000000      2.000000
  0.444444  0.111111  0.000000      2.000000
 -0.444444  0.111111  0.000000      2.000000
 -0.333333  0.111111  0.000000      2.000000
 -0.222222  0.111111  0.000000      2.000000
 -0.111111  0.111111  0.000000      2.000000
 -0.000000  0.222222  0.000000      2.000000
  0.111111  0.222222  0.000000      2.000000
  0.222222  0.222222  0.000000      2.000000
  0.333333  0.222222  0.000000      2.000000
  0.444444  0.222222  0.000000      2.000000
 -0.444444  0.222222  0.000000      2.000000
 -0.333333  0.222222  0.000000      2.000000
 -0.222222  0.222222  0.000000      2.000000
 -0.111111  0.222222  0.000000      2.000000
 -0.000000  0.333333  0.000000      2.000000
  0.111111  0.333333  0.000000      2.000000
  0.222222  0.333333  0.000000      2.000000
  0.333333  0.333333  0.000000      2.000000
  0.444444  0.333333  0.000000      2.000000
 -0.444444  0.333333  0.000000      2.000000
 -0.333333  0.333333  0.000000      2.000000
 -0.222222  0.333333  0.000000      2.000000
 -0.111111  0.333333  0.000000      2.000000
 -0.000000  0.444444  0.000000      2.000000
  0.111111  0.444444  0.000000      2.000000
  0.222222  0.444444  0.000000      2.000000
  0.333333  0.444444  0.000000      2.000000
  0.444444  0.444444  0.000000      2.000000
 -0.444444  0.444444  0.000000      2.000000
 -0.333333  0.444444  0.000000      2.000000
 -0.222222  0.444444  0.000000      2.000000
 -0.111111  0.444444  0.000000      2.000000
  0.000000  0.000000  0.250000      2.000000
  0.111111  0.000000  0.250000      2.000000
  0.222222  0.000000  0.250000      2.000000
  0.333333  0.000000  0.250000      2.000000
  0.444444  0.000000  0.250000      2.000000
 -0.444444  0.000000  0.250000      2.000000
 -0.333333  0.000000  0.250000      2.000000
 -0.222222  0.000000  0.250000      2.000000
 -0.111111  0.000000  0.250000      2.000000
 -0.000000  0.111111  0.250000      2.000000
  0.111111  0.111111  0.250000      2.000000
  0.222222  0.111111  0.250000      2.000000
  0.333333  0.111111  0.250000      2.000000
  0.444444  0.111111  0.250000      2.000000
 -0.444444  0.111111  0.250000      2.000000
 -0.333333  0.111111  0.250000      2.000000
 -0.222222  0.111111  0.250000      2.000000
 -0.111111  0.111111  0.250000      2.000000
 -0.000000  0.222222  0.250000      2.000000
  0.111111  0.222222  0.250000      2.000000
  0.222222  0.222222  0.250000      2.000000
  0.333333  0.222222  0.250000      2.000000
  0.444444  0.222222  0.250000      2.000000
 -0.444444  0.222222  0.250000      2.000000
 -0.333333  0.222222  0.250000      2.000000
 -0.222222  0.222222  0.250000      2.000000
 -0.111111  0.222222  0.250000      2.000000
 -0.000000  0.333333  0.250000      2.000000
  0.111111  0.333333  0.250000      2.000000
  0.222222  0.333333  0.250000      2.000000
  0.333333  0.333333  0.250000      2.000000
  0.444444  0.333333  0.250000      2.000000
 -0.444444  0.333333  0.250000      2.000000
 -0.333333  0.333333  0.250000      2.000000
 -0.222222  0.333333  0.250000      2.000000
 -0.111111  0.333333  0.250000      2.000000
 -0.000000  0.444444  0.250000      2.000000
  0.111111  0.444444  0.250000      2.000000
  0.222222  0.444444  0.250000      2.000000
  0.333333  0.444444  0.250000      2.000000
  0.444444  0.444444  0.250000      2.000000
 -0.444444  0.444444  0.250000      2.000000
 -0.333333  0.444444  0.250000      2.000000
 -0.222222  0.444444  0.250000      2.000000
 -0.111111  0.444444  0.250000      2.000000
  0.000000 -0.444444  0.250000      2.000000
  0.111111 -0.444444  0.250000      2.000000
  0.222222 -0.444444  0.250000      2.000000
  0.333333 -0.444444  0.250000      2.000000
  0.444444 -0.444444  0.250000      2.000000
 -0.444444 -0.444444  0.250000      2.000000
 -0.333333 -0.444444  0.250000      2.000000
 -0.222222 -0.444444  0.250000      2.000000
 -0.111111 -0.444444  0.250000      2.000000
  0.000000 -0.333333  0.250000      2.000000
  0.111111 -0.333333  0.250000      2.000000
  0.222222 -0.333333  0.250000      2.000000
  0.333333 -0.333333  0.250000      2.000000
  0.444444 -0.333333  0.250000      2.000000
 -0.444444 -0.333333  0.250000      2.000000
 -0.333333 -0.333333  0.250000      2.000000
 -0.222222 -0.333333  0.250000      2.000000
 -0.111111 -0.333333  0.250000      2.000000
  0.000000 -0.222222  0.250000      2.000000
  0.111111 -0.222222  0.250000      2.000000
  0.222222 -0.222222  0.250000      2.000000
  0.333333 -0.222222  0.250000      2.000000
  0.444444 -0.222222  0.250000      2.000000
 -0.444444 -0.222222  0.250000      2.000000
 -0.333333 -0.222222  0.250000      2.000000
 -0.222222 -0.222222  0.250000      2.000000
 -0.111111 -0.222222  0.250000      2.000000
  0.000000 -0.111111  0.250000      2.000000
  0.111111 -0.111111  0.250000      2.000000
  0.222222 -0.111111  0.250000      2.000000
  0.333333 -0.111111  0.250000      2.000000
  0.444444 -0.111111  0.250000      2.000000
 -0.444444 -0.111111  0.250000      2.000000
 -0.333333 -0.111111  0.250000      2.000000
 -0.222222 -0.111111  0.250000      2.000000
 -0.111111 -0.111111  0.250000      2.000000
  0.000000  0.000000  0.500000      1.000000
  0.111111  0.000000  0.500000      2.000000
  0.222222  0.000000  0.500000      2.000000
  0.333333  0.000000  0.500000      2.000000
  0.444444  0.000000  0.500000      2.000000
 -0.000000  0.111111  0.500000      2.000000
  0.111111  0.111111  0.500000      2.000000
  0.222222  0.111111  0.500000      2.000000
  0.333333  0.111111  0.500000      2.000000
  0.444444  0.111111  0.500000      2.000000
 -0.444444  0.111111  0.500000      2.000000
 -0.333333  0.111111  0.500000      2.000000
 -0.222222  0.111111  0.500000      2.000000
 -0.111111  0.111111  0.500000      2.000000
 -0.000000  0.222222  0.500000      2.000000
  0.111111  0.222222  0.500000      2.000000
  0.222222  0.222222  0.500000      2.000000
  0.333333  0.222222  0.500000      2.000000
  0.444444  0.222222  0.500000      2.000000
 -0.444444  0.222222  0.500000      2.000000
 -0.333333  0.222222  0.500000      2.000000
 -0.222222  0.222222  0.500000      2.000000
 -0.111111  0.222222  0.500000      2.000000
 -0.000000  0.333333  0.500000      2.000000
  0.111111  0.333333  0.500000      2.000000
  0.222222  0.333333  0.500000      2.000000
  0.333333  0.333333  0.500000      2.000000
  0.444444  0.333333  0.500000      2.000000
 -0.444444  0.333333  0.500000      2.000000
 -0.333333  0.333333  0.500000      2.000000
 -0.222222  0.333333  0.500000      2.000000
 -0.111111  0.333333  0.500000      2.000000
 -0.000000  0.444444  0.500000      2.000000
  0.111111  0.444444  0.500000      2.000000
  0.222222  0.444444  0.500000      2.000000
  0.333333  0.444444  0.500000      2.000000
  0.444444  0.444444  0.500000      2.000000
 -0.444444  0.444444  0.500000      2.000000
 -0.333333  0.444444  0.500000      2.000000
 -0.222222  0.444444  0.500000      2.000000
 -0.111111  0.444444  0.500000      2.000000
 
 Following cartesian coordinates:
            Coordinates               Weight
  0.000000  0.000000  0.000000      1.000000
  0.022519  0.013002  0.000000      2.000000
  0.045037  0.026005  0.000000      2.000000
  0.067556  0.039007  0.000000      2.000000
  0.090075  0.052010  0.000000      2.000000
  0.000001  0.026003  0.000000      2.000000
  0.022520  0.039005  0.000000      2.000000
  0.045038  0.052008  0.000000      2.000000
  0.067557  0.065010  0.000000      2.000000
  0.090076  0.078013  0.000000      2.000000
 -0.090073 -0.026007  0.000000      2.000000
 -0.067555 -0.013005  0.000000      2.000000
 -0.045036 -0.000002  0.000000      2.000000
 -0.022517  0.013000  0.000000      2.000000
  0.000002  0.052006  0.000000      2.000000
  0.022521  0.065008  0.000000      2.000000
  0.045040  0.078011  0.000000      2.000000
  0.067558  0.091013  0.000000      2.000000
  0.090077  0.104016  0.000000      2.000000
 -0.090072 -0.000004  0.000000      2.000000
 -0.067554  0.012998  0.000000      2.000000
 -0.045035  0.026001  0.000000      2.000000
 -0.022516  0.039003  0.000000      2.000000
  0.000004  0.078009  0.000000      2.000000
  0.022522  0.091011  0.000000      2.000000
  0.045041  0.104014  0.000000      2.000000
  0.067559  0.117016  0.000000      2.000000
  0.090078  0.130019  0.000000      2.000000
 -0.090071  0.025999  0.000000      2.000000
 -0.067552  0.039001  0.000000      2.000000
 -0.045034  0.052004  0.000000      2.000000
 -0.022515  0.065006  0.000000      2.000000
  0.000005  0.104012  0.000000      2.000000
  0.022523  0.117014  0.000000      2.000000
  0.045042  0.130017  0.000000      2.000000
  0.067561  0.143019  0.000000      2.000000
  0.090079  0.156022  0.000000      2.000000
 -0.090070  0.052002  0.000000      2.000000
 -0.067551  0.065004  0.000000      2.000000
 -0.045033  0.078007  0.000000      2.000000
 -0.022514  0.091009  0.000000      2.000000
  0.000000  0.000000  0.037171      2.000000
  0.022519  0.013002  0.037171      2.000000
  0.045037  0.026005  0.037171      2.000000
  0.067556  0.039007  0.037171      2.000000
  0.090075  0.052010  0.037171      2.000000
 -0.090075 -0.052010  0.037171      2.000000
 -0.067556 -0.039007  0.037171      2.000000
 -0.045037 -0.026005  0.037171      2.000000
 -0.022519 -0.013002  0.037171      2.000000
  0.000001  0.026003  0.037171      2.000000
  0.022520  0.039005  0.037171      2.000000
  0.045038  0.052008  0.037171      2.000000
  0.067557  0.065010  0.037171      2.000000
  0.090076  0.078013  0.037171      2.000000
 -0.090073 -0.026007  0.037171      2.000000
 -0.067555 -0.013005  0.037171      2.000000
 -0.045036 -0.000002  0.037171      2.000000
 -0.022517  0.013000  0.037171      2.000000
  0.000002  0.052006  0.037171      2.000000
  0.022521  0.065008  0.037171      2.000000
  0.045040  0.078011  0.037171      2.000000
  0.067558  0.091013  0.037171      2.000000
  0.090077  0.104016  0.037171      2.000000
 -0.090072 -0.000004  0.037171      2.000000
 -0.067554  0.012998  0.037171      2.000000
 -0.045035  0.026001  0.037171      2.000000
 -0.022516  0.039003  0.037171      2.000000
  0.000004  0.078009  0.037171      2.000000
  0.022522  0.091011  0.037171      2.000000
  0.045041  0.104014  0.037171      2.000000
  0.067559  0.117016  0.037171      2.000000
  0.090078  0.130019  0.037171      2.000000
 -0.090071  0.025999  0.037171      2.000000
 -0.067552  0.039001  0.037171      2.000000
 -0.045034  0.052004  0.037171      2.000000
 -0.022515  0.065006  0.037171      2.000000
  0.000005  0.104012  0.037171      2.000000
  0.022523  0.117014  0.037171      2.000000
  0.045042  0.130017  0.037171      2.000000
  0.067561  0.143019  0.037171      2.000000
  0.090079  0.156022  0.037171      2.000000
 -0.090070  0.052002  0.037171      2.000000
 -0.067551  0.065004  0.037171      2.000000
 -0.045033  0.078007  0.037171      2.000000
 -0.022514  0.091009  0.037171      2.000000
 -0.000005 -0.104012  0.037171      2.000000
  0.022514 -0.091009  0.037171      2.000000
  0.045033 -0.078007  0.037171      2.000000
  0.067551 -0.065004  0.037171      2.000000
  0.090070 -0.052002  0.037171      2.000000
 -0.090079 -0.156022  0.037171      2.000000
 -0.067561 -0.143019  0.037171      2.000000
 -0.045042 -0.130017  0.037171      2.000000
 -0.022523 -0.117014  0.037171      2.000000
 -0.000004 -0.078009  0.037171      2.000000
  0.022515 -0.065006  0.037171      2.000000
  0.045034 -0.052004  0.037171      2.000000
  0.067552 -0.039001  0.037171      2.000000
  0.090071 -0.025999  0.037171      2.000000
 -0.090078 -0.130019  0.037171      2.000000
 -0.067559 -0.117016  0.037171      2.000000
 -0.045041 -0.104014  0.037171      2.000000
 -0.022522 -0.091011  0.037171      2.000000
 -0.000002 -0.052006  0.037171      2.000000
  0.022516 -0.039003  0.037171      2.000000
  0.045035 -0.026001  0.037171      2.000000
  0.067554 -0.012998  0.037171      2.000000
  0.090072  0.000004  0.037171      2.000000
 -0.090077 -0.104016  0.037171      2.000000
 -0.067558 -0.091013  0.037171      2.000000
 -0.045040 -0.078011  0.037171      2.000000
 -0.022521 -0.065008  0.037171      2.000000
 -0.000001 -0.026003  0.037171      2.000000
  0.022517 -0.013000  0.037171      2.000000
  0.045036  0.000002  0.037171      2.000000
  0.067555  0.013005  0.037171      2.000000
  0.090073  0.026007  0.037171      2.000000
 -0.090076 -0.078013  0.037171      2.000000
 -0.067557 -0.065010  0.037171      2.000000
 -0.045038 -0.052008  0.037171      2.000000
 -0.022520 -0.039005  0.037171      2.000000
  0.000000  0.000000  0.074341      1.000000
  0.022519  0.013002  0.074341      2.000000
  0.045037  0.026005  0.074341      2.000000
  0.067556  0.039007  0.074341      2.000000
  0.090075  0.052010  0.074341      2.000000
  0.000001  0.026003  0.074341      2.000000
  0.022520  0.039005  0.074341      2.000000
  0.045038  0.052008  0.074341      2.000000
  0.067557  0.065010  0.074341      2.000000
  0.090076  0.078013  0.074341      2.000000
 -0.090073 -0.026007  0.074341      2.000000
 -0.067555 -0.013005  0.074341      2.000000
 -0.045036 -0.000002  0.074341      2.000000
 -0.022517  0.013000  0.074341      2.000000
  0.000002  0.052006  0.074341      2.000000
  0.022521  0.065008  0.074341      2.000000
  0.045040  0.078011  0.074341      2.000000
  0.067558  0.091013  0.074341      2.000000
  0.090077  0.104016  0.074341      2.000000
 -0.090072 -0.000004  0.074341      2.000000
 -0.067554  0.012998  0.074341      2.000000
 -0.045035  0.026001  0.074341      2.000000
 -0.022516  0.039003  0.074341      2.000000
  0.000004  0.078009  0.074341      2.000000
  0.022522  0.091011  0.074341      2.000000
  0.045041  0.104014  0.074341      2.000000
  0.067559  0.117016  0.074341      2.000000
  0.090078  0.130019  0.074341      2.000000
 -0.090071  0.025999  0.074341      2.000000
 -0.067552  0.039001  0.074341      2.000000
 -0.045034  0.052004  0.074341      2.000000
 -0.022515  0.065006  0.074341      2.000000
  0.000005  0.104012  0.074341      2.000000
  0.022523  0.117014  0.074341      2.000000
  0.045042  0.130017  0.074341      2.000000
  0.067561  0.143019  0.074341      2.000000
  0.090079  0.156022  0.074341      2.000000
 -0.090070  0.052002  0.074341      2.000000
 -0.067551  0.065004  0.074341      2.000000
 -0.045033  0.078007  0.074341      2.000000
 -0.022514  0.091009  0.074341      2.000000
 
 TETIRR: Found    970 inequivalent tetrahedra from     1944


--------------------------------------------------------------------------------------------------------




 Dimension of arrays:
   k-points           NKPTS =    163   k-points in BZ     NKDIM =    163   number of bands    NBANDS=     84
   number of dos      NEDOS =    301   number of ions     NIONS =     32
   non local maximal  LDIM  =      4   non local SUM 2l+1 LMDIM =      8
   total plane-waves  NPLWV =  86400
   max r-space proj   IRMAX =      1   max aug-charges    IRDMAX=   7389
   dimension x,y,z NGX =    40 NGY =   40 NGZ =   54
   dimension x,y,z NGXF=    80 NGYF=   80 NGZF=  108
   support grid    NGXF=    80 NGYF=   80 NGZF=  108
   ions per type =              32
 NGX,Y,Z   is equivalent  to a cutoff of  13.48, 13.48, 13.35 a.u.
 NGXF,Y,Z  is equivalent  to a cutoff of  26.95, 26.95, 26.70 a.u.


 I would recommend the setting:
   dimension x,y,z NGX =    39 NGY =   39 NGZ =   54
 SYSTEM =  graphite                                
 POSCAR =  C                                       

 Startparameter for this run:
   NWRITE =      2    write-flag & timer
   PREC   = accura    normal or accurate (medium, high low for compatibility)
   ISTART =      0    job   : 0-new  1-cont  2-samecut
   ICHARG =      2    charge: 1-file 2-atom 10-const
   ISPIN  =      1    spin polarized calculation?
   LNONCOLLINEAR =      F non collinear calculations
   LSORBIT =      F    spin-orbit coupling
   INIWAV =      1    electr: 0-lowe 1-rand  2-diag
   LASPH  =      F    aspherical Exc in radial PAW
   METAGGA=      F    non-selfconsistent MetaGGA calc.

 Electronic Relaxation 1
   ENCUT  =  600.0 eV  44.10 Ry    6.64 a.u.   9.86  9.86 13.43*2*pi/ulx,y,z
   ENINI  =  600.0     initial cutoff
   ENAUG  =  644.9 eV  augmentation charge cutoff
   NELM   =    200;   NELMIN=  2; NELMDL=  0     # of ELM steps 
   EDIFF  = 0.1E-05   stopping-criterion for ELM
   LREAL  =      F    real-space projection
   NLSPLINE    = F    spline interpolate recip. space projectors
   LCOMPAT=      F    compatible to vasp.4.4
   GGA_COMPAT  = T    GGA compatible to vasp.4.4-vasp.4.6
   LMAXPAW     = -100 max onsite density
   LMAXMIX     =    2 max onsite mixed and CHGCAR
   VOSKOWN=      0    Vosko Wilk Nusair interpolation
   ROPT   =    0.00000
 Ionic relaxation
   EDIFFG = 0.1E-02   stopping-criterion for IOM
   NSW    =      0    number of steps for IOM
   NBLOCK =      1;   KBLOCK =      1    inner block; outer block 
   IBRION =     -1    ionic relax: 0-MD 1-quasi-New 2-CG
   NFREE  =      0    steps in history (QN), initial steepest desc. (CG)
   ISIF   =      2    stress and relaxation
   IWAVPR =     10    prediction:  0-non 1-charg 2-wave 3-comb
   ISYM   =      2    0-nonsym 1-usesym 2-fastsym
   LCORR  =      T    Harris-Foulkes like correction to forces

   POTIM  = 0.5000    time-step for ionic-motion
   TEIN   =    0.0    initial temperature
   TEBEG  =    0.0;   TEEND  =   0.0 temperature during run
   SMASS  =  -3.00    Nose mass-parameter (am)
   estimated Nose-frequenzy (Omega)   =  0.10E-29 period in steps =****** mass=  -0.556E-27a.u.
   SCALEE = 1.0000    scale energy and forces
   NPACO  =    256;   APACO  = 16.0  distance and # of slots for P.C.
   PSTRESS=    0.0 pullay stress

  Mass of Ions in am
   POMASS =  12.01
  Ionic Valenz
   ZVAL   =   4.00
  Atomic Wigner-Seitz radii
   RWIGS  =  -1.00
  virtual crystal weights 
   VCA    =   1.00
   NELECT =     128.0000    total number of electrons
   NUPDOWN=      -1.0000    fix difference up-down

 DOS related values:
   EMIN   =  10.00;   EMAX   =-10.00  energy-range for DOS
   EFERMI =   0.00
   ISMEAR =    -5;   SIGMA  =   0.20  broadening in eV -4-tet -1-fermi 0-gaus

 Electronic relaxation 2 (details)
   IALGO  =     38    algorithm
   LDIAG  =      T    sub-space diagonalisation (order eigenvalues)
   LSUBROT=      F    optimize rotation matrix (better conditioning)
   TURBO    =      0    0=normal 1=particle mesh
   IRESTART =      0    0=no restart 2=restart with 2 vectors
   NREBOOT  =      0    no. of reboots
   NMIN     =      0    reboot dimension
   EREF     =   0.00    reference energy to select bands
   IMIX   =      4    mixing-type and parameters
     AMIX     =   0.40;   BMIX     =  1.00
     AMIX_MAG =   1.60;   BMIX_MAG =  1.00
     AMIN     =   0.10
     WC   =   100.;   INIMIX=   1;  MIXPRE=   1;  MAXMIX= -45

 Intra band minimization:
   WEIMIN = 0.0000     energy-eigenvalue tresh-hold
   EBREAK =  0.30E-08  absolut break condition
   DEPER  =   0.30     relativ break condition  

   TIME   =   0.40     timestep for ELM

  volume/ion in A,a.u.               =       4.43        29.91
  Fermi-wavevector in a.u.,A,eV,Ry     =   1.582138  2.989808 34.057574  2.503161
  Thomas-Fermi vector in A             =   2.682107
 
 Write flags
   LWAVE  =      F    write WAVECAR
   LCHARG =      F    write CHGCAR
   LVTOT  =      F    write LOCPOT, total local potential
   LVHAR  =      F    write LOCPOT, Hartree potential only
   LELF   =      F    write electronic localiz. function (ELF)
   LORBIT =      0    0 simple, 1 ext, 2 COOP (PROOUT)


 Dipole corrections
   LMONO  =      F    monopole corrections only (constant potential shift)
   LDIPOL =      F    correct potential (dipole corrections)
   IDIPOL =      0    1-x, 2-y, 3-z, 4-all directions 
   EPSILON=  1.0000000 bulk dielectric constant

 Exchange correlation treatment:
   GGA     =    PE    GGA type
   LEXCH   =     8    internal setting for exchange type
   VOSKOWN=      0    Vosko Wilk Nusair interpolation
   LHFCALC =     F    Hartree Fock is set to
   LHFONE  =     F    Hartree Fock one center treatment
   AEXX    =    0.0000 exact exchange contribution

 Linear response parameters
   LEPSILON=     F    determine dielectric tensor
   LRPA    =     F    only Hartree local field effects (RPA)
   LNABLA  =     F    use nabla operator in PAW spheres
   LVEL    =     F    velocity operator in full k-point grid
   LINTERFAST=   F  fast interpolation
   KINTER  =     0    interpolate to denser k-point grid
   CSHIFT  =0.1000    complex shift for real part using Kramers Kronig
   OMEGAMAX=  -1.0    maximum frequency
   DEG_THRESHOLD= 0.2000000E-02 threshold for treating states as degnerate
   RTIME   =    0.100 relaxation time in fs

 Orbital magnetization related:
   ORBITALMAG=     F  switch on orbital magnetization
   LCHIMAG   =     F  perturbation theory with respect to B field
   DQ        =  0.001000  dq finite difference perturbation B field



--------------------------------------------------------------------------------------------------------


 Static calculation
 charge density and potential will be updated during run
 non-spin polarized calculation
 Variant of blocked Davidson
 Davidson routine will perform the subspace rotation
 perform sub-space diagonalisation
    after iterative eigenvector-optimisation
 modified Broyden-mixing scheme, WC =      100.0
 initial mixing is a Kerker type mixing with AMIX =  0.4000 and BMIX =      1.0000
 Hartree-type preconditioning will be used
 using additional bands           20
 reciprocal scheme for non local part
 calculate Harris-corrections to forces 
   (improved forces if not selfconsistent)
 use gradient corrections 
 use of overlap-Matrix (Vanderbilt PP)
 Fermi weights with tetrahedron method with Bloechl corrections


--------------------------------------------------------------------------------------------------------


  energy-cutoff  :      600.00
  volume of cell :      141.81
      direct lattice vectors                 reciprocal lattice vectors
     4.934310885 -0.000222400  0.000000000     0.202667819  0.117022500  0.000000000
    -2.467348046  4.273127376  0.000000000     0.000010548  0.234026730  0.000000000
     0.000000000  0.000000000  6.725742310     0.000000000  0.000000000  0.148682473

  length of vectors
     4.934310890  4.934310890  6.725742310     0.234026730  0.234026730  0.148682473


 
 k-points in units of 2pi/SCALE and weight: B4C B11C-CBC                            
   0.00000000  0.00000000  0.00000000       0.003
   0.02251865  0.01300250  0.00000000       0.006
   0.04503729  0.02600500  0.00000000       0.006
   0.06755594  0.03900750  0.00000000       0.006
   0.09007459  0.05201000  0.00000000       0.006
   0.00000117  0.02600297  0.00000000       0.006
   0.02251982  0.03900547  0.00000000       0.006
   0.04503847  0.05200797  0.00000000       0.006
   0.06755711  0.06501047  0.00000000       0.006
   0.09007576  0.07801297  0.00000000       0.006
  -0.09007341 -0.02600703  0.00000000       0.006
  -0.06755477 -0.01300453  0.00000000       0.006
  -0.04503612 -0.00000203  0.00000000       0.006
  -0.02251747  0.01300047  0.00000000       0.006
   0.00000234  0.05200594  0.00000000       0.006
   0.02252099  0.06500844  0.00000000       0.006
   0.04503964  0.07801094  0.00000000       0.006
   0.06755828  0.09101344  0.00000000       0.006
   0.09007693  0.10401594  0.00000000       0.006
  -0.09007224 -0.00000406  0.00000000       0.006
  -0.06755360  0.01299844  0.00000000       0.006
  -0.04503495  0.02600094  0.00000000       0.006
  -0.02251630  0.03900344  0.00000000       0.006
   0.00000352  0.07800891  0.00000000       0.006
   0.02252216  0.09101141  0.00000000       0.006
   0.04504081  0.10401391  0.00000000       0.006
   0.06755946  0.11701641  0.00000000       0.006
   0.09007810  0.13001891  0.00000000       0.006
  -0.09007107  0.02599891  0.00000000       0.006
  -0.06755242  0.03900141  0.00000000       0.006
  -0.04503378  0.05200391  0.00000000       0.006
  -0.02251513  0.06500641  0.00000000       0.006
   0.00000469  0.10401188  0.00000000       0.006
   0.02252333  0.11701438  0.00000000       0.006
   0.04504198  0.13001688  0.00000000       0.006
   0.06756063  0.14301938  0.00000000       0.006
   0.09007927  0.15602188  0.00000000       0.006
  -0.09006990  0.05200188  0.00000000       0.006
  -0.06755125  0.06500438  0.00000000       0.006
  -0.04503261  0.07800688  0.00000000       0.006
  -0.02251396  0.09100938  0.00000000       0.006
   0.00000000  0.00000000  0.03717062       0.006
   0.02251865  0.01300250  0.03717062       0.006
   0.04503729  0.02600500  0.03717062       0.006
   0.06755594  0.03900750  0.03717062       0.006
   0.09007459  0.05201000  0.03717062       0.006
  -0.09007459 -0.05201000  0.03717062       0.006
  -0.06755594 -0.03900750  0.03717062       0.006
  -0.04503729 -0.02600500  0.03717062       0.006
  -0.02251865 -0.01300250  0.03717062       0.006
   0.00000117  0.02600297  0.03717062       0.006
   0.02251982  0.03900547  0.03717062       0.006
   0.04503847  0.05200797  0.03717062       0.006
   0.06755711  0.06501047  0.03717062       0.006
   0.09007576  0.07801297  0.03717062       0.006
  -0.09007341 -0.02600703  0.03717062       0.006
  -0.06755477 -0.01300453  0.03717062       0.006
  -0.04503612 -0.00000203  0.03717062       0.006
  -0.02251747  0.01300047  0.03717062       0.006
   0.00000234  0.05200594  0.03717062       0.006
   0.02252099  0.06500844  0.03717062       0.006
   0.04503964  0.07801094  0.03717062       0.006
   0.06755828  0.09101344  0.03717062       0.006
   0.09007693  0.10401594  0.03717062       0.006
  -0.09007224 -0.00000406  0.03717062       0.006
  -0.06755360  0.01299844  0.03717062       0.006
  -0.04503495  0.02600094  0.03717062       0.006
  -0.02251630  0.03900344  0.03717062       0.006
   0.00000352  0.07800891  0.03717062       0.006
   0.02252216  0.09101141  0.03717062       0.006
   0.04504081  0.10401391  0.03717062       0.006
   0.06755946  0.11701641  0.03717062       0.006
   0.09007810  0.13001891  0.03717062       0.006
  -0.09007107  0.02599891  0.03717062       0.006
  -0.06755242  0.03900141  0.03717062       0.006
  -0.04503378  0.05200391  0.03717062       0.006
  -0.02251513  0.06500641  0.03717062       0.006
   0.00000469  0.10401188  0.03717062       0.006
   0.02252333  0.11701438  0.03717062       0.006
   0.04504198  0.13001688  0.03717062       0.006
   0.06756063  0.14301938  0.03717062       0.006
   0.09007927  0.15602188  0.03717062       0.006
  -0.09006990  0.05200188  0.03717062       0.006
  -0.06755125  0.06500438  0.03717062       0.006
  -0.04503261  0.07800688  0.03717062       0.006
  -0.02251396  0.09100938  0.03717062       0.006
  -0.00000469 -0.10401188  0.03717062       0.006
   0.02251396 -0.09100938  0.03717062       0.006
   0.04503261 -0.07800688  0.03717062       0.006
   0.06755125 -0.06500438  0.03717062       0.006
   0.09006990 -0.05200188  0.03717062       0.006
  -0.09007927 -0.15602188  0.03717062       0.006
  -0.06756063 -0.14301938  0.03717062       0.006
  -0.04504198 -0.13001688  0.03717062       0.006
  -0.02252333 -0.11701438  0.03717062       0.006
  -0.00000352 -0.07800891  0.03717062       0.006
   0.02251513 -0.06500641  0.03717062       0.006
   0.04503378 -0.05200391  0.03717062       0.006
   0.06755242 -0.03900141  0.03717062       0.006
   0.09007107 -0.02599891  0.03717062       0.006
  -0.09007810 -0.13001891  0.03717062       0.006
  -0.06755946 -0.11701641  0.03717062       0.006
  -0.04504081 -0.10401391  0.03717062       0.006
  -0.02252216 -0.09101141  0.03717062       0.006
  -0.00000234 -0.05200594  0.03717062       0.006
   0.02251630 -0.03900344  0.03717062       0.006
   0.04503495 -0.02600094  0.03717062       0.006
   0.06755360 -0.01299844  0.03717062       0.006
   0.09007224  0.00000406  0.03717062       0.006
  -0.09007693 -0.10401594  0.03717062       0.006
  -0.06755828 -0.09101344  0.03717062       0.006
  -0.04503964 -0.07801094  0.03717062       0.006
  -0.02252099 -0.06500844  0.03717062       0.006
  -0.00000117 -0.02600297  0.03717062       0.006
   0.02251747 -0.01300047  0.03717062       0.006
   0.04503612  0.00000203  0.03717062       0.006
   0.06755477  0.01300453  0.03717062       0.006
   0.09007341  0.02600703  0.03717062       0.006
  -0.09007576 -0.07801297  0.03717062       0.006
  -0.06755711 -0.06501047  0.03717062       0.006
  -0.04503847 -0.05200797  0.03717062       0.006
  -0.02251982 -0.03900547  0.03717062       0.006
   0.00000000  0.00000000  0.07434124       0.003
   0.02251865  0.01300250  0.07434124       0.006
   0.04503729  0.02600500  0.07434124       0.006
   0.06755594  0.03900750  0.07434124       0.006
   0.09007459  0.05201000  0.07434124       0.006
   0.00000117  0.02600297  0.07434124       0.006
   0.02251982  0.03900547  0.07434124       0.006
   0.04503847  0.05200797  0.07434124       0.006
   0.06755711  0.06501047  0.07434124       0.006
   0.09007576  0.07801297  0.07434124       0.006
  -0.09007341 -0.02600703  0.07434124       0.006
  -0.06755477 -0.01300453  0.07434124       0.006
  -0.04503612 -0.00000203  0.07434124       0.006
  -0.02251747  0.01300047  0.07434124       0.006
   0.00000234  0.05200594  0.07434124       0.006
   0.02252099  0.06500844  0.07434124       0.006
   0.04503964  0.07801094  0.07434124       0.006
   0.06755828  0.09101344  0.07434124       0.006
   0.09007693  0.10401594  0.07434124       0.006
  -0.09007224 -0.00000406  0.07434124       0.006
  -0.06755360  0.01299844  0.07434124       0.006
  -0.04503495  0.02600094  0.07434124       0.006
  -0.02251630  0.03900344  0.07434124       0.006
   0.00000352  0.07800891  0.07434124       0.006
   0.02252216  0.09101141  0.07434124       0.006
   0.04504081  0.10401391  0.07434124       0.006
   0.06755946  0.11701641  0.07434124       0.006
   0.09007810  0.13001891  0.07434124       0.006
  -0.09007107  0.02599891  0.07434124       0.006
  -0.06755242  0.03900141  0.07434124       0.006
  -0.04503378  0.05200391  0.07434124       0.006
  -0.02251513  0.06500641  0.07434124       0.006
   0.00000469  0.10401188  0.07434124       0.006
   0.02252333  0.11701438  0.07434124       0.006
   0.04504198  0.13001688  0.07434124       0.006
   0.06756063  0.14301938  0.07434124       0.006
   0.09007927  0.15602188  0.07434124       0.006
  -0.09006990  0.05200188  0.07434124       0.006
  -0.06755125  0.06500438  0.07434124       0.006
  -0.04503261  0.07800688  0.07434124       0.006
  -0.02251396  0.09100938  0.07434124       0.006
 
 k-points in reciprocal lattice and weights: B4C B11C-CBC                            
   0.00000000  0.00000000  0.00000000       0.003
   0.11111111  0.00000000  0.00000000       0.006
   0.22222222  0.00000000  0.00000000       0.006
   0.33333333  0.00000000  0.00000000       0.006
   0.44444444  0.00000000  0.00000000       0.006
  -0.00000000  0.11111111  0.00000000       0.006
   0.11111111  0.11111111  0.00000000       0.006
   0.22222222  0.11111111  0.00000000       0.006
   0.33333333  0.11111111  0.00000000       0.006
   0.44444444  0.11111111  0.00000000       0.006
  -0.44444444  0.11111111  0.00000000       0.006
  -0.33333333  0.11111111  0.00000000       0.006
  -0.22222222  0.11111111  0.00000000       0.006
  -0.11111111  0.11111111  0.00000000       0.006
  -0.00000000  0.22222222  0.00000000       0.006
   0.11111111  0.22222222  0.00000000       0.006
   0.22222222  0.22222222  0.00000000       0.006
   0.33333333  0.22222222  0.00000000       0.006
   0.44444444  0.22222222  0.00000000       0.006
  -0.44444444  0.22222222  0.00000000       0.006
  -0.33333333  0.22222222  0.00000000       0.006
  -0.22222222  0.22222222  0.00000000       0.006
  -0.11111111  0.22222222  0.00000000       0.006
  -0.00000000  0.33333333  0.00000000       0.006
   0.11111111  0.33333333  0.00000000       0.006
   0.22222222  0.33333333  0.00000000       0.006
   0.33333333  0.33333333  0.00000000       0.006
   0.44444444  0.33333333  0.00000000       0.006
  -0.44444444  0.33333333  0.00000000       0.006
  -0.33333333  0.33333333  0.00000000       0.006
  -0.22222222  0.33333333  0.00000000       0.006
  -0.11111111  0.33333333  0.00000000       0.006
  -0.00000000  0.44444444  0.00000000       0.006
   0.11111111  0.44444444  0.00000000       0.006
   0.22222222  0.44444444  0.00000000       0.006
   0.33333333  0.44444444  0.00000000       0.006
   0.44444444  0.44444444  0.00000000       0.006
  -0.44444444  0.44444444  0.00000000       0.006
  -0.33333333  0.44444444  0.00000000       0.006
  -0.22222222  0.44444444  0.00000000       0.006
  -0.11111111  0.44444444  0.00000000       0.006
   0.00000000  0.00000000  0.25000000       0.006
   0.11111111  0.00000000  0.25000000       0.006
   0.22222222  0.00000000  0.25000000       0.006
   0.33333333  0.00000000  0.25000000       0.006
   0.44444444  0.00000000  0.25000000       0.006
  -0.44444444  0.00000000  0.25000000       0.006
  -0.33333333  0.00000000  0.25000000       0.006
  -0.22222222  0.00000000  0.25000000       0.006
  -0.11111111  0.00000000  0.25000000       0.006
  -0.00000000  0.11111111  0.25000000       0.006
   0.11111111  0.11111111  0.25000000       0.006
   0.22222222  0.11111111  0.25000000       0.006
   0.33333333  0.11111111  0.25000000       0.006
   0.44444444  0.11111111  0.25000000       0.006
  -0.44444444  0.11111111  0.25000000       0.006
  -0.33333333  0.11111111  0.25000000       0.006
  -0.22222222  0.11111111  0.25000000       0.006
  -0.11111111  0.11111111  0.25000000       0.006
  -0.00000000  0.22222222  0.25000000       0.006
   0.11111111  0.22222222  0.25000000       0.006
   0.22222222  0.22222222  0.25000000       0.006
   0.33333333  0.22222222  0.25000000       0.006
   0.44444444  0.22222222  0.25000000       0.006
  -0.44444444  0.22222222  0.25000000       0.006
  -0.33333333  0.22222222  0.25000000       0.006
  -0.22222222  0.22222222  0.25000000       0.006
  -0.11111111  0.22222222  0.25000000       0.006
  -0.00000000  0.33333333  0.25000000       0.006
   0.11111111  0.33333333  0.25000000       0.006
   0.22222222  0.33333333  0.25000000       0.006
   0.33333333  0.33333333  0.25000000       0.006
   0.44444444  0.33333333  0.25000000       0.006
  -0.44444444  0.33333333  0.25000000       0.006
  -0.33333333  0.33333333  0.25000000       0.006
  -0.22222222  0.33333333  0.25000000       0.006
  -0.11111111  0.33333333  0.25000000       0.006
  -0.00000000  0.44444444  0.25000000       0.006
   0.11111111  0.44444444  0.25000000       0.006
   0.22222222  0.44444444  0.25000000       0.006
   0.33333333  0.44444444  0.25000000       0.006
   0.44444444  0.44444444  0.25000000       0.006
  -0.44444444  0.44444444  0.25000000       0.006
  -0.33333333  0.44444444  0.25000000       0.006
  -0.22222222  0.44444444  0.25000000       0.006
  -0.11111111  0.44444444  0.25000000       0.006
   0.00000000 -0.44444444  0.25000000       0.006
   0.11111111 -0.44444444  0.25000000       0.006
   0.22222222 -0.44444444  0.25000000       0.006
   0.33333333 -0.44444444  0.25000000       0.006
   0.44444444 -0.44444444  0.25000000       0.006
  -0.44444444 -0.44444444  0.25000000       0.006
  -0.33333333 -0.44444444  0.25000000       0.006
  -0.22222222 -0.44444444  0.25000000       0.006
  -0.11111111 -0.44444444  0.25000000       0.006
   0.00000000 -0.33333333  0.25000000       0.006
   0.11111111 -0.33333333  0.25000000       0.006
   0.22222222 -0.33333333  0.25000000       0.006
   0.33333333 -0.33333333  0.25000000       0.006
   0.44444444 -0.33333333  0.25000000       0.006
  -0.44444444 -0.33333333  0.25000000       0.006
  -0.33333333 -0.33333333  0.25000000       0.006
  -0.22222222 -0.33333333  0.25000000       0.006
  -0.11111111 -0.33333333  0.25000000       0.006
   0.00000000 -0.22222222  0.25000000       0.006
   0.11111111 -0.22222222  0.25000000       0.006
   0.22222222 -0.22222222  0.25000000       0.006
   0.33333333 -0.22222222  0.25000000       0.006
   0.44444444 -0.22222222  0.25000000       0.006
  -0.44444444 -0.22222222  0.25000000       0.006
  -0.33333333 -0.22222222  0.25000000       0.006
  -0.22222222 -0.22222222  0.25000000       0.006
  -0.11111111 -0.22222222  0.25000000       0.006
   0.00000000 -0.11111111  0.25000000       0.006
   0.11111111 -0.11111111  0.25000000       0.006
   0.22222222 -0.11111111  0.25000000       0.006
   0.33333333 -0.11111111  0.25000000       0.006
   0.44444444 -0.11111111  0.25000000       0.006
  -0.44444444 -0.11111111  0.25000000       0.006
  -0.33333333 -0.11111111  0.25000000       0.006
  -0.22222222 -0.11111111  0.25000000       0.006
  -0.11111111 -0.11111111  0.25000000       0.006
   0.00000000  0.00000000  0.50000000       0.003
   0.11111111  0.00000000  0.50000000       0.006
   0.22222222  0.00000000  0.50000000       0.006
   0.33333333  0.00000000  0.50000000       0.006
   0.44444444  0.00000000  0.50000000       0.006
  -0.00000000  0.11111111  0.50000000       0.006
   0.11111111  0.11111111  0.50000000       0.006
   0.22222222  0.11111111  0.50000000       0.006
   0.33333333  0.11111111  0.50000000       0.006
   0.44444444  0.11111111  0.50000000       0.006
  -0.44444444  0.11111111  0.50000000       0.006
  -0.33333333  0.11111111  0.50000000       0.006
  -0.22222222  0.11111111  0.50000000       0.006
  -0.11111111  0.11111111  0.50000000       0.006
  -0.00000000  0.22222222  0.50000000       0.006
   0.11111111  0.22222222  0.50000000       0.006
   0.22222222  0.22222222  0.50000000       0.006
   0.33333333  0.22222222  0.50000000       0.006
   0.44444444  0.22222222  0.50000000       0.006
  -0.44444444  0.22222222  0.50000000       0.006
  -0.33333333  0.22222222  0.50000000       0.006
  -0.22222222  0.22222222  0.50000000       0.006
  -0.11111111  0.22222222  0.50000000       0.006
  -0.00000000  0.33333333  0.50000000       0.006
   0.11111111  0.33333333  0.50000000       0.006
   0.22222222  0.33333333  0.50000000       0.006
   0.33333333  0.33333333  0.50000000       0.006
   0.44444444  0.33333333  0.50000000       0.006
  -0.44444444  0.33333333  0.50000000       0.006
  -0.33333333  0.33333333  0.50000000       0.006
  -0.22222222  0.33333333  0.50000000       0.006
  -0.11111111  0.33333333  0.50000000       0.006
  -0.00000000  0.44444444  0.50000000       0.006
   0.11111111  0.44444444  0.50000000       0.006
   0.22222222  0.44444444  0.50000000       0.006
   0.33333333  0.44444444  0.50000000       0.006
   0.44444444  0.44444444  0.50000000       0.006
  -0.44444444  0.44444444  0.50000000       0.006
  -0.33333333  0.44444444  0.50000000       0.006
  -0.22222222  0.44444444  0.50000000       0.006
  -0.11111111  0.44444444  0.50000000       0.006
 
 position of ions in fractional coordinates (direct lattice) 
   0.49999985  0.00000017  0.12500000
   0.99999985  0.00000017  0.12500000
   0.49999985  0.50000017  0.12500000
   0.99999985  0.50000017  0.12500000
   0.49999985  0.00000017  0.62500000
   0.99999985  0.00000017  0.62500000
   0.49999985  0.50000017  0.62500000
   0.99999985  0.50000017  0.62500000
   0.00000017  0.49999985  0.37500000
   0.50000017  0.49999985  0.37500000
   0.00000017  0.99999985  0.37500000
   0.50000017  0.99999985  0.37500000
   0.00000017  0.49999985  0.87500000
   0.50000017  0.49999985  0.87500000
   0.00000017  0.99999985  0.87500000
   0.50000017  0.99999985  0.87500000
   0.16784827  0.33335053  0.12619880
   0.66664946  0.33335053  0.12500000
   0.16664946  0.83335053  0.12500000
   0.66664946  0.83335053  0.12500000
   0.16664946  0.33335053  0.62500000
   0.66664946  0.33335053  0.62500000
   0.16664946  0.83335053  0.62500000
   0.66664946  0.83335053  0.62500000
   0.33335053  0.16664946  0.37500000
   0.83335053  0.16664946  0.37500000
   0.33335053  0.66664946  0.37500000
   0.83335053  0.66664946  0.37500000
   0.33335053  0.16664946  0.87500000
   0.83335053  0.16664946  0.87500000
   0.33335053  0.66664946  0.87500000
   0.83335053  0.66664946  0.87500000
 
 position of ions in cartesian coordinates  (Angst):
   2.46715426 -0.00011045  0.84071779
   4.93430971 -0.00022165  0.84071779
   1.23348024  2.13645323  0.84071779
   3.70063568  2.13634203  0.84071779
   2.46715426 -0.00011045  4.20358894
   4.93430971 -0.00022165  4.20358894
   1.23348024  2.13645323  4.20358894
   3.70063568  2.13634203  4.20358894
  -1.23367279  2.13656304  2.52215337
   1.23348265  2.13645184  2.52215337
  -2.46734681  4.27312673  2.52215337
  -0.00019137  4.27301553  2.52215337
  -1.23367279  2.13656304  5.88502452
   1.23348265  2.13645184  5.88502452
  -2.46734681  4.27312673  5.88502452
  -0.00019137  4.27301553  5.88502452
   0.00572377  1.42441193  0.84878064
   2.46696394  1.42430100  0.84071779
  -1.23386552  3.56097589  0.84071779
   1.23328992  3.56086469  0.84071779
  -0.00019150  1.42441220  4.20358894
   2.46696394  1.42430100  4.20358894
  -1.23386552  3.56097589  4.20358894
   1.23328992  3.56086469  4.20358894
   1.23367290  0.71204025  2.52215337
   3.70082834  0.71192905  2.52215337
  -0.00000112  2.84860394  2.52215337
   2.46715432  2.84849274  2.52215337
   1.23367290  0.71204025  5.88502452
   3.70082834  0.71192905  5.88502452
  -0.00000112  2.84860394  5.88502452
   2.46715432  2.84849274  5.88502452
 


--------------------------------------------------------------------------------------------------------


 k-point  1 :   0.0000 0.0000 0.0000  plane waves:    4707
 k-point  2 :   0.1111 0.0000 0.0000  plane waves:    4741
 k-point  3 :   0.2222 0.0000 0.0000  plane waves:    4741
 k-point  4 :   0.3333 0.0000 0.0000  plane waves:    4733
 k-point  5 :   0.4444 0.0000 0.0000  plane waves:    4735
 k-point  6 :  -0.0000 0.1111 0.0000  plane waves:    4741
 k-point  7 :   0.1111 0.1111 0.0000  plane waves:    4736
 k-point  8 :   0.2222 0.1111 0.0000  plane waves:    4742
 k-point  9 :   0.3333 0.1111 0.0000  plane waves:    4732
 k-point 10 :   0.4444 0.1111 0.0000  plane waves:    4734
 k-point 11 :  -0.4444 0.1111 0.0000  plane waves:    4732
 k-point 12 :  -0.3333 0.1111 0.0000  plane waves:    4740
 k-point 13 :  -0.2222 0.1111 0.0000  plane waves:    4736
 k-point 14 :  -0.1111 0.1111 0.0000  plane waves:    4741
 k-point 15 :  -0.0000 0.2222 0.0000  plane waves:    4741
 k-point 16 :   0.1111 0.2222 0.0000  plane waves:    4742
 k-point 17 :   0.2222 0.2222 0.0000  plane waves:    4730
 k-point 18 :   0.3333 0.2222 0.0000  plane waves:    4730
 k-point 19 :   0.4444 0.2222 0.0000  plane waves:    4730
 k-point 20 :  -0.4444 0.2222 0.0000  plane waves:    4730
 k-point 21 :  -0.3333 0.2222 0.0000  plane waves:    4740
 k-point 22 :  -0.2222 0.2222 0.0000  plane waves:    4745
 k-point 23 :  -0.1111 0.2222 0.0000  plane waves:    4736
 k-point 24 :  -0.0000 0.3333 0.0000  plane waves:    4733
 k-point 25 :   0.1111 0.3333 0.0000  plane waves:    4732
 k-point 26 :   0.2222 0.3333 0.0000  plane waves:    4730
 k-point 27 :   0.3333 0.3333 0.0000  plane waves:    4752
 k-point 28 :   0.4444 0.3333 0.0000  plane waves:    4730
 k-point 29 :  -0.4444 0.3333 0.0000  plane waves:    4734
 k-point 30 :  -0.3333 0.3333 0.0000  plane waves:    4733
 k-point 31 :  -0.2222 0.3333 0.0000  plane waves:    4740
 k-point 32 :  -0.1111 0.3333 0.0000  plane waves:    4740
 k-point 33 :  -0.0000 0.4444 0.0000  plane waves:    4735
 k-point 34 :   0.1111 0.4444 0.0000  plane waves:    4734
 k-point 35 :   0.2222 0.4444 0.0000  plane waves:    4730
 k-point 36 :   0.3333 0.4444 0.0000  plane waves:    4730
 k-point 37 :   0.4444 0.4444 0.0000  plane waves:    4734
 k-point 38 :  -0.4444 0.4444 0.0000  plane waves:    4735
 k-point 39 :  -0.3333 0.4444 0.0000  plane waves:    4734
 k-point 40 :  -0.2222 0.4444 0.0000  plane waves:    4730
 k-point 41 :  -0.1111 0.4444 0.0000  plane waves:    4732
 k-point 42 :   0.0000 0.0000 0.2500  plane waves:    4701
 k-point 43 :   0.1111 0.0000 0.2500  plane waves:    4724
 k-point 44 :   0.2222 0.0000 0.2500  plane waves:    4727
 k-point 45 :   0.3333 0.0000 0.2500  plane waves:    4749
 k-point 46 :   0.4444 0.0000 0.2500  plane waves:    4736
 k-point 47 :  -0.4444 0.0000 0.2500  plane waves:    4736
 k-point 48 :  -0.3333 0.0000 0.2500  plane waves:    4749
 k-point 49 :  -0.2222 0.0000 0.2500  plane waves:    4727
 k-point 50 :  -0.1111 0.0000 0.2500  plane waves:    4724
 k-point 51 :  -0.0000 0.1111 0.2500  plane waves:    4724
 k-point 52 :   0.1111 0.1111 0.2500  plane waves:    4715
 k-point 53 :   0.2222 0.1111 0.2500  plane waves:    4731
 k-point 54 :   0.3333 0.1111 0.2500  plane waves:    4736
 k-point 55 :   0.4444 0.1111 0.2500  plane waves:    4751
 k-point 56 :  -0.4444 0.1111 0.2500  plane waves:    4736
 k-point 57 :  -0.3333 0.1111 0.2500  plane waves:    4731
 k-point 58 :  -0.2222 0.1111 0.2500  plane waves:    4715
 k-point 59 :  -0.1111 0.1111 0.2500  plane waves:    4724
 k-point 60 :  -0.0000 0.2222 0.2500  plane waves:    4727
 k-point 61 :   0.1111 0.2222 0.2500  plane waves:    4731
 k-point 62 :   0.2222 0.2222 0.2500  plane waves:    4725
 k-point 63 :   0.3333 0.2222 0.2500  plane waves:    4741
 k-point 64 :   0.4444 0.2222 0.2500  plane waves:    4740
 k-point 65 :  -0.4444 0.2222 0.2500  plane waves:    4725
 k-point 66 :  -0.3333 0.2222 0.2500  plane waves:    4731
 k-point 67 :  -0.2222 0.2222 0.2500  plane waves:    4727
 k-point 68 :  -0.1111 0.2222 0.2500  plane waves:    4715
 k-point 69 :  -0.0000 0.3333 0.2500  plane waves:    4749
 k-point 70 :   0.1111 0.3333 0.2500  plane waves:    4736
 k-point 71 :   0.2222 0.3333 0.2500  plane waves:    4741
 k-point 72 :   0.3333 0.3333 0.2500  plane waves:    4746
 k-point 73 :   0.4444 0.3333 0.2500  plane waves:    4740
 k-point 74 :  -0.4444 0.3333 0.2500  plane waves:    4735
 k-point 75 :  -0.3333 0.3333 0.2500  plane waves:    4749
 k-point 76 :  -0.2222 0.3333 0.2500  plane waves:    4731
 k-point 77 :  -0.1111 0.3333 0.2500  plane waves:    4731
 k-point 78 :  -0.0000 0.4444 0.2500  plane waves:    4736
 k-point 79 :   0.1111 0.4444 0.2500  plane waves:    4751
 k-point 80 :   0.2222 0.4444 0.2500  plane waves:    4740
 k-point 81 :   0.3333 0.4444 0.2500  plane waves:    4740
 k-point 82 :   0.4444 0.4444 0.2500  plane waves:    4751
 k-point 83 :  -0.4444 0.4444 0.2500  plane waves:    4736
 k-point 84 :  -0.3333 0.4444 0.2500  plane waves:    4735
 k-point 85 :  -0.2222 0.4444 0.2500  plane waves:    4725
 k-point 86 :  -0.1111 0.4444 0.2500  plane waves:    4736
 k-point 87 :   0.0000-0.4444 0.2500  plane waves:    4736
 k-point 88 :   0.1111-0.4444 0.2500  plane waves:    4736
 k-point 89 :   0.2222-0.4444 0.2500  plane waves:    4725
 k-point 90 :   0.3333-0.4444 0.2500  plane waves:    4735
 k-point 91 :   0.4444-0.4444 0.2500  plane waves:    4736
 k-point 92 :  -0.4444-0.4444 0.2500  plane waves:    4751
 k-point 93 :  -0.3333-0.4444 0.2500  plane waves:    4740
 k-point 94 :  -0.2222-0.4444 0.2500  plane waves:    4740
 k-point 95 :  -0.1111-0.4444 0.2500  plane waves:    4751
 k-point 96 :   0.0000-0.3333 0.2500  plane waves:    4749
 k-point 97 :   0.1111-0.3333 0.2500  plane waves:    4731
 k-point 98 :   0.2222-0.3333 0.2500  plane waves:    4731
 k-point 99 :   0.3333-0.3333 0.2500  plane waves:    4749
 k-point ** :   0.4444-0.3333 0.2500  plane waves:    4735
 k-point ** :  -0.4444-0.3333 0.2500  plane waves:    4740
 k-point ** :  -0.3333-0.3333 0.2500  plane waves:    4746
 k-point ** :  -0.2222-0.3333 0.2500  plane waves:    4741
 k-point ** :  -0.1111-0.3333 0.2500  plane waves:    4736
 k-point ** :   0.0000-0.2222 0.2500  plane waves:    4727
 k-point ** :   0.1111-0.2222 0.2500  plane waves:    4715
 k-point ** :   0.2222-0.2222 0.2500  plane waves:    4727
 k-point ** :   0.3333-0.2222 0.2500  plane waves:    4731
 k-point ** :   0.4444-0.2222 0.2500  plane waves:    4725
 k-point ** :  -0.4444-0.2222 0.2500  plane waves:    4740
 k-point ** :  -0.3333-0.2222 0.2500  plane waves:    4741
 k-point ** :  -0.2222-0.2222 0.2500  plane waves:    4725
 k-point ** :  -0.1111-0.2222 0.2500  plane waves:    4731
 k-point ** :   0.0000-0.1111 0.2500  plane waves:    4724
 k-point ** :   0.1111-0.1111 0.2500  plane waves:    4724
 k-point ** :   0.2222-0.1111 0.2500  plane waves:    4715
 k-point ** :   0.3333-0.1111 0.2500  plane waves:    4731
 k-point ** :   0.4444-0.1111 0.2500  plane waves:    4736
 k-point ** :  -0.4444-0.1111 0.2500  plane waves:    4751
 k-point ** :  -0.3333-0.1111 0.2500  plane waves:    4736
 k-point ** :  -0.2222-0.1111 0.2500  plane waves:    4731
 k-point ** :  -0.1111-0.1111 0.2500  plane waves:    4715
 k-point ** :   0.0000 0.0000 0.5000  plane waves:    4718
 k-point ** :   0.1111 0.0000 0.5000  plane waves:    4700
 k-point ** :   0.2222 0.0000 0.5000  plane waves:    4728
 k-point ** :   0.3333 0.0000 0.5000  plane waves:    4728
 k-point ** :   0.4444 0.0000 0.5000  plane waves:    4746
 k-point ** :  -0.0000 0.1111 0.5000  plane waves:    4700
 k-point ** :   0.1111 0.1111 0.5000  plane waves:    4726
 k-point ** :   0.2222 0.1111 0.5000  plane waves:    4734
 k-point ** :   0.3333 0.1111 0.5000  plane waves:    4732
 k-point ** :   0.4444 0.1111 0.5000  plane waves:    4758
 k-point ** :  -0.4444 0.1111 0.5000  plane waves:    4732
 k-point ** :  -0.3333 0.1111 0.5000  plane waves:    4734
 k-point ** :  -0.2222 0.1111 0.5000  plane waves:    4726
 k-point ** :  -0.1111 0.1111 0.5000  plane waves:    4700
 k-point ** :  -0.0000 0.2222 0.5000  plane waves:    4728
 k-point ** :   0.1111 0.2222 0.5000  plane waves:    4734
 k-point ** :   0.2222 0.2222 0.5000  plane waves:    4728
 k-point ** :   0.3333 0.2222 0.5000  plane waves:    4722
 k-point ** :   0.4444 0.2222 0.5000  plane waves:    4722
 k-point ** :  -0.4444 0.2222 0.5000  plane waves:    4728
 k-point ** :  -0.3333 0.2222 0.5000  plane waves:    4734
 k-point ** :  -0.2222 0.2222 0.5000  plane waves:    4728
 k-point ** :  -0.1111 0.2222 0.5000  plane waves:    4726
 k-point ** :  -0.0000 0.3333 0.5000  plane waves:    4728
 k-point ** :   0.1111 0.3333 0.5000  plane waves:    4732
 k-point ** :   0.2222 0.3333 0.5000  plane waves:    4722
 k-point ** :   0.3333 0.3333 0.5000  plane waves:    4716
 k-point ** :   0.4444 0.3333 0.5000  plane waves:    4722
 k-point ** :  -0.4444 0.3333 0.5000  plane waves:    4732
 k-point ** :  -0.3333 0.3333 0.5000  plane waves:    4728
 k-point ** :  -0.2222 0.3333 0.5000  plane waves:    4734
 k-point ** :  -0.1111 0.3333 0.5000  plane waves:    4734
 k-point ** :  -0.0000 0.4444 0.5000  plane waves:    4746
 k-point ** :   0.1111 0.4444 0.5000  plane waves:    4758
 k-point ** :   0.2222 0.4444 0.5000  plane waves:    4722
 k-point ** :   0.3333 0.4444 0.5000  plane waves:    4722
 k-point ** :   0.4444 0.4444 0.5000  plane waves:    4758
 k-point ** :  -0.4444 0.4444 0.5000  plane waves:    4746
 k-point ** :  -0.3333 0.4444 0.5000  plane waves:    4732
 k-point ** :  -0.2222 0.4444 0.5000  plane waves:    4728
 k-point ** :  -0.1111 0.4444 0.5000  plane waves:    4732

 maximum and minimum number of plane-waves per node :      4758     4700

 maximum number of plane-waves:      4758
 maximum index in each direction: 
   IXMAX=   10   IYMAX=   10   IZMAX=   13
   IXMIN=  -10   IYMIN=  -10   IZMIN=  -13

 WARNING: aliasing errors must be expected set NGX to  42 to avoid them
 WARNING: aliasing errors must be expected set NGY to  42 to avoid them
 NGZ is ok and might be reduce to  54
 aliasing errors are usually negligible using standard VASP settings
 and one can safely disregard these warnings

 serial   3D FFT for wavefunctions
 parallel 3D FFT for charge:
    minimum data exchange during FFTs selected (reduces bandwidth)


 total amount of memory used by VASP on root node   279104. kBytes
========================================================================

   base      :      30000. kBytes
   nonl-proj :      52071. kBytes
   fftplans  :       4432. kBytes
   grid      :       9359. kBytes
   one-center:         98. kBytes
   wavefun   :     183144. kBytes
 
     INWAV:  cpu time    0.00: real time    0.00
 Broyden mixing: mesh for mixing (old mesh)
   NGX = 19   NGY = 19   NGZ = 27
  (NGX  = 80   NGY  = 80   NGZ  =108)
  gives a total of   9747 points

 initial charge density was supplied:
 charge density of overlapping atoms calculated
 number of electron     128.0000000 magnetization 
 keeping initial charge density in first step


--------------------------------------------------------------------------------------------------------


 Maximum index for augmentation-charges         1426 (set IRDMAX)


--------------------------------------------------------------------------------------------------------


 First call to EWALD:  gamma=   0.340
 Maximum number of real-space cells 3x 3x 2
 Maximum number of reciprocal cells 3x 3x 3

 FEWALD executed in parallel
    FEWALD:  cpu time    0.00: real time    0.00


----------------------------------------- Iteration    1(   1)  ---------------------------------------


    POTLOK:  cpu time    0.10: real time    0.10
    SETDIJ:  cpu time    0.01: real time    0.01
     EDDAV:  cpu time   78.48: real time   78.53
 BZINTS: Fermi energy: 25.546777;128.000000 electrons
         Band energy:1076.581410;  BLOECHL correction: -0.141116
       DOS:  cpu time    0.20: real time    0.20
    --------------------------------------------
      LOOP:  cpu time   78.79: real time   78.86

 eigenvalue-minimisations  : 27384
 total energy-change (2. order) : 0.4911520E+03  (-0.7870699E+04)
 number of electron     128.0000000 magnetization 
 augmentation part      128.0000000 magnetization 

 Free energy of the ion-electron system (eV)
  ---------------------------------------------------
  alpha Z        PSCENC =       588.37008405
  Ewald energy   TEWEN  =     -6164.92187178
  -Hartree energ DENC   =      -162.76639273
  -exchange      EXHF   =         0.00000000
  -V(xc)+E(xc)   XCENC  =       481.89486755
  PAW double counting   =      1210.60617908    -1247.42152856
  entropy T*S    EENTRO =         0.00000000
  eigenvalues    EBANDS =      1076.58140959
  atomic energy  EATOM  =      4708.80920826
  ---------------------------------------------------
  free energy    TOTEN  =       491.15195547 eV

  energy without entropy =      491.15195547  energy(sigma->0) =      491.15195547


--------------------------------------------------------------------------------------------------------




----------------------------------------- Iteration    1(   2)  ---------------------------------------


     EDDAV:  cpu time   92.56: real time   92.61
 BZINTS: Fermi energy: 15.546765;128.000000 electrons
         Band energy: 401.126569;  BLOECHL correction: -0.206120
       DOS:  cpu time    0.21: real time    0.21
    --------------------------------------------
      LOOP:  cpu time   92.77: real time   92.82

 eigenvalue-minimisations  : 34440
 total energy-change (2. order) :-0.6754548E+03  (-0.6421188E+03)
 number of electron     128.0000000 magnetization 
 augmentation part      128.0000000 magnetization 

 Free energy of the ion-electron system (eV)
  ---------------------------------------------------
  alpha Z        PSCENC =       588.37008405
  Ewald energy   TEWEN  =     -6164.92187178
  -Hartree energ DENC   =      -162.76639273
  -exchange      EXHF   =         0.00000000
  -V(xc)+E(xc)   XCENC  =       481.89486755
  PAW double counting   =      1210.60617908    -1247.42152856
  entropy T*S    EENTRO =         0.00000000
  eigenvalues    EBANDS =       401.12656872
  atomic energy  EATOM  =      4708.80920826
  ---------------------------------------------------
  free energy    TOTEN  =      -184.30288540 eV

  energy without entropy =     -184.30288540  energy(sigma->0) =     -184.30288540


--------------------------------------------------------------------------------------------------------




----------------------------------------- Iteration    1(   3)  ---------------------------------------


     EDDAV:  cpu time   89.71: real time   89.75
 BZINTS: Fermi energy: 14.864737;128.000000 electrons
         Band energy: 366.010414;  BLOECHL correction: -0.246892
       DOS:  cpu time    0.21: real time    0.21
    --------------------------------------------
      LOOP:  cpu time   89.92: real time   89.97

 eigenvalue-minimisations  : 33324
 total energy-change (2. order) :-0.3511616E+02  (-0.3390255E+02)
 number of electron     128.0000000 magnetization 
 augmentation part      128.0000000 magnetization 

 Free energy of the ion-electron system (eV)
  ---------------------------------------------------
  alpha Z        PSCENC =       588.37008405
  Ewald energy   TEWEN  =     -6164.92187178
  -Hartree energ DENC   =      -162.76639273
  -exchange      EXHF   =         0.00000000
  -V(xc)+E(xc)   XCENC  =       481.89486755
  PAW double counting   =      1210.60617908    -1247.42152856
  entropy T*S    EENTRO =         0.00000000
  eigenvalues    EBANDS =       366.01041371
  atomic energy  EATOM  =      4708.80920826
  ---------------------------------------------------
  free energy    TOTEN  =      -219.41904042 eV

  energy without entropy =     -219.41904042  energy(sigma->0) =     -219.41904042


--------------------------------------------------------------------------------------------------------




----------------------------------------- Iteration    1(   4)  ---------------------------------------


     EDDAV:  cpu time   89.58: real time   89.62
 BZINTS: Fermi energy: 14.844008;128.000000 electrons
         Band energy: 365.385902;  BLOECHL correction: -0.250001
       DOS:  cpu time    0.21: real time    0.21
    --------------------------------------------
      LOOP:  cpu time   89.79: real time   89.83

 eigenvalue-minimisations  : 32700
 total energy-change (2. order) :-0.6245114E+00  (-0.6184273E+00)
 number of electron     128.0000000 magnetization 
 augmentation part      128.0000000 magnetization 

 Free energy of the ion-electron system (eV)
  ---------------------------------------------------
  alpha Z        PSCENC =       588.37008405
  Ewald energy   TEWEN  =     -6164.92187178
  -Hartree energ DENC   =      -162.76639273
  -exchange      EXHF   =         0.00000000
  -V(xc)+E(xc)   XCENC  =       481.89486755
  PAW double counting   =      1210.60617908    -1247.42152856
  entropy T*S    EENTRO =         0.00000000
  eigenvalues    EBANDS =       365.38590233
  atomic energy  EATOM  =      4708.80920826
  ---------------------------------------------------
  free energy    TOTEN  =      -220.04355179 eV

  energy without entropy =     -220.04355179  energy(sigma->0) =     -220.04355179


--------------------------------------------------------------------------------------------------------




----------------------------------------- Iteration    1(   5)  ---------------------------------------


     EDDAV:  cpu time   91.06: real time   91.10
 BZINTS: Fermi energy: 14.843439;128.000000 electrons
         Band energy: 365.371165;  BLOECHL correction: -0.250027
       DOS:  cpu time    0.21: real time    0.21
    CHARGE:  cpu time    3.41: real time    3.41
    MIXING:  cpu time    0.00: real time    0.00
    --------------------------------------------
      LOOP:  cpu time   94.69: real time   94.74

 eigenvalue-minimisations  : 34104
 total energy-change (2. order) :-0.1473722E-01  (-0.1473197E-01)
 number of electron     127.9999986 magnetization 
 augmentation part        3.4194345 magnetization 

 Broyden mixing:
  rms(total) = 0.21698E+01    rms(broyden)= 0.21696E+01
  rms(prec ) = 0.31393E+01
  weight for this iteration     100.00

 Free energy of the ion-electron system (eV)
  ---------------------------------------------------
  alpha Z        PSCENC =       588.37008405
  Ewald energy   TEWEN  =     -6164.92187178
  -Hartree energ DENC   =      -162.76639273
  -exchange      EXHF   =         0.00000000
  -V(xc)+E(xc)   XCENC  =       481.89486755
  PAW double counting   =      1210.60617908    -1247.42152856
  entropy T*S    EENTRO =         0.00000000
  eigenvalues    EBANDS =       365.37116511
  atomic energy  EATOM  =      4708.80920826
  ---------------------------------------------------
  free energy    TOTEN  =      -220.05828901 eV

  energy without entropy =     -220.05828901  energy(sigma->0) =     -220.05828901


--------------------------------------------------------------------------------------------------------




----------------------------------------- Iteration    1(   6)  ---------------------------------------


    POTLOK:  cpu time    0.10: real time    0.10
    SETDIJ:  cpu time    0.01: real time    0.01
     EDDAV:  cpu time   84.90: real time   84.94
 BZINTS: Fermi energy: 15.198103;128.000000 electrons
         Band energy: 423.159587;  BLOECHL correction: -0.240493
       DOS:  cpu time    0.22: real time    0.22
    CHARGE:  cpu time    3.41: real time    3.42
    MIXING:  cpu time    0.00: real time    0.00
    --------------------------------------------
      LOOP:  cpu time   88.65: real time   88.70

 eigenvalue-minimisations  : 30864
 total energy-change (2. order) : 0.9476107E+01  (-0.6057617E+00)
 number of electron     127.9999987 magnetization 
 augmentation part        3.3118530 magnetization 

 Broyden mixing:
  rms(total) = 0.11669E+01    rms(broyden)= 0.11669E+01
  rms(prec ) = 0.16751E+01
  weight for this iteration     100.00

 eigenvalues of (default mixing * dielectric matrix)
  average eigenvalue GAMMA=   2.1312
  2.1312

 Free energy of the ion-electron system (eV)
  ---------------------------------------------------
  alpha Z        PSCENC =       588.37008405
  Ewald energy   TEWEN  =     -6164.92187178
  -Hartree energ DENC   =      -212.94378082
  -exchange      EXHF   =         0.00000000
  -V(xc)+E(xc)   XCENC  =       486.99701229
  PAW double counting   =      1687.81656260    -1727.86898427
  entropy T*S    EENTRO =         0.00000000
  eigenvalues    EBANDS =       423.15958724
  atomic energy  EATOM  =      4708.80920826
  ---------------------------------------------------
  free energy    TOTEN  =      -210.58218243 eV

  energy without entropy =     -210.58218243  energy(sigma->0) =     -210.58218243


--------------------------------------------------------------------------------------------------------




----------------------------------------- Iteration    1(   7)  ---------------------------------------


    POTLOK:  cpu time    0.10: real time    0.10
    SETDIJ:  cpu time    0.01: real time    0.01
     EDDAV:  cpu time   82.29: real time   82.34
 BZINTS: Fermi energy: 15.616022;128.000000 electrons
         Band energy: 487.379397;  BLOECHL correction: -0.235400
       DOS:  cpu time    0.21: real time    0.21
    CHARGE:  cpu time    3.35: real time    3.35
    MIXING:  cpu time    0.00: real time    0.00
    --------------------------------------------
      LOOP:  cpu time   85.98: real time   86.03

 eigenvalue-minimisations  : 29544
 total energy-change (2. order) : 0.3291822E+01  (-0.6888891E+00)
 number of electron     127.9999988 magnetization 
 augmentation part        3.1848176 magnetization 

 Broyden mixing:
  rms(total) = 0.12741E+00    rms(broyden)= 0.12727E+00
  rms(prec ) = 0.18937E+00
  weight for this iteration     100.00

 eigenvalues of (default mixing * dielectric matrix)
  average eigenvalue GAMMA=   1.8146
  1.4854  2.1438

 Free energy of the ion-electron system (eV)
  ---------------------------------------------------
  alpha Z        PSCENC =       588.37008405
  Ewald energy   TEWEN  =     -6164.92187178
  -Hartree energ DENC   =      -277.28367735
  -exchange      EXHF   =         0.00000000
  -V(xc)+E(xc)   XCENC  =       493.58288591
  PAW double counting   =      2362.74091102    -2405.96729745
  entropy T*S    EENTRO =         0.00000000
  eigenvalues    EBANDS =       487.37939704
  atomic energy  EATOM  =      4708.80920826
  ---------------------------------------------------
  free energy    TOTEN  =      -207.29036030 eV

  energy without entropy =     -207.29036030  energy(sigma->0) =     -207.29036030


--------------------------------------------------------------------------------------------------------




----------------------------------------- Iteration    1(   8)  ---------------------------------------


    POTLOK:  cpu time    0.10: real time    0.10
    SETDIJ:  cpu time    0.01: real time    0.01
     EDDAV:  cpu time   90.72: real time   90.76
 BZINTS: Fermi energy: 15.614349;128.000000 electrons
         Band energy: 487.334772;  BLOECHL correction: -0.234727
       DOS:  cpu time    0.22: real time    0.22
    CHARGE:  cpu time    3.35: real time    3.35
    MIXING:  cpu time    0.00: real time    0.00
    --------------------------------------------
      LOOP:  cpu time   94.41: real time   94.46

 eigenvalue-minimisations  : 33672
 total energy-change (2. order) :-0.1573761E-01  (-0.2762537E-01)
 number of electron     127.9999988 magnetization 
 augmentation part        3.1825496 magnetization 

 Broyden mixing:
  rms(total) = 0.89518E-01    rms(broyden)= 0.89495E-01
  rms(prec ) = 0.17095E+00
  weight for this iteration     100.00

 eigenvalues of (default mixing * dielectric matrix)
  average eigenvalue GAMMA=   1.5397
  2.1914  1.9574  0.4703

 Free energy of the ion-electron system (eV)
  ---------------------------------------------------
  alpha Z        PSCENC =       588.37008405
  Ewald energy   TEWEN  =     -6164.92187178
  -Hartree energ DENC   =      -277.47464949
  -exchange      EXHF   =         0.00000000
  -V(xc)+E(xc)   XCENC  =       493.60866181
  PAW double counting   =      2393.94895092    -2436.98125383
  entropy T*S    EENTRO =         0.00000000
  eigenvalues    EBANDS =       487.33477215
  atomic energy  EATOM  =      4708.80920826
  ---------------------------------------------------
  free energy    TOTEN  =      -207.30609791 eV

  energy without entropy =     -207.30609791  energy(sigma->0) =     -207.30609791


--------------------------------------------------------------------------------------------------------




----------------------------------------- Iteration    1(   9)  ---------------------------------------


    POTLOK:  cpu time    0.10: real time    0.10
    SETDIJ:  cpu time    0.01: real time    0.01
     EDDAV:  cpu time   91.59: real time   91.63
 BZINTS: Fermi energy: 15.612441;128.000000 electrons
         Band energy: 487.174376;  BLOECHL correction: -0.239449
       DOS:  cpu time    0.19: real time    0.19
    CHARGE:  cpu time    3.34: real time    3.35
    MIXING:  cpu time    0.00: real time    0.00
    --------------------------------------------
      LOOP:  cpu time   95.24: real time   95.29

 eigenvalue-minimisations  : 34332
 total energy-change (2. order) : 0.2917015E-02  (-0.5384106E-02)
 number of electron     127.9999988 magnetization 
 augmentation part        3.1828026 magnetization 

 Broyden mixing:
  rms(total) = 0.29695E-01    rms(broyden)= 0.29686E-01
  rms(prec ) = 0.38526E-01
  weight for this iteration     100.00

 eigenvalues of (default mixing * dielectric matrix)
  average eigenvalue GAMMA=   1.4793
  2.4672  2.0768  0.9544  0.4188

 Free energy of the ion-electron system (eV)
  ---------------------------------------------------
  alpha Z        PSCENC =       588.37008405
  Ewald energy   TEWEN  =     -6164.92187178
  -Hartree energ DENC   =      -277.54108128
  -exchange      EXHF   =         0.00000000
  -V(xc)+E(xc)   XCENC  =       493.62347610
  PAW double counting   =      2425.60740757    -2468.42478019
  entropy T*S    EENTRO =         0.00000000
  eigenvalues    EBANDS =       487.17437637
  atomic energy  EATOM  =      4708.80920826
  ---------------------------------------------------
  free energy    TOTEN  =      -207.30318090 eV

  energy without entropy =     -207.30318090  energy(sigma->0) =     -207.30318090


--------------------------------------------------------------------------------------------------------




----------------------------------------- Iteration    1(  10)  ---------------------------------------


    POTLOK:  cpu time    0.10: real time    0.10
    SETDIJ:  cpu time    0.01: real time    0.01
     EDDAV:  cpu time   85.25: real time   85.29
 BZINTS: Fermi energy: 15.611051;128.000000 electrons
         Band energy: 487.107121;  BLOECHL correction: -0.239381
       DOS:  cpu time    0.21: real time    0.21
    CHARGE:  cpu time    3.37: real time    3.37
    MIXING:  cpu time    0.00: real time    0.00
    --------------------------------------------
      LOOP:  cpu time   88.95: real time   89.00

 eigenvalue-minimisations  : 31092
 total energy-change (2. order) :-0.9079570E-03  (-0.8511467E-03)
 number of electron     127.9999988 magnetization 
 augmentation part        3.1834955 magnetization 

 Broyden mixing:
  rms(total) = 0.14566E-01    rms(broyden)= 0.14560E-01
[...]
     80      20.4828      0.00000
     81      21.6726      0.00000
     82      21.6765      0.00000
     83      22.9677      0.00000
     84      22.9734      0.00000

 k-point   162 :      -0.2222    0.4444    0.5000
  band No.  band energies     occupation 
      1      -9.7168      2.00000
      2      -9.7125      2.00000
      3      -7.6344      2.00000
      4      -7.6296      2.00000
      5      -7.6280      2.00000
      6      -7.6221      2.00000
      7      -4.4169      2.00000
      8      -4.4113      2.00000
      9      -4.2490      2.00000
     10      -4.2446      2.00000
     11      -2.7674      2.00000
     12      -2.7626      2.00000
     13      -2.4256      2.00000
     14      -2.4209      2.00000
     15      -2.4196      2.00000
     16      -2.4145      2.00000
     17       0.4544      2.00000
     18       0.4575      2.00000
     19       0.4782      2.00000
     20       0.4822      2.00000
     21       0.4839      2.00000
     22       0.4910      2.00000
     23       0.6878      2.00000
     24       0.6959      2.00000
     25       2.4226      2.00000
     26       2.4257      2.00000
     27       3.6969      2.00000
     28       3.7002      2.00000
     29       3.7019      2.00000
     30       3.7027      2.00000
     31       5.0477      2.00000
     32       5.0497      2.00000
     33       5.0514      2.00000
     34       5.0594      2.00000
     35       5.1597      2.00000
     36       5.1650      2.00000
     37       5.1892      2.00000
     38       5.1970      2.00000
     39       5.4034      2.00000
     40       5.4062      2.00000
     41       6.2789      2.00000
     42       6.2817      2.00000
     43       7.5852      2.00000
     44       7.5890      2.00000
     45       7.5903      2.00000
     46       7.5952      2.00000
     47       8.1612      2.00000
     48       8.1626      2.00000
     49       8.1671      2.00000
     50       8.1710      2.00000
     51       8.9657      2.00000
     52       8.9698      2.00000
     53       9.4248      2.00000
     54       9.4302      2.00000
     55      10.1336      2.00000
     56      10.1393      2.00000
     57      13.0039      2.00000
     58      13.0114      2.00000
     59      14.5202      2.00000
     60      14.5224      2.00000
     61      14.5252      2.00000
     62      14.5272      2.00000
     63      15.3192      1.98162
     64      15.3214      2.10298
     65      16.6690     -0.05911
     66      16.6723      0.00000
     67      16.6734      0.00000
     68      16.6795      0.00000
     69      17.0387      0.00000
     70      17.0478      0.00000
     71      17.1377      0.00000
     72      17.1441      0.00000
     73      18.2716      0.00000
     74      18.2784      0.00000
     75      18.2815      0.00000
     76      18.2865      0.00000
     77      19.2337      0.00000
     78      19.2351      0.00000
     79      20.4505      0.00000
     80      20.4527      0.00000
     81      20.8076      0.00000
     82      20.8087      0.00000
     83      23.0568      0.00000
     84      23.0657      0.00000

 k-point   163 :      -0.1111    0.4444    0.5000
  band No.  band energies     occupation 
      1      -9.6386      2.00000
      2      -9.6343      2.00000
      3      -8.2422      2.00000
      4      -8.2379      2.00000
      5      -6.8764      2.00000
      6      -6.8722      2.00000
      7      -4.9548      2.00000
      8      -4.9507      2.00000
      9      -4.3412      2.00000
     10      -4.3353      2.00000
     11      -3.0016      2.00000
     12      -2.9957      2.00000
     13      -1.9650      2.00000
     14      -1.9610      2.00000
     15      -1.7206      2.00000
     16      -1.7146      2.00000
     17      -0.1267      2.00000
     18      -0.1220      2.00000
     19       0.0062      2.00000
     20       0.0121      2.00000
     21       0.6910      2.00000
     22       0.6951      2.00000
     23       1.2047      2.00000
     24       1.2083      2.00000
     25       2.3529      2.00000
     26       2.3565      2.00000
     27       3.0297      2.00000
     28       3.0343      2.00000
     29       4.5478      2.00000
     30       4.5533      2.00000
     31       4.5866      2.00000
     32       4.5896      2.00000
     33       4.8527      2.00000
     34       4.8558      2.00000
     35       5.2782      2.00000
     36       5.2840      2.00000
     37       5.5110      2.00000
     38       5.5160      2.00000
     39       5.6373      2.00000
     40       5.6404      2.00000
     41       6.4230      2.00000
     42       6.4257      2.00000
     43       6.6967      2.00000
     44       6.7023      2.00000
     45       7.4588      2.00000
     46       7.4622      2.00000
     47       8.5356      2.00000
     48       8.5399      2.00000
     49       8.5424      2.00000
     50       8.5451      2.00000
     51       8.7345      2.00000
     52       8.7393      2.00000
     53       9.6357      2.00000
     54       9.6396      2.00000
     55       9.8236      2.00000
     56       9.8275      2.00000
     57      13.3388      2.00000
     58      13.3440      2.00000
     59      14.3036      2.00000
     60      14.3052      2.00000
     61      14.6773      2.00000
     62      14.6799      2.00000
     63      15.3919      1.94053
     64      15.3936      2.02226
     65      16.2315     -0.48586
     66      16.2337     -0.00383
     67      16.5997      0.00000
     68      16.6044      0.00000
     69      16.8758      0.00000
     70      16.8812      0.00000
     71      17.0862      0.00000
     72      17.0943      0.00000
     73      17.7923      0.00000
     74      17.7962      0.00000
     75      18.9859      0.00000
     76      18.9905      0.00000
     77      19.3333      0.00000
     78      19.3351      0.00000
     79      20.4812      0.00000
     80      20.4835      0.00000
     81      21.6723      0.00000
     82      21.6778      0.00000
     83      22.9693      0.00000
     84      22.9721      0.00000


--------------------------------------------------------------------------------------------------------


 soft charge-density along one line, spin component           1
         0         1         2         3         4         5         6         7         8         9
 total charge-density along one line
 
 pseudopotential strength for first ion, spin component:           1
  9.270  -0.010   0.000  -0.000   0.000   0.000   0.000  -0.000
 -0.010  -0.002  -0.000   0.000  -0.000   0.000   0.000  -0.000
  0.000  -0.000  -3.489  -0.000   0.000  -0.015   0.000   0.000
 -0.000   0.000  -0.000  -3.489  -0.000   0.000  -0.014   0.000
  0.000  -0.000   0.000  -0.000  -3.489   0.000   0.000  -0.015
  0.000   0.000  -0.015   0.000   0.000  -0.753  -0.000   0.000
  0.000   0.000   0.000  -0.014   0.000  -0.000  -0.753  -0.000
 -0.000  -0.000   0.000   0.000  -0.015   0.000  -0.000  -0.753
 total augmentation occupancy for first ion, spin component:           1
  1.532  -1.096  -0.000   0.000  -0.000  -0.000  -0.000   0.000
 -1.096   1.438  -0.000   0.000  -0.000   0.000   0.000  -0.000
 -0.000  -0.000   1.219  -0.000  -0.000   0.226   0.000  -0.000
  0.000   0.000  -0.000   1.064   0.000   0.000   0.146   0.000
 -0.000  -0.000  -0.000   0.000   1.219  -0.000   0.000   0.226
 -0.000   0.000   0.226   0.000  -0.000   0.051  -0.000  -0.000
 -0.000   0.000   0.000   0.146   0.000  -0.000   0.038  -0.000
  0.000  -0.000  -0.000   0.000   0.226  -0.000  -0.000   0.051


------------------------ aborting loop because EDIFF is reached ----------------------------------------


    CHARGE:  cpu time    3.27: real time    3.27
    FORLOC:  cpu time    0.02: real time    0.02
    FORNL :  cpu time   24.89: real time   24.90
    STRESS:  cpu time   44.36: real time   44.38
    FORHAR:  cpu time    0.04: real time    0.04
    MIXING:  cpu time    0.01: real time    0.01
    OFIELD:  cpu time    0.00: real time    0.00

 ---------------------------------------------------------------------------------------------

         DFTD3 V3.0 Rev 1        
 IVDW         = 11
 DF pbe       
 parameters
 VDW_S6       =    1.0000
 VDW_S8       =    0.7220
 VDW_SR       =    1.2170
 rs18     =    1.0000
 alpha6   =   14.0000
 alpha8   =   16.0000
 k1-k3    =   16.0000    1.3333   -4.0000
 VDW_RADIUS   =   50.2022 A
 VDW_CNRADIUS =   21.1671 A
 Edisp (eV)   -4.55854

 E6    (eV) :    -2.7612
 E8    (eV) :    -1.7973
 % E8        : 39.43
    FORVDW:  cpu time    0.89: real time    0.89

  FORCE on cell =-STRESS in cart. coord.  units (eV):
  Direction    XX          YY          ZZ          XY          YZ          ZX
  --------------------------------------------------------------------------------------
  Alpha Z   588.37008   588.37008   588.37008
  Ewald   -1790.52535 -1790.92584 -2583.49798     0.94858     0.00001    -0.00663
  Hartree   112.98600   112.92629    51.83607     0.14187     0.00059    -0.00118
  E(xc)    -498.27893  -498.28006  -500.53983     0.00246     0.00049    -0.00044
  Local    -304.88972  -304.54406   454.92646    -0.95437     0.02066    -0.01633
  n-local   -97.67692   -97.66033  -139.83932     0.01657     0.02797    -0.03503
  augment   -13.29462   -13.29385   -12.38760    -0.00122    -0.00036     0.00052
  Kinetic  2071.73619  2071.40567  2508.04731    -0.23729    -0.21347     0.23554
  Fock        0.00000     0.00000     0.00000     0.00000     0.00000     0.00000
  vdW        -4.47116    -4.47117    -4.94681    -0.00000     0.00000     0.00001
  -------------------------------------------------------------------------------------
  Total      63.95557    63.52674   361.96837    -0.08340    -0.16410     0.17645
  in kB     722.58296   717.73790  4089.59154    -0.94229    -1.85409     1.99361
  external pressure =     1843.30 kB  Pullay stress =        0.00 kB


 VOLUME and BASIS-vectors are now :
 -----------------------------------------------------------------------------
  energy-cutoff  :      600.00
  volume of cell :      141.81
      direct lattice vectors                 reciprocal lattice vectors
     4.934310885 -0.000222400  0.000000000     0.202667819  0.117022500  0.000000000
    -2.467348046  4.273127376  0.000000000     0.000010548  0.234026730  0.000000000
     0.000000000  0.000000000  6.725742310     0.000000000  0.000000000  0.148682473

  length of vectors
     4.934310890  4.934310890  6.725742310     0.234026730  0.234026730  0.148682473


 FORCES acting on ions
    electron-ion (+dipol)            ewald-force                    non-local-force                 convergence-correction
 -----------------------------------------------------------------------------------------------
   -.130E+00 -.103E-02 0.210E+00   0.128E+00 0.129E-02 -.194E+00   0.309E-02 0.562E-02 -.172E-01   0.945E-03 0.524E-03 0.393E-02
   0.403E+00 -.950E-02 0.613E+00   -.402E+00 0.100E-01 -.671E+00   0.353E-01 0.491E-02 0.646E-02   -.936E-03 -.137E-03 0.373E-02
   -.573E+00 -.572E+00 0.614E+00   0.653E+00 0.614E+00 -.677E+00   0.464E-01 0.728E-02 0.950E-02   0.519E-03 0.353E-03 0.393E-02
   -.586E+00 0.569E+00 0.608E+00   0.658E+00 -.607E+00 -.664E+00   0.422E-01 -.416E-02 0.709E-02   -.583E-03 -.690E-03 0.364E-02
   -.149E-01 0.536E-03 -.120E+00   0.841E-02 0.188E-02 0.133E+00   0.346E-02 0.422E-02 -.650E-02   0.180E-03 0.402E-03 -.396E-02
   0.719E-02 0.191E-02 -.167E+00   -.163E-01 0.173E-02 0.175E+00   -.926E-02 0.408E-02 -.282E-01   -.141E-03 -.264E-03 -.376E-02
   -.474E-02 -.404E-02 -.162E+00   -.227E-02 0.101E-01 0.175E+00   -.520E-02 0.111E-02 -.270E-01   0.597E-03 0.261E-04 -.394E-02
   -.341E-02 0.663E-02 -.166E+00   -.252E-02 -.601E-02 0.174E+00   -.515E-02 -.325E-02 -.321E-01   -.538E-03 -.178E-03 -.368E-02
   0.141E+00 -.438E-01 -.381E-01   -.150E+00 0.413E-01 0.248E-01   -.911E-02 -.395E-02 0.329E-01   -.368E-04 -.774E-03 -.104E-02
   -.212E+00 -.157E+00 -.254E+00   0.234E+00 0.177E+00 0.309E+00   0.125E-01 0.136E-01 0.188E-01   0.869E-04 -.248E-03 -.132E-02
   0.582E-01 0.204E+00 -.146E+00   -.758E-01 -.224E+00 0.166E+00   -.137E-01 -.128E-01 0.263E-01   -.442E-03 0.380E-03 -.112E-02
   -.408E-01 0.308E-02 -.379E-01   0.532E-01 -.215E-02 0.293E-01   0.173E-01 -.159E-02 0.117E-01   0.496E-03 0.498E-03 -.116E-02
   -.214E+00 0.161E+00 -.244E+00   0.231E+00 -.178E+00 0.306E+00   0.142E-01 -.203E-01 0.229E-01   -.773E-03 -.101E-02 0.107E-02
   0.146E+00 0.455E-01 -.282E-01   -.150E+00 -.457E-01 0.278E-01   -.122E-01 -.154E-02 0.234E-01   0.717E-03 0.351E-03 0.133E-02
   0.654E-01 -.206E+00 -.136E+00   -.741E-01 0.218E+00 0.167E+00   -.153E-01 0.107E-01 0.237E-01   -.119E-02 -.573E-04 0.115E-02
   -.433E-01 -.151E-02 -.475E-01   0.524E-01 -.217E-02 0.301E-01   0.178E-01 -.429E-02 0.858E-02   0.117E-02 0.798E-03 0.119E-02
   0.153E+01 0.168E-01 0.514E+00   -.167E+01 -.151E-01 -.533E+00   -.834E-01 -.616E-02 -.133E+00   -.344E-03 -.193E-03 0.396E-02
   -.407E+00 0.831E-02 0.277E+00   0.382E+00 -.504E-02 -.234E+00   0.140E-01 -.648E-02 -.341E-01   0.392E-03 -.162E-03 0.377E-02
   -.473E-01 0.207E+00 0.280E+00   0.410E-01 -.202E+00 -.234E+00   0.147E-02 -.855E-02 -.350E-01   -.762E-04 -.509E-04 0.394E-02
   -.491E-01 -.197E+00 0.284E+00   0.410E-01 0.192E+00 -.234E+00   -.875E-03 0.870E-02 -.394E-01   0.291E-04 0.435E-03 0.376E-02
   0.548E-01 0.775E-02 -.276E+00   -.184E-01 -.502E-02 0.239E+00   0.542E-02 -.374E-02 0.271E-01   -.445E-03 -.262E-03 -.397E-02
   -.883E-01 -.712E-04 -.154E+00   0.335E-01 -.502E-02 0.141E+00   0.113E-01 0.110E-02 0.437E-02   0.433E-03 -.166E-03 -.378E-02
   -.753E-02 0.501E-01 -.157E+00   0.917E-02 -.191E-01 0.141E+00   -.283E-02 -.611E-02 0.627E-02   -.858E-04 -.569E-04 -.395E-02
   -.202E-01 -.408E-01 -.158E+00   0.916E-02 0.904E-02 0.141E+00   0.626E-02 0.286E-02 0.762E-02   0.991E-04 0.440E-03 -.376E-02
   -.204E+00 0.181E+00 -.306E+00   0.222E+00 -.174E+00 0.309E+00   -.161E-02 -.477E-02 0.177E-01   0.328E-03 0.124E-03 -.108E-02
   0.142E+00 0.663E-02 -.434E-01   -.162E+00 -.382E-01 0.248E-01   0.318E-02 0.613E-02 0.182E-01   -.394E-03 -.130E-03 -.128E-02
   0.115E+00 -.212E+00 -.175E+00   -.879E-01 0.227E+00 0.166E+00   -.104E-01 -.585E-03 0.176E-01   0.171E-03 0.102E-03 -.116E-02
   -.649E-01 -.731E-02 -.131E-01   0.412E-01 0.525E-02 0.293E-01   0.499E-02 0.421E-02 -.831E-02   -.230E-03 -.266E-03 -.116E-02
   0.149E+00 -.258E-01 -.432E-01   -.162E+00 0.487E-01 0.278E-01   -.166E-02 -.434E-02 0.153E-01   0.364E-03 0.190E-03 0.108E-02
   -.213E+00 -.191E+00 -.300E+00   0.219E+00 0.181E+00 0.306E+00   0.334E-02 0.702E-02 0.136E-01   -.348E-03 0.608E-05 0.129E-02
   0.111E+00 0.206E+00 -.171E+00   -.861E-01 -.215E+00 0.167E+00   -.103E-01 0.263E-02 0.138E-01   0.176E-03 0.213E-03 0.116E-02
   -.613E-01 -.485E-02 -.158E-01   0.404E-01 0.524E-02 0.301E-01   0.666E-02 0.604E-02 -.129E-01   -.125E-03 -.203E-03 0.115E-02
 -----------------------------------------------------------------------------------------------
   -.680E-01 0.242E-02 0.405E-01   -.739E-13 -.183E-13 -.105E-12   0.680E-01 -.240E-02 -.404E-01   0.781E-05 -.111E-04 -.119E-04
 
 
 POSITION                                       TOTAL-FORCE (eV/Angst)
 -----------------------------------------------------------------------------------
      2.46715     -0.00011      0.84072         0.001955      0.006409      0.003525
      4.93431     -0.00022      0.84072         0.035070      0.005287     -0.047067
      1.23348      2.13645      0.84072         0.126349      0.049413     -0.050055
      3.70064      2.13634      0.84072         0.113863     -0.042883     -0.045099
      2.46715     -0.00011      4.20359        -0.002792      0.007028      0.001620
      4.93431     -0.00022      4.20359        -0.018546      0.007452     -0.023895
      1.23348      2.13645      4.20359        -0.011609      0.007186     -0.018167
      3.70064      2.13634      4.20359        -0.011609     -0.002814     -0.027660
     -1.23367      2.13656      2.52215        -0.018435     -0.007251      0.018501
      1.23348      2.13645      2.52215         0.034657      0.033873      0.072129
     -2.46735      4.27313      2.52215        -0.031759     -0.031969      0.045194
     -0.00019      4.27302      2.52215         0.030330     -0.000153      0.002062
     -1.23367      2.13656      5.88502         0.030588     -0.037773      0.085773
      1.23348      2.13645      5.88502        -0.015980     -0.001339      0.024366
     -2.46735      4.27313      5.88502        -0.025149      0.022765      0.055744
     -0.00019      4.27302      5.88502         0.028191     -0.007172     -0.007536
      0.00572      1.42441      0.84878        -0.226684     -0.004748     -0.147944
      2.46696      1.42430      0.84072        -0.010207     -0.003381      0.013419
     -1.23387      3.56098      0.84072        -0.004855     -0.004079      0.014975
      1.23329      3.56086      0.84072        -0.009032      0.004620      0.014308
     -0.00019      1.42441      4.20359         0.041427     -0.001270     -0.014068
      2.46696      1.42430      4.20359        -0.043087     -0.004168     -0.011988
     -1.23387      3.56098      4.20359        -0.001272      0.024849     -0.013788
      1.23329      3.56086      4.20359        -0.004664     -0.028487     -0.012630
      1.23367      0.71204      2.52215         0.016774      0.002049      0.019245
      3.70083      0.71193      2.52215        -0.017613     -0.025588     -0.001710
     -0.00000      2.84860      2.52215         0.017344      0.014366      0.008064
      2.46715      2.84849      2.52215        -0.018842      0.001886      0.006838
      1.23367      0.71204      5.88502        -0.014265      0.018815      0.000884
      3.70083      0.71193      5.88502         0.009158     -0.003149      0.020655
     -0.00000      2.84860      5.88502         0.014971     -0.006003      0.011672
      2.46715      2.84849      5.88502        -0.014276      0.006232      0.002635
 -----------------------------------------------------------------------------------
    total drift:                                0.000031      0.000010      0.000039


--------------------------------------------------------------------------------------------------------



  FREE ENERGIE OF THE ION-ELECTRON SYSTEM (eV)
  ---------------------------------------------------
  free  energy   TOTEN  =      -211.86260509 eV

  energy  without entropy=     -211.86260509  energy(sigma->0) =     -211.86260509
 


--------------------------------------------------------------------------------------------------------


    POTLOK:  cpu time    0.12: real time    0.12


--------------------------------------------------------------------------------------------------------


     LOOP+:  cpu time 1864.02: real time 1865.07
    4ORBIT:  cpu time    0.00: real time    0.00
 BZINTS: Fermi energy: 15.612177;128.000000 electrons
         Band energy: 487.238143;  BLOECHL correction: -0.239550

 total amount of memory used by VASP on root node   279104. kBytes
========================================================================

   base      :      30000. kBytes
   nonl-proj :      52071. kBytes
   fftplans  :       4432. kBytes
   grid      :       9359. kBytes
   one-center:         98. kBytes
   wavefun   :     183144. kBytes
 
  
  
 General timing and accounting informations for this job:
 ========================================================
  
                  Total CPU time used (sec):     1886.137
                            User time (sec):     1518.725
                          System time (sec):      367.412
                         Elapsed time (sec):     1887.381
  
                   Maximum memory used (kb):      419808.
                   Average memory used (kb):           0.
  
                          Minor page faults:     43718516
                          Major page faults:            0
                 Voluntary context switches:          861
