   5   5   0   0
  0.2000000E+03  0.1000000E-08  0.1000000E-08  0.1000000E-08  0.5000000E-15
  1.000000000000000E-004
  CAR 
 benzene                                 
      3.24016283    -18.88693172  301     -9.26164559      1.00000000
    -18.887  0.0000E+00  0.0000E+00
    -18.813  0.0000E+00  0.0000E+00
    -18.739  0.0000E+00  0.0000E+00
    -18.666  0.0000E+00  0.0000E+00
    -18.592  0.0000E+00  0.0000E+00
    -18.518  0.0000E+00  0.0000E+00
    -18.444  0.0000E+00  0.0000E+00
    -18.371  0.0000E+00  0.0000E+00
    -18.297  0.0000E+00  0.0000E+00
    -18.223  0.0000E+00  0.0000E+00
    -18.149  0.0000E+00  0.0000E+00
    -18.076  0.0000E+00  0.0000E+00
    -18.002  0.0000E+00  0.0000E+00
    -17.928  0.0000E+00  0.0000E+00
    -17.854  0.0000E+00  0.0000E+00
    -17.781  0.0000E+00  0.0000E+00
    -17.707  0.0000E+00  0.0000E+00
    -17.633  0.0000E+00  0.0000E+00
    -17.559  0.0000E+00  0.0000E+00
    -17.486  0.0000E+00  0.0000E+00
    -17.412  0.0000E+00  0.0000E+00
    -17.338  0.0000E+00  0.0000E+00
    -17.264  0.0000E+00  0.0000E+00
    -17.191  0.0000E+00  0.0000E+00
    -17.117  0.0000E+00  0.0000E+00
    -17.043  0.0000E+00  0.0000E+00
    -16.969  0.0000E+00  0.0000E+00
    -16.895  0.0000E+00  0.0000E+00
    -16.822  0.0000E+00  0.1000E-01
    -16.748  0.0000E+00  0.1000E-01
    -16.674  0.0000E+00  0.1000E-01
    -16.600  0.0000E+00  0.1000E-01
    -16.527  0.0000E+00  0.1000E-01
    -16.453  0.0000E+00  0.1000E-01
    -16.379  0.0000E+00  0.1000E-01
    -16.305  0.0000E+00  0.1000E-01
    -16.232  0.0000E+00  0.1000E-01
    -16.158  0.0000E+00  0.1000E-01
    -16.084  0.0000E+00  0.1000E-01
    -16.010  0.0000E+00  0.1000E-01
    -15.937  0.0000E+00  0.1000E-01
    -15.863  0.0000E+00  0.1000E-01
    -15.789  0.0000E+00  0.1000E-01
    -15.715  0.0000E+00  0.1000E-01
    -15.642  0.0000E+00  0.1000E-01
    -15.568  0.0000E+00  0.1000E-01
    -15.494  0.0000E+00  0.1000E-01
    -15.420  0.0000E+00  0.1000E-01
    -15.347  0.0000E+00  0.1000E-01
    -15.273  0.0000E+00  0.1000E-01
    -15.199  0.0000E+00  0.1000E-01
    -15.125  0.0000E+00  0.1000E-01
    -15.052  0.0000E+00  0.1000E-01
    -14.978  0.0000E+00  0.1000E-01
    -14.904  0.0000E+00  0.1000E-01
    -14.830  0.0000E+00  0.1000E-01
    -14.757  0.0000E+00  0.1000E-01
    -14.683  0.0000E+00  0.1000E-01
    -14.609  0.0000E+00  0.1000E-01
    -14.535  0.0000E+00  0.1000E-01
    -14.462  0.0000E+00  0.1000E-01
    -14.388  0.0000E+00  0.1000E-01
    -14.314  0.0000E+00  0.1000E-01
    -14.240  0.0000E+00  0.1000E-01
    -14.166  0.0000E+00  0.1000E-01
    -14.093  0.0000E+00  0.1000E-01
    -14.019  0.0000E+00  0.1000E-01
    -13.945  0.0000E+00  0.1000E-01
    -13.871  0.0000E+00  0.1000E-01
    -13.798  0.0000E+00  0.1000E-01
    -13.724  0.0000E+00  0.1000E-01
    -13.650  0.0000E+00  0.1000E-01
    -13.576  0.0000E+00  0.1000E-01
    -13.503  0.0000E+00  0.1000E-01
    -13.429  0.0000E+00  0.1000E-01
    -13.355  0.0000E+00  0.1000E-01
    -13.281  0.0000E+00  0.1000E-01
    -13.208  0.0000E+00  0.1000E-01
    -13.134  0.0000E+00  0.1000E-01
    -13.060  0.0000E+00  0.1000E-01
    -12.986  0.0000E+00  0.1000E-01
    -12.913  0.0000E+00  0.1000E-01
    -12.839  0.0000E+00  0.1000E-01
    -12.765  0.0000E+00  0.1000E-01
    -12.691  0.0000E+00  0.1000E-01
    -12.618  0.0000E+00  0.1000E-01
    -12.544  0.0000E+00  0.1000E-01
    -12.470  0.0000E+00  0.1000E-01
    -12.396  0.0000E+00  0.1000E-01
    -12.323  0.0000E+00  0.1000E-01
    -12.249  0.0000E+00  0.1000E-01
    -12.175  0.0000E+00  0.1000E-01
    -12.101  0.0000E+00  0.1000E-01
    -12.028  0.0000E+00  0.1000E-01
    -11.954  0.0000E+00  0.1000E-01
    -11.880  0.0000E+00  0.1000E-01
    -11.806  0.0000E+00  0.1000E-01
    -11.733  0.0000E+00  0.1000E-01
    -11.659  0.0000E+00  0.1000E-01
    -11.585  0.0000E+00  0.1000E-01
    -11.511  0.0000E+00  0.1000E-01
    -11.437  0.0000E+00  0.1000E-01
    -11.364  0.0000E+00  0.1000E-01
    -11.290  0.0000E+00  0.1000E-01
    -11.216  0.0000E+00  0.1000E-01
    -11.142  0.0000E+00  0.1000E-01
    -11.069  0.0000E+00  0.1000E-01
    -10.995  0.0000E+00  0.1000E-01
    -10.921  0.0000E+00  0.1000E-01
    -10.847  0.0000E+00  0.1000E-01
    -10.774  0.0000E+00  0.1000E-01
    -10.700  0.0000E+00  0.1000E-01
    -10.626  0.0000E+00  0.1000E-01
    -10.552  0.0000E+00  0.1000E-01
    -10.479  0.0000E+00  0.1000E-01
    -10.405  0.0000E+00  0.1000E-01
    -10.331  0.0000E+00  0.1000E-01
    -10.257  0.0000E+00  0.1000E-01
    -10.184  0.0000E+00  0.1000E-01
    -10.110  0.0000E+00  0.1000E-01
    -10.036  0.0000E+00  0.1000E-01
     -9.962  0.0000E+00  0.1000E-01
     -9.889  0.0000E+00  0.1000E-01
     -9.815  0.0000E+00  0.1000E-01
     -9.741  0.0000E+00  0.1000E-01
     -9.667  0.0000E+00  0.1000E-01
     -9.594  0.0000E+00  0.1000E-01
     -9.520  0.0000E+00  0.1000E-01
     -9.446  0.0000E+00  0.1000E-01
     -9.372  0.0000E+00  0.1000E-01
     -9.299  0.0000E+00  0.1000E-01
     -9.225  0.0000E+00  0.4000E-01
     -9.151  0.0000E+00  0.4000E-01
     -9.077  0.0000E+00  0.4000E-01
     -9.003  0.0000E+00  0.4000E-01
     -8.930  0.0000E+00  0.4000E-01
     -8.856  0.0000E+00  0.4000E-01
     -8.782  0.0000E+00  0.4000E-01
     -8.708  0.0000E+00  0.4000E-01
     -8.635  0.0000E+00  0.4000E-01
     -8.561  0.0000E+00  0.4000E-01
     -8.487  0.0000E+00  0.4000E-01
     -8.413  0.0000E+00  0.4000E-01
     -8.340  0.0000E+00  0.4000E-01
     -8.266  0.0000E+00  0.4000E-01
     -8.192  0.0000E+00  0.4000E-01
     -8.118  0.0000E+00  0.4000E-01
     -8.045  0.0000E+00  0.4000E-01
     -7.971  0.0000E+00  0.4000E-01
     -7.897  0.0000E+00  0.4000E-01
     -7.823  0.0000E+00  0.4000E-01
     -7.750  0.0000E+00  0.4000E-01
     -7.676  0.0000E+00  0.4000E-01
     -7.602  0.0000E+00  0.4000E-01
     -7.528  0.0000E+00  0.4000E-01
     -7.455  0.0000E+00  0.4000E-01
     -7.381  0.0000E+00  0.4000E-01
     -7.307  0.0000E+00  0.4000E-01
     -7.233  0.0000E+00  0.4000E-01
     -7.160  0.0000E+00  0.4000E-01
     -7.086  0.0000E+00  0.4000E-01
     -7.012  0.0000E+00  0.4000E-01
     -6.938  0.0000E+00  0.4000E-01
     -6.865  0.0000E+00  0.4000E-01
     -6.791  0.0000E+00  0.4000E-01
     -6.717  0.0000E+00  0.4000E-01
     -6.643  0.0000E+00  0.4000E-01
     -6.570  0.0000E+00  0.4000E-01
     -6.496  0.0000E+00  0.4000E-01
     -6.422  0.0000E+00  0.4000E-01
     -6.348  0.0000E+00  0.4000E-01
     -6.274  0.0000E+00  0.4000E-01
     -6.201  0.0000E+00  0.4000E-01
     -6.127  0.0000E+00  0.4000E-01
     -6.053  0.0000E+00  0.4000E-01
     -5.979  0.0000E+00  0.4000E-01
     -5.906  0.0000E+00  0.4000E-01
     -5.832  0.0000E+00  0.4000E-01
     -5.758  0.0000E+00  0.4000E-01
     -5.684  0.0000E+00  0.4000E-01
     -5.611  0.0000E+00  0.4000E-01
     -5.537  0.0000E+00  0.4000E-01
     -5.463  0.0000E+00  0.4000E-01
     -5.389  0.0000E+00  0.4000E-01
     -5.316  0.0000E+00  0.4000E-01
     -5.242  0.0000E+00  0.4000E-01
     -5.168  0.0000E+00  0.4000E-01
     -5.094  0.0000E+00  0.4000E-01
     -5.021  0.0000E+00  0.4000E-01
     -4.947  0.0000E+00  0.4000E-01
     -4.873  0.0000E+00  0.4000E-01
     -4.799  0.0000E+00  0.4000E-01
     -4.726  0.0000E+00  0.4000E-01
     -4.652  0.0000E+00  0.4000E-01
     -4.578  0.0000E+00  0.4000E-01
     -4.504  0.0000E+00  0.4000E-01
     -4.431  0.0000E+00  0.4000E-01
     -4.357  0.0000E+00  0.4000E-01
     -4.283  0.0000E+00  0.4000E-01
     -4.209  0.0000E+00  0.4000E-01
     -4.136  0.0000E+00  0.4000E-01
     -4.062  0.0000E+00  0.4000E-01
     -3.988  0.0000E+00  0.4000E-01
     -3.914  0.0000E+00  0.4000E-01
     -3.841  0.0000E+00  0.4000E-01
     -3.767  0.0000E+00  0.4000E-01
     -3.693  0.0000E+00  0.4000E-01
     -3.619  0.0000E+00  0.4000E-01
     -3.545  0.0000E+00  0.4000E-01
     -3.472  0.0000E+00  0.4000E-01
     -3.398  0.0000E+00  0.4000E-01
     -3.324  0.0000E+00  0.4000E-01
     -3.250  0.0000E+00  0.4000E-01
     -3.177  0.0000E+00  0.4000E-01
     -3.103  0.0000E+00  0.4000E-01
     -3.029  0.0000E+00  0.4000E-01
     -2.955  0.0000E+00  0.4000E-01
     -2.882  0.0000E+00  0.4000E-01
     -2.808  0.0000E+00  0.4000E-01
     -2.734  0.0000E+00  0.4000E-01
     -2.660  0.0000E+00  0.4000E-01
     -2.587  0.0000E+00  0.4000E-01
     -2.513  0.0000E+00  0.4000E-01
     -2.439  0.0000E+00  0.4000E-01
     -2.365  0.0000E+00  0.4000E-01
     -2.292  0.0000E+00  0.4000E-01
     -2.218  0.0000E+00  0.4000E-01
     -2.144  0.0000E+00  0.4000E-01
     -2.070  0.0000E+00  0.4000E-01
     -1.997  0.0000E+00  0.4000E-01
     -1.923  0.0000E+00  0.4000E-01
     -1.849  0.0000E+00  0.4000E-01
     -1.775  0.0000E+00  0.4000E-01
     -1.702  0.0000E+00  0.4000E-01
     -1.628  0.0000E+00  0.4000E-01
     -1.554  0.0000E+00  0.4000E-01
     -1.480  0.0000E+00  0.4000E-01
     -1.407  0.0000E+00  0.4000E-01
     -1.333  0.0000E+00  0.4000E-01
     -1.259  0.0000E+00  0.4000E-01
     -1.185  0.0000E+00  0.4000E-01
     -1.111  0.0000E+00  0.4000E-01
     -1.038  0.0000E+00  0.4000E-01
     -0.964  0.0000E+00  0.4000E-01
     -0.890  0.0000E+00  0.4000E-01
     -0.816  0.0000E+00  0.4000E-01
     -0.743  0.0000E+00  0.4000E-01
     -0.669  0.0000E+00  0.4000E-01
     -0.595  0.0000E+00  0.4000E-01
     -0.521  0.2093E-03  0.4000E-01
     -0.448  0.1112E-01  0.4032E-01
     -0.374  0.2794E-01  0.4176E-01
     -0.300  0.4269E-01  0.4447E-01
     -0.226  0.3450E-01  0.4740E-01
     -0.153  0.1553E-01  0.4930E-01
     -0.079  0.3343E-02  0.4992E-01
     -0.005  0.0000E+00  0.5000E-01
      0.069  0.0000E+00  0.5000E-01
      0.142  0.0000E+00  0.5000E-01
      0.216  0.1785E-02  0.5002E-01
      0.290  0.1873E-01  0.5062E-01
      0.364  0.3630E-01  0.5277E-01
      0.437  0.4109E-01  0.5565E-01
      0.511  0.3375E-01  0.5895E-01
      0.585  0.2221E-01  0.6054E-01
      0.659  0.4611E-01  0.6297E-01
      0.732  0.5171E-01  0.6704E-01
      0.806  0.3627E-01  0.7001E-01
      0.880  0.2889E-01  0.7230E-01
      0.954  0.2713E-01  0.7435E-01
      1.027  0.2585E-01  0.7632E-01
      1.101  0.2470E-01  0.7815E-01
      1.175  0.8910E-02  0.7987E-01
      1.249  0.0000E+00  0.8000E-01
      1.322  0.0000E+00  0.8000E-01
      1.396  0.0000E+00  0.8000E-01
      1.470  0.0000E+00  0.8000E-01
      1.544  0.0000E+00  0.8000E-01
      1.618  0.0000E+00  0.8000E-01
      1.691  0.0000E+00  0.8000E-01
      1.765  0.0000E+00  0.8000E-01
      1.839  0.0000E+00  0.8000E-01
      1.913  0.0000E+00  0.8000E-01
      1.986  0.0000E+00  0.8000E-01
      2.060  0.0000E+00  0.8000E-01
      2.134  0.0000E+00  0.8000E-01
      2.208  0.0000E+00  0.8000E-01
      2.281  0.0000E+00  0.8000E-01
      2.355  0.0000E+00  0.8000E-01
      2.429  0.0000E+00  0.8000E-01
      2.503  0.0000E+00  0.8000E-01
      2.576  0.0000E+00  0.8000E-01
      2.650  0.0000E+00  0.8000E-01
      2.724  0.0000E+00  0.8000E-01
      2.798  0.0000E+00  0.8000E-01
      2.871  0.0000E+00  0.8000E-01
      2.945  0.0000E+00  0.8000E-01
      3.019  0.0000E+00  0.8000E-01
      3.093  0.0000E+00  0.8000E-01
      3.166  0.0000E+00  0.8000E-01
      3.240  0.0000E+00  0.8000E-01
