    5    5  200    1
  0.2000000E+03  0.1000000E-08  0.1000000E-08  0.1000000E-08  0.5000000E-15
  1.000000000000000E-004
  CAR 
 benzene                                 
     17     36     12
