    5    5  200    1
  0.2000000E+03  0.1000000E-08  0.1000000E-08  0.1000000E-08  0.5000000E-15
  1.000000000000000E-004
  CAR 
 benzene                                 
      8     36      8
 
  0.0000000E+00  0.0000000E+00  0.0000000E+00  0.1562500E-01
    1      -16.886911
    2       -9.291652
    3       -9.291390
    4       -9.291198
    5       -0.533083
    6        0.991351
    7        1.032254
    8        1.046025
 
  0.2500000E+00  0.0000000E+00  0.0000000E+00  0.3125000E-01
    1      -16.886906
    2       -9.291646
    3       -9.291387
    4       -9.291216
    5       -0.458890
    6        0.466434
    7        1.104394
    8        1.118893
 
  0.5000000E+00  0.0000000E+00  0.0000000E+00  0.1562500E-01
    1      -16.886907
    2       -9.291644
    3       -9.291384
    4       -9.291234
    5       -0.344260
    6        0.174882
    7        1.221819
    8        1.237909
 
  0.0000000E+00  0.2500000E+00  0.0000000E+00  0.3125000E-01
    1      -16.886905
    2       -9.291665
    3       -9.291395
    4       -9.291191
    5       -0.458823
    6        0.466822
    7        1.095421
    8        1.117988
 
  0.2500000E+00  0.2500000E+00  0.0000000E+00  0.3125000E-01
    1      -16.886900
    2       -9.291655
    3       -9.291389
    4       -9.291203
    5       -0.385553
    6        0.504687
    7        0.602166
    8        1.180254
 
  0.5000000E+00  0.2500000E+00  0.0000000E+00  0.3125000E-01
    1      -16.886908
    2       -9.291658
    3       -9.291398
    4       -9.291233
    5       -0.273915
    6        0.259396
    7        0.711560
    8        1.014086
 
 -0.2500000E+00  0.2500000E+00  0.0000000E+00  0.3125000E-01
    1      -16.886899
    2       -9.291656
    3       -9.291390
    4       -9.291204
    5       -0.385568
    6        0.506531
    7        0.600970
    8        1.180802
 
  0.0000000E+00  0.5000000E+00  0.0000000E+00  0.1562500E-01
    1      -16.886904
    2       -9.291678
    3       -9.291404
    4       -9.291188
    5       -0.343960
    6        0.174478
    7        1.224492
    8        1.236026
 
  0.2500000E+00  0.5000000E+00  0.0000000E+00  0.3125000E-01
    1      -16.886908
    2       -9.291677
    3       -9.291402
    4       -9.291209
    5       -0.273685
    6        0.258975
    7        0.710937
    8        1.014120
 
  0.5000000E+00  0.5000000E+00  0.0000000E+00  0.1562500E-01
    1      -16.886912
    2       -9.291683
    3       -9.291414
    4       -9.291242
    5       -0.171435
    6        0.432881
    7        0.433970
    8        0.665433
 
  0.0000000E+00  0.0000000E+00  0.2500000E+00  0.3125000E-01
    1      -16.886906
    2       -9.291659
    3       -9.291397
    4       -9.291193
    5       -0.458919
    6        0.467056
    7        1.105561
    8        1.118456
 
  0.2500000E+00  0.0000000E+00  0.2500000E+00  0.3125000E-01
    1      -16.886900
    2       -9.291650
    3       -9.291390
    4       -9.291206
    5       -0.385766
    6        0.505611
    7        0.603235
    8        1.186416
 
  0.5000000E+00  0.0000000E+00  0.2500000E+00  0.3125000E-01
    1      -16.886907
    2       -9.291651
    3       -9.291398
    4       -9.291238
    5       -0.274280
    6        0.259147
    7        0.713359
    8        1.005086
 
 -0.2500000E+00  0.0000000E+00  0.2500000E+00  0.3125000E-01
    1      -16.886902
    2       -9.291646
    3       -9.291387
    4       -9.291206
    5       -0.385711
    6        0.500441
    7        0.607215
    8        1.183216
 
  0.0000000E+00  0.2500000E+00  0.2500000E+00  0.3125000E-01
    1      -16.886897
    2       -9.291662
    3       -9.291401
    4       -9.291189
    5       -0.385705
    6        0.499787
    7        0.609551
    8        1.173787
 
  0.2500000E+00  0.2500000E+00  0.2500000E+00  0.3125000E-01
    1      -16.886913
    2       -9.291678
    3       -9.291420
    4       -9.291220
    5       -0.313385
    6        0.550775
    7        0.665909
    8        0.697713
 
  0.5000000E+00  0.2500000E+00  0.2500000E+00  0.3125000E-01
    1      -16.886913
    2       -9.291674
    3       -9.291422
    4       -9.291238
    5       -0.204637
    6        0.342505
    7        0.749854
    8        0.830583
 
 -0.2500000E+00  0.2500000E+00  0.2500000E+00  0.3125000E-01
    1      -16.886911
    2       -9.291681
    3       -9.291417
    4       -9.291221
    5       -0.313386
    6        0.548660
    7        0.664080
    8        0.700120
 
  0.0000000E+00  0.5000000E+00  0.2500000E+00  0.3125000E-01
    1      -16.886905
    2       -9.291683
    3       -9.291420
    4       -9.291188
    5       -0.274154
    6        0.258523
    7        0.714577
    8        0.997157
 
  0.2500000E+00  0.5000000E+00  0.2500000E+00  0.3125000E-01
    1      -16.886911
    2       -9.291689
    3       -9.291426
    4       -9.291224
    5       -0.204476
    6        0.342744
    7        0.758346
    8        0.823244
 
  0.5000000E+00  0.5000000E+00  0.2500000E+00  0.3125000E-01
    1      -16.886906
    2       -9.291683
    3       -9.291425
    4       -9.291236
    5       -0.104193
    6        0.510347
    7        0.511980
    8        0.756094
 
 -0.2500000E+00  0.5000000E+00  0.2500000E+00  0.3125000E-01
    1      -16.886913
    2       -9.291689
    3       -9.291429
    4       -9.291220
    5       -0.204587
    6        0.341349
    7        0.753093
    8        0.826574
 
  0.0000000E+00 -0.2500000E+00  0.2500000E+00  0.3125000E-01
    1      -16.886899
    2       -9.291662
    3       -9.291401
    4       -9.291184
    5       -0.385747
    6        0.502452
    7        0.606839
    8        1.175094
 
  0.2500000E+00 -0.2500000E+00  0.2500000E+00  0.3125000E-01
    1      -16.886915
    2       -9.291675
    3       -9.291420
    4       -9.291222
    5       -0.313398
    6        0.553271
    7        0.673023
    8        0.689817
 
  0.5000000E+00 -0.2500000E+00  0.2500000E+00  0.3125000E-01
    1      -16.886915
    2       -9.291678
    3       -9.291416
    4       -9.291236
    5       -0.204659
    6        0.342872
    7        0.755247
    8        0.824305
 
 -0.2500000E+00 -0.2500000E+00  0.2500000E+00  0.3125000E-01
    1      -16.886911
    2       -9.291680
    3       -9.291422
    4       -9.291220
    5       -0.313433
    6        0.548369
    7        0.671841
    8        0.691386
 
  0.0000000E+00  0.0000000E+00  0.5000000E+00  0.1562500E-01
    1      -16.886903
    2       -9.291667
    3       -9.291407
    4       -9.291191
    5       -0.344189
    6        0.174506
    7        1.226656
    8        1.240163
 
  0.2500000E+00  0.0000000E+00  0.5000000E+00  0.3125000E-01
    1      -16.886907
    2       -9.291666
    3       -9.291407
    4       -9.291214
    5       -0.274165
    6        0.258794
    7        0.711726
    8        1.005831
 
  0.5000000E+00  0.0000000E+00  0.5000000E+00  0.1562500E-01
    1      -16.886914
    2       -9.291676
    3       -9.291408
    4       -9.291246
    5       -0.172478
    6        0.434021
    7        0.435008
    8        0.658204
 
  0.0000000E+00  0.2500000E+00  0.5000000E+00  0.3125000E-01
    1      -16.886905
    2       -9.291680
    3       -9.291419
    4       -9.291191
    5       -0.274266
    6        0.258557
    7        0.713673
    8        0.997463
 
  0.2500000E+00  0.2500000E+00  0.5000000E+00  0.3125000E-01
    1      -16.886912
    2       -9.291688
    3       -9.291425
    4       -9.291224
    5       -0.204836
    6        0.341575
    7        0.758776
    8        0.820598
 
  0.5000000E+00  0.2500000E+00  0.5000000E+00  0.3125000E-01
    1      -16.886909
    2       -9.291681
    3       -9.291423
    4       -9.291235
    5       -0.104835
    6        0.511460
    7        0.513485
    8        0.748154
 
 -0.2500000E+00  0.2500000E+00  0.5000000E+00  0.3125000E-01
    1      -16.886911
    2       -9.291684
    3       -9.291429
    4       -9.291221
    5       -0.204774
    6        0.342172
    7        0.759892
    8        0.820778
 
  0.0000000E+00  0.5000000E+00  0.5000000E+00  0.1562500E-01
    1      -16.886913
    2       -9.291700
    3       -9.291443
    4       -9.291188
    5       -0.172732
    6        0.434509
    7        0.436072
    8        0.651220
 
  0.2500000E+00  0.5000000E+00  0.5000000E+00  0.3125000E-01
    1      -16.886909
    2       -9.291692
    3       -9.291433
    4       -9.291215
    5       -0.104977
    6        0.512715
    7        0.514202
    8        0.740472
 
  0.5000000E+00  0.5000000E+00  0.5000000E+00  0.1562500E-01
    1      -16.886932
    2       -9.291717
    3       -9.291465
    4       -9.291259
    5       -0.010232
    6        0.656411
    7        0.658616
    8        0.662182
