benzene                                 
           1
    10.000000    0.000000    0.000000
     0.000000   10.000000    0.000000
     0.000000    0.000000   10.000000
   H    C 
   4   1
Direct configuration=     1
   0.18957999  0.13118000  0.19044000
   0.15721001  0.19747999  0.02899000
   0.17015000  0.02194000  0.05189000
   0.02985000  0.10971000  0.11606000
   0.13670000  0.11508000  0.09685000
Direct configuration=     2
   0.19028503  0.13139564  0.19168709
   0.15748476  0.19857522  0.02809083
   0.17059331  0.02070394  0.05129193
   0.02842916  0.10963616  0.11631752
   0.13669774  0.11507904  0.09684264
Direct configuration=     3
   0.19001586  0.13131331  0.19121097
   0.15737986  0.19815708  0.02843412
   0.17042406  0.02117585  0.05152026
   0.02897162  0.10966435  0.11621921
   0.13669860  0.11507940  0.09684545
