natom:   32
displacements:
- atom:    1
  direction:
    [   1.0000000000000000,  0.0000000000000000,  1.0000000000000000 ]
  displacement:
    [   0.0032831549469835, -0.0000012774120254,  0.0094456811274951 ]
- atom:    1
  direction:
    [  -1.0000000000000000,  0.0000000000000000, -1.0000000000000000 ]
  displacement:
    [  -0.0032831549469835,  0.0000012774120254, -0.0094456811274951 ]
- atom:   17
  direction:
    [   1.0000000000000000,  0.0000000000000000,  1.0000000000000000 ]
  displacement:
    [   0.0032831549469835, -0.0000012774120254,  0.0094456811274951 ]
- atom:   17
  direction:
    [  -1.0000000000000000,  0.0000000000000000, -1.0000000000000000 ]
  displacement:
    [  -0.0032831549469835,  0.0000012774120254, -0.0094456811274951 ]
lattice:
- [     4.932874497991874,    -0.001919285962806,     0.000000000000000 ] # a
- [    -2.468099399296612,     4.271034985876069,     0.000000000000000 ] # b
- [     0.000000000000000,     0.000000000000000,    14.191946558231800 ] # c
points:
- symbol: C  # 1
  coordinates: [  0.499638121184014,  0.000361901985790,  0.125000000000000 ]
  mass: 12.010700
- symbol: C  # 2
  coordinates: [  0.999638121184014,  0.000361901985790,  0.125000000000000 ]
  mass: 12.010700
- symbol: C  # 3
  coordinates: [  0.499638121184014,  0.500361901985790,  0.125000000000000 ]
  mass: 12.010700
- symbol: C  # 4
  coordinates: [  0.999638121184014,  0.500361901985790,  0.125000000000000 ]
  mass: 12.010700
- symbol: C  # 5
  coordinates: [  0.499638121184014,  0.000361901985790,  0.625000000000000 ]
  mass: 12.010700
- symbol: C  # 6
  coordinates: [  0.999638121184014,  0.000361901985790,  0.625000000000000 ]
  mass: 12.010700
- symbol: C  # 7
  coordinates: [  0.499638121184014,  0.500361901985790,  0.625000000000000 ]
  mass: 12.010700
- symbol: C  # 8
  coordinates: [  0.999638121184014,  0.500361901985790,  0.625000000000000 ]
  mass: 12.010700
- symbol: C  # 9
  coordinates: [  0.000361901985790,  0.499638121184014,  0.375000000000000 ]
  mass: 12.010700
- symbol: C  # 10
  coordinates: [  0.500361901985790,  0.499638121184014,  0.375000000000000 ]
  mass: 12.010700
- symbol: C  # 11
  coordinates: [  0.000361901985790,  0.999638121184014,  0.375000000000000 ]
  mass: 12.010700
- symbol: C  # 12
  coordinates: [  0.500361901985790,  0.999638121184014,  0.375000000000000 ]
  mass: 12.010700
- symbol: C  # 13
  coordinates: [  0.000361901985790,  0.499638121184014,  0.875000000000000 ]
  mass: 12.010700
- symbol: C  # 14
  coordinates: [  0.500361901985790,  0.499638121184014,  0.875000000000000 ]
  mass: 12.010700
- symbol: C  # 15
  coordinates: [  0.000361901985790,  0.999638121184014,  0.875000000000000 ]
  mass: 12.010700
- symbol: C  # 16
  coordinates: [  0.500361901985790,  0.999638121184014,  0.875000000000000 ]
  mass: 12.010700
- symbol: C  # 17
  coordinates: [  0.166318739349813,  0.333681251980382,  0.125000000000000 ]
  mass: 12.010700
- symbol: C  # 18
  coordinates: [  0.666318739349813,  0.333681251980382,  0.125000000000000 ]
  mass: 12.010700
- symbol: C  # 19
  coordinates: [  0.166318739349813,  0.833681251980382,  0.125000000000000 ]
  mass: 12.010700
- symbol: C  # 20
  coordinates: [  0.666318739349813,  0.833681251980382,  0.125000000000000 ]
  mass: 12.010700
- symbol: C  # 21
  coordinates: [  0.166318739349813,  0.333681251980382,  0.625000000000000 ]
  mass: 12.010700
- symbol: C  # 22
  coordinates: [  0.666318739349813,  0.333681251980382,  0.625000000000000 ]
  mass: 12.010700
- symbol: C  # 23
  coordinates: [  0.166318739349813,  0.833681251980382,  0.625000000000000 ]
  mass: 12.010700
- symbol: C  # 24
  coordinates: [  0.666318739349813,  0.833681251980382,  0.625000000000000 ]
  mass: 12.010700
- symbol: C  # 25
  coordinates: [  0.333681251980382,  0.166318739349813,  0.375000000000000 ]
  mass: 12.010700
- symbol: C  # 26
  coordinates: [  0.833681251980382,  0.166318739349813,  0.375000000000000 ]
  mass: 12.010700
- symbol: C  # 27
  coordinates: [  0.333681251980382,  0.666318739349813,  0.375000000000000 ]
  mass: 12.010700
- symbol: C  # 28
  coordinates: [  0.833681251980382,  0.666318739349813,  0.375000000000000 ]
  mass: 12.010700
- symbol: C  # 29
  coordinates: [  0.333681251980382,  0.166318739349813,  0.875000000000000 ]
  mass: 12.010700
- symbol: C  # 30
  coordinates: [  0.833681251980382,  0.166318739349813,  0.875000000000000 ]
  mass: 12.010700
- symbol: C  # 31
  coordinates: [  0.333681251980382,  0.666318739349813,  0.875000000000000 ]
  mass: 12.010700
- symbol: C  # 32
  coordinates: [  0.833681251980382,  0.666318739349813,  0.875000000000000 ]
  mass: 12.010700