mesh: [     9,     9,     4 ]
nqpoint: 50     
reciprocal_lattice:
- [   0.40553429,   0.23434576,   0.00000000 ] # a*
- [   0.00018224,   0.46837588,   0.00000000 ] # b*
- [   0.00000000,   0.00000000,   0.14092500 ] # c*
natom:   4      
lattice:
- [     2.466437248995937,    -0.000959642981403,     0.000000000000000 ] # a
- [    -1.234049699648306,     2.135517492938035,     0.000000000000000 ] # b
- [     0.000000000000000,     0.000000000000000,     7.095973279115900 ] # c
points:
- symbol: C  # 1
  coordinates: [  0.999276242368028,  0.000723803971580,  0.250000000000000 ]
  mass: 12.010700
- symbol: C  # 2
  coordinates: [  0.000723803971580,  0.999276242368028,  0.750000000000000 ]
  mass: 12.010700
- symbol: C  # 3
  coordinates: [  0.332637478699626,  0.667362503960765,  0.250000000000000 ]
  mass: 12.010700
- symbol: C  # 4
  coordinates: [  0.667362503960765,  0.332637478699626,  0.750000000000000 ]
  mass: 12.010700
phonon:
- q-position: [    0.0000000,    0.0000000,    0.1250000 ]
  weight: 2    
  band:
  - # 1
    frequency:    -2.4772631843
  - # 2
    frequency:    -2.3286918832
  - # 3
    frequency:    -2.1953860787
  - # 4
    frequency:    -2.1262904715
  - # 5
    frequency:    -0.7229460551
  - # 6
    frequency:     0.8101071848
  - # 7
    frequency:    25.1197735113
  - # 8
    frequency:    26.1344322173
  - # 9
    frequency:    36.8014739688
  - # 10
    frequency:    39.1855528959
  - # 11
    frequency:    39.6849372028
  - # 12
    frequency:    40.3763574309

- q-position: [    0.1111111,    0.0000000,    0.1250000 ]
  weight: 8    
  band:
  - # 1
    frequency:     3.2412574332
  - # 2
    frequency:     4.1662649751
  - # 3
    frequency:     5.7513452285
  - # 4
    frequency:     6.0893909467
  - # 5
    frequency:    11.1650425067
  - # 6
    frequency:    11.5055326694
  - # 7
    frequency:    24.5982801967
  - # 8
    frequency:    25.5356197091
  - # 9
    frequency:    37.5213445539
  - # 10
    frequency:    39.9555824547
  - # 11
    frequency:    40.2773461088
  - # 12
    frequency:    40.8583062581

- q-position: [    0.2222222,    0.0000000,    0.1250000 ]
  weight: 8    
  band:
  - # 1
    frequency:     7.4524894805
  - # 2
    frequency:     7.9656205575
  - # 3
    frequency:    11.5471037679
  - # 4
    frequency:    11.9346374724
  - # 5
    frequency:    21.9809216132
  - # 6
    frequency:    22.2652081067
  - # 7
    frequency:    23.1513830292
  - # 8
    frequency:    23.8738452289
  - # 9
    frequency:    39.0854260937
  - # 10
    frequency:    41.0664963221
  - # 11
    frequency:    41.6904537097
  - # 12
    frequency:    42.3417361621

- q-position: [    0.3333333,    0.0000000,    0.1250000 ]
  weight: 8    
  band:
  - # 1
    frequency:    10.9139520401
  - # 2
    frequency:    11.2940024944
  - # 3
    frequency:    15.9628306916
  - # 4
    frequency:    16.2766907963
  - # 5
    frequency:    21.1171783372
  - # 6
    frequency:    21.5402988620
  - # 7
    frequency:    31.1554405984
  - # 8
    frequency:    31.3706386090
  - # 9
    frequency:    40.6262180681
  - # 10
    frequency:    41.6932955461
  - # 11
    frequency:    42.8307861216
  - # 12
    frequency:    43.2122775141

- q-position: [    0.4444444,    0.0000000,    0.1250000 ]
  weight: 8    
  band:
  - # 1
    frequency:    13.5376663359
  - # 2
    frequency:    13.7432577844
  - # 3
    frequency:    18.4516084398
  - # 4
    frequency:    18.5708543186
  - # 5
    frequency:    19.1621259452
  - # 6
    frequency:    19.3037759087
  - # 7
    frequency:    37.9595589505
  - # 8
    frequency:    38.0575569602
  - # 9
    frequency:    41.5959172374
  - # 10
    frequency:    41.9082433800
  - # 11
    frequency:    41.9482585437
  - # 12
    frequency:    42.0243916213

- q-position: [    0.1111111,    0.1111111,    0.1250000 ]
  weight: 4    
  band:
  - # 1
    frequency:     6.8981889354
  - # 2
    frequency:     7.0718967460
  - # 3
    frequency:     9.7285569133
  - # 4
    frequency:    10.8960267014
  - # 5
    frequency:    18.7056554303
  - # 6
    frequency:    18.9654087310
  - # 7
    frequency:    23.5440529888
  - # 8
    frequency:    24.3133426198
  - # 9
    frequency:    38.7322721349
  - # 10
    frequency:    41.2815685140
  - # 11
    frequency:    41.4352554846
  - # 12
    frequency:    41.7135554673

- q-position: [    0.2222222,    0.1111111,    0.1250000 ]
  weight: 8    
  band:
  - # 1
    frequency:    10.2270223365
  - # 2
    frequency:    10.3870980108
  - # 3
    frequency:    15.1268043873
  - # 4
    frequency:    16.3018307036
  - # 5
    frequency:    21.7319088363
  - # 6
    frequency:    22.2270695382
  - # 7
    frequency:    27.0284830259
  - # 8
    frequency:    27.3142799684
  - # 9
    frequency:    40.5607632891
  - # 10
    frequency:    42.0741403592
  - # 11
    frequency:    42.6734707375
  - # 12
    frequency:    42.9864169683

- q-position: [    0.3333333,    0.1111111,    0.1250000 ]
  weight: 8    
  band:
  - # 1
    frequency:    13.0379923102
  - # 2
    frequency:    13.2058940950
  - # 3
    frequency:    19.1741480657
  - # 4
    frequency:    19.6263349484
  - # 5
    frequency:    19.8183915444
  - # 6
    frequency:    20.0712532094
  - # 7
    frequency:    34.2574906246
  - # 8
    frequency:    34.5132609188
  - # 9
    frequency:    41.8443936141
  - # 10
    frequency:    42.1888922411
  - # 11
    frequency:    42.6620707962
  - # 12
    frequency:    43.1538276380

- q-position: [   -0.5555556,    0.1111111,    0.1250000 ]
  weight: 8    
  band:
  - # 1
    frequency:    14.2730682660
  - # 2
    frequency:    14.4666204211
  - # 3
    frequency:    18.5017332113
  - # 4
    frequency:    18.5691473538
  - # 5
    frequency:    21.0012298271
  - # 6
    frequency:    21.5913190515
  - # 7
    frequency:    39.3632549784
  - # 8
    frequency:    39.4220386388
  - # 9
    frequency:    39.9024965714
  - # 10
    frequency:    40.0014925735
  - # 11
    frequency:    42.6979537598
  - # 12
    frequency:    42.7999697362

- q-position: [   -0.4444444,    0.1111111,    0.1250000 ]
  weight: 8    
  band:
  - # 1
    frequency:    12.3238308084
  - # 2
    frequency:    12.7574375184
  - # 3
    frequency:    19.9522708552
  - # 4
    frequency:    20.2096339883
  - # 5
    frequency:    20.2414017334
  - # 6
    frequency:    20.5891341827
  - # 7
    frequency:    34.7957548301
  - # 8
    frequency:    34.9390538426
  - # 9
    frequency:    41.2194753964
  - # 10
    frequency:    41.8692231007
  - # 11
    frequency:    42.5460668335
  - # 12
    frequency:    42.6618658947

- q-position: [   -0.3333333,    0.1111111,    0.1250000 ]
  weight: 8    
  band:
  - # 1
    frequency:     9.2386518833
  - # 2
    frequency:     9.8941623499
  - # 3
    frequency:    16.8108592604
  - # 4
    frequency:    17.1092477617
  - # 5
    frequency:    22.0197180634
  - # 6
    frequency:    22.6049879178
  - # 7
    frequency:    27.6054081243
  - # 8
    frequency:    27.8265608554
  - # 9
    frequency:    40.2222421246
  - # 10
    frequency:    41.4875038622
  - # 11
    frequency:    42.1315393544
  - # 12
    frequency:    42.7310427876

- q-position: [   -0.2222222,    0.1111111,    0.1250000 ]
  weight: 8    
  band:
  - # 1
    frequency:     5.6921782598
  - # 2
    frequency:     6.6843307048
  - # 3
    frequency:    11.3574468254
  - # 4
    frequency:    11.6633253037
  - # 5
    frequency:    19.3267075474
  - # 6
    frequency:    19.6758651683
  - # 7
    frequency:    23.7278196212
  - # 8
    frequency:    24.5607440722
  - # 9
    frequency:    38.8758844662
  - # 10
    frequency:    40.5807931401
  - # 11
    frequency:    40.6068635438
  - # 12
    frequency:    41.8118766724

- q-position: [   -0.1111111,    0.1111111,    0.1250000 ]
  weight: 4    
  band:
  - # 1
    frequency:     2.2430325312
  - # 2
    frequency:     3.9363343564
  - # 3
    frequency:     5.9909459413
  - # 4
    frequency:     6.3992159916
  - # 5
    frequency:    11.7730522362
  - # 6
    frequency:    12.1852062695
  - # 7
    frequency:    24.6609996604
  - # 8
    frequency:    25.6212955968
  - # 9
    frequency:    37.7370482582
  - # 10
    frequency:    39.5060623409
  - # 11
    frequency:    39.9680651977
  - # 12
    frequency:    40.9348590908

- q-position: [    0.2222222,    0.2222222,    0.1250000 ]
  weight: 4    
  band:
  - # 1
    frequency:    12.8696437387
  - # 2
    frequency:    13.0036511514
  - # 3
    frequency:    19.7912778634
  - # 4
    frequency:    20.0008671658
  - # 5
    frequency:    20.9235320301
  - # 6
    frequency:    22.1885112469
  - # 7
    frequency:    31.7784905163
  - # 8
    frequency:    32.0512718448
  - # 9
    frequency:    42.3612011770
  - # 10
    frequency:    42.4697894455
  - # 11
    frequency:    42.5783582947
  - # 12
    frequency:    43.3113013212

- q-position: [    0.3333333,    0.2222222,    0.1250000 ]
  weight: 8    
  band:
  - # 1
    frequency:    14.9517870591
  - # 2
    frequency:    15.0937239467
  - # 3
    frequency:    17.8840339642
  - # 4
    frequency:    17.9220759306
  - # 5
    frequency:    25.1491121299
  - # 6
    frequency:    26.0658085415
  - # 7
    frequency:    36.1229023493
  - # 8
    frequency:    36.3241614401
  - # 9
    frequency:    40.3785375603
  - # 10
    frequency:    40.4707850028
  - # 11
    frequency:    43.6113290141
  - # 12
    frequency:    43.9160276443

- q-position: [   -0.5555556,    0.2222222,    0.1250000 ]
  weight: 8    
  band:
  - # 1
    frequency:    14.2086148083
  - # 2
    frequency:    14.5443740871
  - # 3
    frequency:    18.3676234367
  - # 4
    frequency:    18.4884598643
  - # 5
    frequency:    25.9246666628
  - # 6
    frequency:    26.4716250652
  - # 7
    frequency:    36.5754972429
  - # 8
    frequency:    36.7725663196
  - # 9
    frequency:    39.7622601492
  - # 10
    frequency:    39.8658984841
  - # 11
    frequency:    43.5343850622
  - # 12
    frequency:    43.6380952022

- q-position: [   -0.4444444,    0.2222222,    0.1250000 ]
  weight: 8    
  band:
  - # 1
    frequency:    11.7300199266
  - # 2
    frequency:    12.2574637645
  - # 3
    frequency:    20.2973235649
  - # 4
    frequency:    20.6671082397
  - # 5
    frequency:    22.6494518385
  - # 6
    frequency:    22.9441108552
  - # 7
    frequency:    32.3729839894
  - # 8
    frequency:    32.7648266451
  - # 9
    frequency:    41.2975054800
  - # 10
    frequency:    41.9944945835
  - # 11
    frequency:    42.4193880195
  - # 12
    frequency:    42.6464878573

- q-position: [   -0.3333333,    0.2222222,    0.1250000 ]
  weight: 8    
  band:
  - # 1
    frequency:     8.9564173631
  - # 2
    frequency:     9.7182154649
  - # 3
    frequency:    16.6648898954
  - # 4
    frequency:    16.8589030664
  - # 5
    frequency:    22.0960859949
  - # 6
    frequency:    22.7257643097
  - # 7
    frequency:    27.9162999373
  - # 8
    frequency:    28.4635497996
  - # 9
    frequency:    40.7314292073
  - # 10
    frequency:    41.3619124109
  - # 11
    frequency:    41.4376611774
  - # 12
    frequency:    42.5458398794

- q-position: [   -0.2222222,    0.2222222,    0.1250000 ]
  weight: 4    
  band:
  - # 1
    frequency:     6.4602775883
  - # 2
    frequency:     7.4917553426
  - # 3
    frequency:    11.8842242428
  - # 4
    frequency:    12.0878229508
  - # 5
    frequency:    22.8148730283
  - # 6
    frequency:    23.3405777644
  - # 7
    frequency:    23.4223096500
  - # 8
    frequency:    24.1411138273
  - # 9
    frequency:    39.8340287146
  - # 10
    frequency:    40.3049148716
  - # 11
    frequency:    40.6665754323
  - # 12
    frequency:    42.1138894609

- q-position: [   -0.6666667,    0.3333333,    0.1250000 ]
  weight: 4    
  band:
  - # 1
    frequency:    15.9725812048
  - # 2
    frequency:    16.1331779078
  - # 3
    frequency:    16.7567418242
  - # 4
    frequency:    16.8703265112
  - # 5
    frequency:    29.2574248053
  - # 6
    frequency:    29.7242312649
  - # 7
    frequency:    37.4424585663
  - # 8
    frequency:    37.5229995681
  - # 9
    frequency:    37.5638212545
  - # 10
    frequency:    37.8351107580
  - # 11
    frequency:    44.1856916416
  - # 12
    frequency:    44.2664085407

- q-position: [   -0.5555556,    0.3333333,    0.1250000 ]
  weight: 8    
  band:
  - # 1
    frequency:    14.2232157750
  - # 2
    frequency:    14.5068354597
  - # 3
    frequency:    18.3854912674
  - # 4
    frequency:    18.4975759813
  - # 5
    frequency:    26.2836820682
  - # 6
    frequency:    26.4084546113
  - # 7
    frequency:    36.3141373190
  - # 8
    frequency:    36.7020924576
  - # 9
    frequency:    39.8159557209
  - # 10
    frequency:    39.9255607288
  - # 11
    frequency:    43.5194025800
  - # 12
    frequency:    43.6081692258

- q-position: [   -0.4444444,    0.3333333,    0.1250000 ]
  weight: 8    
  band:
  - # 1
    frequency:    12.2462014328
  - # 2
    frequency:    12.6684746399
  - # 3
    frequency:    19.9864554664
  - # 4
    frequency:    20.2120938140
  - # 5
    frequency:    20.2976205159
  - # 6
    frequency:    20.3281730725
  - # 7
    frequency:    34.8838803545
  - # 8
    frequency:    35.3702755746
  - # 9
    frequency:    41.4150262927
  - # 10
    frequency:    41.8398306403
  - # 11
    frequency:    42.1540858471
  - # 12
    frequency:    42.5183764025

- q-position: [   -0.3333333,    0.3333333,    0.1250000 ]
  weight: 4    
  band:
  - # 1
    frequency:    10.2419534632
  - # 2
    frequency:    10.8640837189
  - # 3
    frequency:    16.1987995812
  - # 4
    frequency:    16.3094172559
  - # 5
    frequency:    21.3422160468
  - # 6
    frequency:    21.8827503594
  - # 7
    frequency:    31.7962894873
  - # 8
    frequency:    32.3945190219
  - # 9
    frequency:    41.1980708027
  - # 10
    frequency:    41.4229502541
  - # 11
    frequency:    41.5443204905
  - # 12
    frequency:    42.7669460559

- q-position: [   -0.5555556,    0.4444444,    0.1250000 ]
  weight: 4    
  band:
  - # 1
    frequency:    14.2166270823
  - # 2
    frequency:    14.3896567421
  - # 3
    frequency:    18.5786817481
  - # 4
    frequency:    18.6168979231
  - # 5
    frequency:    21.4591906677
  - # 6
    frequency:    21.4828226501
  - # 7
    frequency:    39.3922557151
  - # 8
    frequency:    39.5042284976
  - # 9
    frequency:    39.7853076259
  - # 10
    frequency:    39.8311392527
  - # 11
    frequency:    42.6864070686
  - # 12
    frequency:    42.6947151990

- q-position: [   -0.4444444,    0.4444444,    0.1250000 ]
  weight: 4    
  band:
  - # 1
    frequency:    13.4097195723
  - # 2
    frequency:    13.6479195678
  - # 3
    frequency:    18.5130032891
  - # 4
    frequency:    18.5485319277
  - # 5
    frequency:    19.2223154434
  - # 6
    frequency:    19.4236000621
  - # 7
    frequency:    38.1487081219
  - # 8
    frequency:    38.4513733767
  - # 9
    frequency:    41.4063122113
  - # 10
    frequency:    41.7252324919
  - # 11
    frequency:    41.7959503831
  - # 12
    frequency:    41.8716164910

- q-position: [    0.0000000,    0.0000000,    0.3750000 ]
  weight: 2    
  band:
  - # 1
    frequency:    -3.0178734818
  - # 2
    frequency:    -2.5747356363
  - # 3
    frequency:    -2.3105233216
  - # 4
    frequency:    -1.8249212528
  - # 5
    frequency:     1.0243200191
  - # 6
    frequency:     1.8154271976
  - # 7
    frequency:    25.7603023631
  - # 8
    frequency:    26.1871694866
  - # 9
    frequency:    27.4012501318
  - # 10
    frequency:    27.6969579148
  - # 11
    frequency:    29.8100957243
  - # 12
    frequency:    31.6307354480

- q-position: [    0.1111111,    0.0000000,    0.3750000 ]
  weight: 8    
  band:
  - # 1
    frequency:     4.0654754400
  - # 2
    frequency:     4.3704337969
  - # 3
    frequency:     5.7842701393
  - # 4
    frequency:     6.0910487573
  - # 5
    frequency:    10.7342667338
  - # 6
    frequency:    10.8984150489
  - # 7
    frequency:    25.1934127853
  - # 8
    frequency:    25.5843226742
  - # 9
    frequency:    30.0752324579
  - # 10
    frequency:    30.3556811676
  - # 11
    frequency:    31.7200314521
  - # 12
    frequency:    33.2405436166

- q-position: [    0.2222222,    0.0000000,    0.3750000 ]
  weight: 8    
  band:
  - # 1
    frequency:     7.7624012402
  - # 2
    frequency:     7.9655732672
  - # 3
    frequency:    11.8145202127
  - # 4
    frequency:    12.0397227074
  - # 5
    frequency:    21.8178642530
  - # 6
    frequency:    21.9494147788
  - # 7
    frequency:    23.6027522871
  - # 8
    frequency:    23.9026679532
  - # 9
    frequency:    34.8197750956
  - # 10
    frequency:    35.3241074719
  - # 11
    frequency:    36.4885033087
  - # 12
    frequency:    37.1810703142

- q-position: [    0.3333333,    0.0000000,    0.3750000 ]
  weight: 8    
  band:
  - # 1
    frequency:    11.0569560887
  - # 2
    frequency:    11.2128110564
  - # 3
    frequency:    16.1731754267
  - # 4
    frequency:    16.3177509216
  - # 5
    frequency:    21.3668460117
  - # 6
    frequency:    21.5422108810
  - # 7
    frequency:    31.4371169232
  - # 8
    frequency:    31.5312875862
  - # 9
    frequency:    39.0067170389
  - # 10
    frequency:    39.3747826190
  - # 11
    frequency:    40.5443571858
  - # 12
    frequency:    40.7935970522

- q-position: [    0.4444444,    0.0000000,    0.3750000 ]
  weight: 8    
  band:
  - # 1
    frequency:    13.6007573333
  - # 2
    frequency:    13.6857720049
  - # 3
    frequency:    18.5037266402
  - # 4
    frequency:    18.5535894688
  - # 5
    frequency:    19.2276979891
  - # 6
    frequency:    19.2863402095
  - # 7
    frequency:    38.2491997004
  - # 8
    frequency:    38.2918630731
  - # 9
    frequency:    41.3948486276
  - # 10
    frequency:    41.4487669781
  - # 11
    frequency:    41.5137099148
  - # 12
    frequency:    41.6436750377

- q-position: [    0.1111111,    0.1111111,    0.3750000 ]
  weight: 4    
  band:
  - # 1
    frequency:     7.1817695555
  - # 2
    frequency:     7.2378234335
  - # 3
    frequency:     9.3599881178
  - # 4
    frequency:     9.9117498045
  - # 5
    frequency:    18.3596069642
  - # 6
    frequency:    18.5213947873
  - # 7
    frequency:    24.0308561528
  - # 8
    frequency:    24.3504108864
  - # 9
    frequency:    34.5683209287
  - # 10
    frequency:    34.6132084991
  - # 11
    frequency:    34.8186487319
  - # 12
    frequency:    35.8854045474

- q-position: [    0.2222222,    0.1111111,    0.3750000 ]
  weight: 8    
  band:
  - # 1
    frequency:    10.3543676269
  - # 2
    frequency:    10.4207166122
  - # 3
    frequency:    15.1345262783
  - # 4
    frequency:    15.6336357897
  - # 5
    frequency:    22.0332669787
  - # 6
    frequency:    22.2385844654
  - # 7
    frequency:    26.8355219189
  - # 8
    frequency:    26.9897351897
  - # 9
    frequency:    38.5982335631
  - # 10
    frequency:    39.0308434453
  - # 11
    frequency:    39.5027038368
  - # 12
    frequency:    39.8531067857

- q-position: [    0.3333333,    0.1111111,    0.3750000 ]
  weight: 8    
  band:
  - # 1
    frequency:    13.1039327243
  - # 2
    frequency:    13.1733261833
  - # 3
    frequency:    19.3144961529
  - # 4
    frequency:    19.6770593114
  - # 5
    frequency:    19.7350730815
  - # 6
    frequency:    19.8094933869
  - # 7
    frequency:    34.3378220798
  - # 8
    frequency:    34.4520961619
  - # 9
    frequency:    41.3375408538
  - # 10
    frequency:    41.4277117207
  - # 11
    frequency:    42.1610888364
  - # 12
    frequency:    42.4082356974

- q-position: [   -0.5555556,    0.1111111,    0.3750000 ]
  weight: 8    
  band:
  - # 1
    frequency:    14.3224800916
  - # 2
    frequency:    14.4030233190
  - # 3
    frequency:    18.5164539537
  - # 4
    frequency:    18.5447128849
  - # 5
    frequency:    21.3638054020
  - # 6
    frequency:    21.6074695428
  - # 7
    frequency:    39.2246501049
  - # 8
    frequency:    39.2473317176
  - # 9
    frequency:    40.3625663244
  - # 10
    frequency:    40.3974265361
  - # 11
    frequency:    42.8189736261
  - # 12
    frequency:    42.8639133980

- q-position: [   -0.4444444,    0.1111111,    0.3750000 ]
  weight: 8    
  band:
  - # 1
    frequency:    12.4237372823
  - # 2
    frequency:    12.6029672476
  - # 3
    frequency:    20.1057142730
  - # 4
    frequency:    20.2249981703
  - # 5
    frequency:    21.0479333120
  - # 6
    frequency:    21.2071428348
  - # 7
    frequency:    35.3123517959
  - # 8
    frequency:    35.3596431870
  - # 9
    frequency:    40.5120766589
  - # 10
    frequency:    40.7685043816
  - # 11
    frequency:    41.3921104747
  - # 12
    frequency:    41.4625609133

- q-position: [   -0.3333333,    0.1111111,    0.3750000 ]
  weight: 8    
  band:
  - # 1
    frequency:     9.4653155797
  - # 2
    frequency:     9.7335905451
  - # 3
    frequency:    18.1122596539
  - # 4
    frequency:    18.2456408716
  - # 5
    frequency:    22.3701534650
  - # 6
    frequency:    22.6127239257
  - # 7
    frequency:    27.5525316966
  - # 8
    frequency:    27.6253997003
  - # 9
    frequency:    37.4659013848
  - # 10
    frequency:    37.9039993807
  - # 11
    frequency:    38.8987351016
  - # 12
    frequency:    39.2882188899

- q-position: [   -0.2222222,    0.1111111,    0.3750000 ]
  weight: 8    
  band:
  - # 1
    frequency:     6.1982766674
  - # 2
    frequency:     6.5878206650
  - # 3
    frequency:    11.9459849522
  - # 4
    frequency:    12.0788370369
  - # 5
    frequency:    19.3639251702
  - # 6
    frequency:    19.4821690422
  - # 7
    frequency:    24.2470468119
  - # 8
    frequency:    24.5929467710
  - # 9
    frequency:    33.1324464588
  - # 10
    frequency:    33.4808821131
  - # 11
    frequency:    34.7893509008
  - # 12
    frequency:    35.8302719002

- q-position: [   -0.1111111,    0.1111111,    0.3750000 ]
  weight: 4    
  band:
  - # 1
    frequency:     3.4518725399
  - # 2
    frequency:     4.0071177068
  - # 3
    frequency:     4.9023325359
  - # 4
    frequency:     5.1436944597
  - # 5
    frequency:    12.4514484499
  - # 6
    frequency:    12.5567860118
  - # 7
    frequency:    25.2671307891
  - # 8
    frequency:    25.6676139209
  - # 9
    frequency:    29.6734038456
  - # 10
    frequency:    29.9236172229
  - # 11
    frequency:    31.6122552663
  - # 12
    frequency:    33.1911832101

- q-position: [    0.2222222,    0.2222222,    0.3750000 ]
  weight: 4    
  band:
  - # 1
    frequency:    12.9317945302
  - # 2
    frequency:    12.9873642096
  - # 3
    frequency:    19.9032902906
  - # 4
    frequency:    19.9900901987
  - # 5
    frequency:    21.2031233117
  - # 6
    frequency:    21.7267505956
  - # 7
    frequency:    31.6902315623
  - # 8
    frequency:    31.8146263781
  - # 9
    frequency:    41.5840078804
  - # 10
    frequency:    41.5925256901
  - # 11
    frequency:    42.1403938689
  - # 12
    frequency:    42.4950720940

- q-position: [    0.3333333,    0.2222222,    0.3750000 ]
  weight: 8    
  band:
  - # 1
    frequency:    14.9884218141
  - # 2
    frequency:    15.0481823688
  - # 3
    frequency:    17.8639024147
  - # 4
    frequency:    17.8790253131
  - # 5
    frequency:    25.5920034500
  - # 6
    frequency:    25.9734387932
  - # 7
    frequency:    36.2836005111
  - # 8
    frequency:    36.3615276786
  - # 9
    frequency:    41.0010798871
  - # 10
    frequency:    41.0345657271
  - # 11
    frequency:    43.9857560842
  - # 12
    frequency:    44.1156017723

- q-position: [   -0.5555556,    0.2222222,    0.3750000 ]
  weight: 8    
  band:
  - # 1
    frequency:    14.2492093407
  - # 2
    frequency:    14.3895321359
  - # 3
    frequency:    18.4136328512
  - # 4
    frequency:    18.4634972637
  - # 5
    frequency:    26.9278054411
  - # 6
    frequency:    27.1612712781
  - # 7
    frequency:    37.2970481871
  - # 8
    frequency:    37.3535784445
  - # 9
    frequency:    39.6185160353
  - # 10
    frequency:    39.6648068401
  - # 11
    frequency:    43.6753338826
  - # 12
    frequency:    43.7266963298

- q-position: [   -0.4444444,    0.2222222,    0.3750000 ]
  weight: 8    
  band:
  - # 1
    frequency:    11.8371568581
  - # 2
    frequency:    12.0560706344
  - # 3
    frequency:    20.4976613507
  - # 4
    frequency:    20.6505911633
  - # 5
    frequency:    24.1883468946
  - # 6
    frequency:    24.3033786194
  - # 7
    frequency:    32.5605191675
  - # 8
    frequency:    32.7116189910
  - # 9
    frequency:    40.1299181215
  - # 10
    frequency:    40.4149635334
  - # 11
    frequency:    41.3119585892
  - # 12
    frequency:    41.4295137248

- q-position: [   -0.3333333,    0.2222222,    0.3750000 ]
  weight: 8    
  band:
  - # 1
    frequency:     9.1981823656
  - # 2
    frequency:     9.5112775450
  - # 3
    frequency:    17.0963706302
  - # 4
    frequency:    17.1650182218
  - # 5
    frequency:    22.4649432619
  - # 6
    frequency:    22.7258791112
  - # 7
    frequency:    28.5967089383
  - # 8
    frequency:    28.8152216301
  - # 9
    frequency:    37.6443832484
  - # 10
    frequency:    37.8868866157
  - # 11
    frequency:    38.3708428301
  - # 12
    frequency:    38.9536234090

- q-position: [   -0.2222222,    0.2222222,    0.3750000 ]
  weight: 4    
  band:
  - # 1
    frequency:     6.8968415081
  - # 2
    frequency:     7.3107958855
  - # 3
    frequency:    10.9150895481
  - # 4
    frequency:    11.0241103986
  - # 5
    frequency:    23.7948222458
  - # 6
    frequency:    24.0326489320
  - # 7
    frequency:    24.1105554543
  - # 8
    frequency:    24.2823891876
  - # 9
    frequency:    34.4749790619
  - # 10
    frequency:    34.6448313844
  - # 11
    frequency:    35.6567143427
  - # 12
    frequency:    36.7117569190

- q-position: [   -0.6666667,    0.3333333,    0.3750000 ]
  weight: 4    
  band:
  - # 1
    frequency:    15.9585898745
  - # 2
    frequency:    16.0340327248
  - # 3
    frequency:    16.7705381123
  - # 4
    frequency:    16.8093719331
  - # 5
    frequency:    30.0598841050
  - # 6
    frequency:    30.2729599608
  - # 7
    frequency:    37.9174066500
  - # 8
    frequency:    37.9336034499
  - # 9
    frequency:    38.3672607049
  - # 10
    frequency:    38.4720502160
  - # 11
    frequency:    44.6574101441
  - # 12
    frequency:    44.6932171120

- q-position: [   -0.5555556,    0.3333333,    0.3750000 ]
  weight: 8    
  band:
  - # 1
    frequency:    14.2484513337
  - # 2
    frequency:    14.3673305966
  - # 3
    frequency:    18.4292307616
  - # 4
    frequency:    18.4750103917
  - # 5
    frequency:    27.5458236576
  - # 6
    frequency:    27.5969957795
  - # 7
    frequency:    36.7168797971
  - # 8
    frequency:    36.8692909397
  - # 9
    frequency:    39.7638934897
  - # 10
    frequency:    39.8051264108
  - # 11
    frequency:    43.6500077119
  - # 12
    frequency:    43.6939359977

- q-position: [   -0.4444444,    0.3333333,    0.3750000 ]
  weight: 8    
  band:
  - # 1
    frequency:    12.3335837311
  - # 2
    frequency:    12.5095486986
  - # 3
    frequency:    20.1627332287
  - # 4
    frequency:    20.3035846093
  - # 5
    frequency:    20.6899340930
  - # 6
    frequency:    20.7202351860
  - # 7
    frequency:    35.6213796954
  - # 8
    frequency:    35.8150753708
  - # 9
    frequency:    40.3964770354
  - # 10
    frequency:    40.6296249687
  - # 11
    frequency:    41.3402534054
  - # 12
    frequency:    41.4464862047

- q-position: [   -0.3333333,    0.3333333,    0.3750000 ]
  weight: 4    
  band:
  - # 1
    frequency:    10.4141477153
  - # 2
    frequency:    10.6718225401
  - # 3
    frequency:    15.7683589198
  - # 4
    frequency:    15.8191053472
  - # 5
    frequency:    21.6461079000
  - # 6
    frequency:    21.8698684722
  - # 7
    frequency:    33.0088895680
  - # 8
    frequency:    33.2445654470
  - # 9
    frequency:    38.9628682573
  - # 10
    frequency:    39.0595123445
  - # 11
    frequency:    39.3845611363
  - # 12
    frequency:    39.9183113588

- q-position: [   -0.5555556,    0.4444444,    0.3750000 ]
  weight: 4    
  band:
  - # 1
    frequency:    14.2537582037
  - # 2
    frequency:    14.3257073679
  - # 3
    frequency:    18.5900942136
  - # 4
    frequency:    18.6060857577
  - # 5
    frequency:    21.9800555476
  - # 6
    frequency:    21.9896506702
  - # 7
    frequency:    39.4309133611
  - # 8
    frequency:    39.4771289129
  - # 9
    frequency:    39.9330581010
  - # 10
    frequency:    39.9511164214
  - # 11
    frequency:    42.7413175572
  - # 12
    frequency:    42.7454323962

- q-position: [   -0.4444444,    0.4444444,    0.3750000 ]
  weight: 4    
  band:
  - # 1
    frequency:    13.4698392304
  - # 2
    frequency:    13.5692365861
  - # 3
    frequency:    18.4674755578
  - # 4
    frequency:    18.4822047919
  - # 5
    frequency:    19.3133847020
  - # 6
    frequency:    19.3963316087
  - # 7
    frequency:    38.7372498787
  - # 8
    frequency:    38.8613013453
  - # 9
    frequency:    40.8291999988
  - # 10
    frequency:    40.9621819795
  - # 11
    frequency:    41.5536911980
  - # 12
    frequency:    41.5851065502

