# Thermal properties / unit cell (natom)

unit:
  temperature:   K
  free_energy:   kJ/mol
  entropy:       J/K/mol
  heat_capacity: J/K/mol

natom:     4
num_modes: 3888
num_integrated_modes: 3870

zero_point_energy:      64.1744214
high_T_entropy:        231.1255186

thermal_properties:
- temperature:         0.0000000
  free_energy:        64.1744214
  entropy:             0.0000000
  heat_capacity:       0.0000000
  energy:             64.1744214

- temperature:        10.0000000
  free_energy:        64.1744069
  entropy:             0.0075848
  heat_capacity:       0.0266953
  energy:             64.1744828

- temperature:        20.0000000
  free_energy:        64.1741451
  entropy:             0.0490734
  heat_capacity:       0.1076165
  energy:             64.1751266

- temperature:        30.0000000
  free_energy:        64.1733371
  entropy:             0.1180522
  heat_capacity:       0.2606283
  energy:             64.1768786

- temperature:        40.0000000
  free_energy:        64.1716487
  entropy:             0.2274059
  heat_capacity:       0.5337684
  energy:             64.1807449

- temperature:        50.0000000
  free_energy:        64.1686208
  entropy:             0.3870044
  heat_capacity:       0.9318942
  energy:             64.1879710

- temperature:        60.0000000
  free_energy:        64.1637270
  entropy:             0.6010247
  heat_capacity:       1.4519587
  energy:             64.1997885

- temperature:        70.0000000
  free_energy:        64.1564118
  entropy:             0.8715932
  heat_capacity:       2.0959833
  energy:             64.2174233

- temperature:        80.0000000
  free_energy:        64.1461010
  entropy:             1.2003857
  heat_capacity:       2.8669803
  energy:             64.2421319

- temperature:        90.0000000
  free_energy:        64.1322058
  entropy:             1.5886490
  heat_capacity:       3.7641795
  energy:             64.2751842

- temperature:       100.0000000
  free_energy:        64.1141280
  entropy:             2.0368956
  heat_capacity:       4.7818700
  energy:             64.3178176

- temperature:       110.0000000
  free_energy:        64.0912691
  entropy:             2.5447442
  heat_capacity:       5.9102792
  energy:             64.3711909

- temperature:       120.0000000
  free_energy:        64.0630386
  entropy:             3.1109359
  heat_capacity:       7.1369575
  energy:             64.4363509

- temperature:       130.0000000
  free_energy:        64.0288625
  entropy:             3.7334545
  heat_capacity:       8.4480899
  energy:             64.5142116

- temperature:       140.0000000
  free_energy:        63.9881904
  entropy:             4.4096914
  heat_capacity:       9.8295919
  energy:             64.6055472

- temperature:       150.0000000
  free_energy:        63.9404997
  entropy:             5.1366211
  heat_capacity:      11.2679542
  energy:             64.7109929

- temperature:       160.0000000
  free_energy:        63.8852999
  entropy:             5.9109660
  heat_capacity:      12.7508231
  energy:             64.8310544

- temperature:       170.0000000
  free_energy:        63.8221336
  entropy:             6.7293390
  heat_capacity:      14.2673266
  energy:             64.9661213

- temperature:       180.0000000
  free_energy:        63.7505776
  entropy:             7.5883575
  heat_capacity:      15.8081838
  energy:             65.1164820

- temperature:       190.0000000
  free_energy:        63.6702420
  entropy:             8.4847272
  heat_capacity:      17.3656519
  energy:             65.2823402

- temperature:       200.0000000
  free_energy:        63.5807691
  entropy:             9.4152998
  heat_capacity:      18.9333699
  energy:             65.4638291

- temperature:       210.0000000
  free_energy:        63.4818319
  entropy:            10.3771067
  heat_capacity:      20.5061482
  energy:             65.6610243

- temperature:       220.0000000
  free_energy:        63.3731321
  entropy:            11.3673753
  heat_capacity:      22.0797472
  energy:             65.8739547

- temperature:       230.0000000
  free_energy:        63.2543981
  entropy:            12.3835311
  heat_capacity:      23.6506679
  energy:             66.1026103

- temperature:       240.0000000
  free_energy:        63.1253832
  entropy:            13.4231921
  heat_capacity:      25.2159720
  energy:             66.3469493

- temperature:       250.0000000
  free_energy:        62.9858633
  entropy:            14.4841570
  heat_capacity:      26.7731361
  energy:             66.6069025

- temperature:       260.0000000
  free_energy:        62.8356358
  entropy:            15.5643908
  heat_capacity:      28.3199410
  energy:             66.8823774

- temperature:       270.0000000
  free_energy:        62.6745175
  entropy:            16.6620097
  heat_capacity:      29.8543911
  energy:             67.1732602

- temperature:       280.0000000
  free_energy:        62.5023435
  entropy:            17.7752659
  heat_capacity:      31.3746609
  energy:             67.4794180

- temperature:       290.0000000
  free_energy:        62.3189655
  entropy:            18.9025343
  heat_capacity:      32.8790612
  energy:             67.8007005

- temperature:       300.0000000
  free_energy:        62.1242512
  entropy:            20.0422996
  heat_capacity:      34.3660196
  energy:             68.1369410

- temperature:       310.0000000
  free_energy:        61.9180826
  entropy:            21.1931459
  heat_capacity:      35.8340727
  energy:             68.4879578

- temperature:       320.0000000
  free_energy:        61.7003557
  entropy:            22.3537475
  heat_capacity:      37.2818636
  energy:             68.8535549

- temperature:       330.0000000
  free_energy:        61.4709793
  entropy:            23.5228609
  heat_capacity:      38.7081440
  energy:             69.2335234

- temperature:       340.0000000
  free_energy:        61.2298741
  entropy:            24.6993184
  heat_capacity:      40.1117767
  energy:             69.6276423

- temperature:       350.0000000
  free_energy:        60.9769721
  entropy:            25.8820226
  heat_capacity:      41.4917398
  energy:             70.0356800

- temperature:       360.0000000
  free_energy:        60.7122162
  entropy:            27.0699415
  heat_capacity:      42.8471287
  energy:             70.4573952

- temperature:       370.0000000
  free_energy:        60.4355591
  entropy:            28.2621051
  heat_capacity:      44.1771578
  energy:             70.8925380

- temperature:       380.0000000
  free_energy:        60.1469630
  entropy:            29.4576014
  heat_capacity:      45.4811600
  energy:             71.3408516

- temperature:       390.0000000
  free_energy:        59.8463989
  entropy:            30.6555738
  heat_capacity:      46.7585851
  energy:             71.8020726

- temperature:       400.0000000
  free_energy:        59.5338460
  entropy:            31.8552181
  heat_capacity:      48.0089968
  energy:             72.2759332

- temperature:       410.0000000
  free_energy:        59.2092915
  entropy:            33.0557804
  heat_capacity:      49.2320678
  energy:             72.7621614

- temperature:       420.0000000
  free_energy:        58.8727297
  entropy:            34.2565548
  heat_capacity:      50.4275748
  energy:             73.2604827

- temperature:       430.0000000
  free_energy:        58.5241619
  entropy:            35.4568808
  heat_capacity:      51.5953924
  energy:             73.7706206

- temperature:       440.0000000
  free_energy:        58.1635956
  entropy:            36.6561420
  heat_capacity:      52.7354856
  energy:             74.2922981

- temperature:       450.0000000
  free_energy:        57.7910445
  entropy:            37.8537635
  heat_capacity:      53.8479036
  energy:             74.8252381

- temperature:       460.0000000
  free_energy:        57.4065276
  entropy:            39.0492103
  heat_capacity:      54.9327718
  energy:             75.3691643

- temperature:       470.0000000
  free_energy:        57.0100692
  entropy:            40.2419854
  heat_capacity:      55.9902848
  energy:             75.9238023

- temperature:       480.0000000
  free_energy:        56.6016983
  entropy:            41.4316278
  heat_capacity:      57.0206993
  energy:             76.4888797

- temperature:       490.0000000
  free_energy:        56.1814485
  entropy:            42.6177112
  heat_capacity:      58.0243268
  energy:             77.0641270

- temperature:       500.0000000
  free_energy:        55.7493573
  entropy:            43.7998417
  heat_capacity:      59.0015272
  energy:             77.6492781

- temperature:       510.0000000
  free_energy:        55.3054661
  entropy:            44.9776564
  heat_capacity:      59.9527022
  energy:             78.2440708

- temperature:       520.0000000
  free_energy:        54.8498197
  entropy:            46.1508216
  heat_capacity:      60.8782897
  energy:             78.8482469

- temperature:       530.0000000
  free_energy:        54.3824661
  entropy:            47.3190315
  heat_capacity:      61.7787578
  energy:             79.4615529

- temperature:       540.0000000
  free_energy:        53.9034565
  entropy:            48.4820064
  heat_capacity:      62.6546000
  energy:             80.0837400

- temperature:       550.0000000
  free_energy:        53.4128443
  entropy:            49.6394912
  heat_capacity:      63.5063307
  energy:             80.7145645

- temperature:       560.0000000
  free_energy:        52.9106857
  entropy:            50.7912540
  heat_capacity:      64.3344802
  energy:             81.3537880

- temperature:       570.0000000
  free_energy:        52.3970390
  entropy:            51.9370847
  heat_capacity:      65.1395916
  energy:             82.0011773

- temperature:       580.0000000
  free_energy:        51.8719644
  entropy:            53.0767938
  heat_capacity:      65.9222168
  energy:             82.6565048

- temperature:       590.0000000
  free_energy:        51.3355241
  entropy:            54.2102109
  heat_capacity:      66.6829136
  energy:             83.3195485

- temperature:       600.0000000
  free_energy:        50.7877817
  entropy:            55.3371836
  heat_capacity:      67.4222428
  energy:             83.9900919

- temperature:       610.0000000
  free_energy:        50.2288024
  entropy:            56.4575765
  heat_capacity:      68.1407659
  energy:             84.6679240

- temperature:       620.0000000
  free_energy:        49.6586525
  entropy:            57.5712697
  heat_capacity:      68.8390429
  energy:             85.3528397

- temperature:       630.0000000
  free_energy:        49.0773997
  entropy:            58.6781581
  heat_capacity:      69.5176300
  energy:             86.0446393

- temperature:       640.0000000
  free_energy:        48.4851123
  entropy:            59.7781503
  heat_capacity:      70.1770787
  energy:             86.7431285

- temperature:       650.0000000
  free_energy:        47.8818599
  entropy:            60.8711676
  heat_capacity:      70.8179337
  energy:             87.4481189

- temperature:       660.0000000
  free_energy:        47.2677125
  entropy:            61.9571432
  heat_capacity:      71.4407322
  energy:             88.1594270

- temperature:       670.0000000
  free_energy:        46.6427407
  entropy:            63.0360214
  heat_capacity:      72.0460024
  energy:             88.8768751

- temperature:       680.0000000
  free_energy:        46.0070158
  entropy:            64.1077566
  heat_capacity:      72.6342632
  energy:             89.6002904

- temperature:       690.0000000
  free_energy:        45.3606095
  entropy:            65.1723128
  heat_capacity:      73.2060231
  energy:             90.3295053

- temperature:       700.0000000
  free_energy:        44.7035936
  entropy:            66.2296627
  heat_capacity:      73.7617795
  energy:             91.0643575

- temperature:       710.0000000
  free_energy:        44.0360403
  entropy:            67.2797871
  heat_capacity:      74.3020190
  energy:             91.8046892

- temperature:       720.0000000
  free_energy:        43.3580220
  entropy:            68.3226746
  heat_capacity:      74.8272160
  energy:             92.5503477

- temperature:       730.0000000
  free_energy:        42.6696110
  entropy:            69.3583205
  heat_capacity:      75.3378335
  energy:             93.3011849

- temperature:       740.0000000
  free_energy:        41.9708797
  entropy:            70.3867265
  heat_capacity:      75.8343221
  energy:             94.0570573

- temperature:       750.0000000
  free_energy:        41.2619006
  entropy:            71.4079002
  heat_capacity:      76.3171205
  energy:             94.8178257

- temperature:       760.0000000
  free_energy:        40.5427458
  entropy:            72.4218549
  heat_capacity:      76.7866550
  energy:             95.5833555

- temperature:       770.0000000
  free_energy:        39.8134875
  entropy:            73.4286085
  heat_capacity:      77.2433399
  energy:             96.3535160

- temperature:       780.0000000
  free_energy:        39.0741975
  entropy:            74.4281837
  heat_capacity:      77.6875775
  energy:             97.1281808

- temperature:       790.0000000
  free_energy:        38.3249476
  entropy:            75.4206073
  heat_capacity:      78.1197579
  energy:             97.9072274

- temperature:       800.0000000
  free_energy:        37.5658091
  entropy:            76.4059099
  heat_capacity:      78.5402595
  energy:             98.6905370

- temperature:       810.0000000
  free_energy:        36.7968531
  entropy:            77.3841257
  heat_capacity:      78.9494491
  energy:             99.4779948

- temperature:       820.0000000
  free_energy:        36.0181501
  entropy:            78.3552919
  heat_capacity:      79.3476821
  energy:            100.2694895

- temperature:       830.0000000
  free_energy:        35.2297706
  entropy:            79.3194488
  heat_capacity:      79.7353024
  energy:            101.0649131

- temperature:       840.0000000
  free_energy:        34.4317844
  entropy:            80.2766392
  heat_capacity:      80.1126434
  energy:            101.8641613

- temperature:       850.0000000
  free_energy:        33.6242609
  entropy:            81.2269081
  heat_capacity:      80.4800272
  energy:            102.6671328

- temperature:       860.0000000
  free_energy:        32.8072691
  entropy:            82.1703030
  heat_capacity:      80.8377657
  energy:            103.4737297

- temperature:       870.0000000
  free_energy:        31.9808776
  entropy:            83.1068729
  heat_capacity:      81.1861607
  energy:            104.2838570

- temperature:       880.0000000
  free_energy:        31.1451542
  entropy:            84.0366687
  heat_capacity:      81.5255039
  energy:            105.0974227

- temperature:       890.0000000
  free_energy:        30.3001666
  entropy:            84.9597429
  heat_capacity:      81.8560772
  energy:            105.9143378

- temperature:       900.0000000
  free_energy:        29.4459816
  entropy:            85.8761493
  heat_capacity:      82.1781533
  energy:            106.7345159

- temperature:       910.0000000
  free_energy:        28.5826657
  entropy:            86.7859426
  heat_capacity:      82.4919957
  energy:            107.5578734

- temperature:       920.0000000
  free_energy:        27.7102846
  entropy:            87.6891790
  heat_capacity:      82.7978590
  energy:            108.3843292

- temperature:       930.0000000
  free_energy:        26.8289037
  entropy:            88.5859152
  heat_capacity:      83.0959894
  energy:            109.2138048

- temperature:       940.0000000
  free_energy:        25.9385878
  entropy:            89.4762088
  heat_capacity:      83.3866246
  energy:            110.0462241

- temperature:       950.0000000
  free_energy:        25.0394008
  entropy:            90.3601182
  heat_capacity:      83.6699943
  energy:            110.8815131

- temperature:       960.0000000
  free_energy:        24.1314065
  entropy:            91.2377020
  heat_capacity:      83.9463206
  energy:            111.7196005

- temperature:       970.0000000
  free_energy:        23.2146677
  entropy:            92.1090197
  heat_capacity:      84.2158176
  energy:            112.5604168

- temperature:       980.0000000
  free_energy:        22.2892468
  entropy:            92.9741306
  heat_capacity:      84.4786928
  energy:            113.4038947

- temperature:       990.0000000
  free_energy:        21.3552056
  entropy:            93.8330946
  heat_capacity:      84.7351460
  energy:            114.2499692

- temperature:      1000.0000000
  free_energy:        20.4126052
  entropy:            94.6859717
  heat_capacity:      84.9853707
  energy:            115.0985769
