   32   32    1    1
  0.6204108E+01  0.4934311E-09  0.4934311E-09  0.9416039E-09  0.5000000E-15
  1.000000000000000E-004
  CAR 
 graphite                                
    128    163     84
 
  0.0000000E+00  0.0000000E+00  0.0000000E+00  0.3086420E-02
    1      -12.441906
    2      -11.361028
    3      -11.357775
    4       -9.673721
    5       -6.811935
    6       -6.808726
    7       -6.805390
    8       -6.114768
    9       -6.113550
   10       -6.111579
   11       -6.003735
   12       -5.998997
   13       -5.998009
   14       -5.997754
   15       -5.996736
   16       -5.991813
   17       -4.964516
   18       -4.960281
   19       -4.959279
   20       -4.958723
   21       -4.958540
   22       -4.953916
   23       -4.311489
   24       -4.309098
   25       -4.306148
   26       -3.984961
   27       -3.982539
   28       -3.979748
   29       -2.449612
   30        1.441049
   31        1.445606
   32        1.607738
   33        1.610501
   34        1.611711
   35        2.052531
   36        2.055910
   37        2.056278
   38        2.057445
   39        2.059388
   40        2.061692
   41        2.546379
   42        2.549288
   43        2.550759
   44        3.574801
   45        3.577333
   46        3.579831
   47        5.259884
   48        5.265026
   49        5.454725
   50        5.458866
   51        5.463694
   52        5.468025
   53        5.653875
   54        5.658841
   55        5.898248
   56        5.899026
   57        5.900795
   58        6.011690
   59        6.362150
   60        6.365805
   61        6.366884
   62        6.367150
   63        6.368354
   64        6.372146
   65       10.141795
   66       10.151798
   67       10.153326
   68       10.153972
   69       10.154820
   70       10.164855
   71       12.256863
   72       12.259951
   73       12.262141
   74       12.310784
   75       12.311195
   76       12.312659
   77       14.202079
   78       14.206758
   79       14.210030
   80       15.712965
   81       15.718725
   82       15.720649
   83       15.721938
   84       15.725199
 
  0.1111111E+00  0.1387779E-16  0.0000000E+00  0.6172840E-02
    1      -12.365219
    2      -11.286483
    3      -11.283237
    4       -9.604849
    5       -7.698023
    6       -7.106251
    7       -7.103068
    8       -6.775192
    9       -6.772457
   10       -6.232019
   11       -6.228611
   12       -6.227575
   13       -6.224895
   14       -5.755341
   15       -5.753593
   16       -5.632492
   17       -4.688457
   18       -4.608273
   19       -4.606991
   20       -4.605927
   21       -4.603362
   22       -4.592304
   23       -4.590078
   24       -4.075392
   25       -4.072031
   26       -3.524624
   27       -3.522499
   28       -2.978213
   29       -2.358426
   30        1.353248
   31        1.356166
   32        1.522124
   33        1.526671
   34        1.684895
   35        1.817749
   36        1.820900
   37        1.823267
   38        1.824103
   39        2.128515
   40        2.132215
   41        2.347726
   42        2.350819
   43        2.619868
   44        2.930497
   45        3.442406
   46        3.445451
   47        4.907727
   48        5.070914
   49        5.151679
   50        5.158588
   51        5.301658
   52        5.308867
   53        5.403106
   54        5.540895
   55        5.975991
   56        5.979379
   57        6.080679
   58        6.159931
   59        6.161918
   60        6.316878
   61        6.321060
   62        6.322263
   63        6.323978
   64        6.560941
   65       10.270233
   66       10.274203
   67       10.276088
   68       10.284840
   69       10.628252
   70       10.636369
   71       11.469271
   72       11.759195
   73       11.761632
   74       12.694597
   75       12.697422
   76       13.282879
   77       14.261632
   78       14.576117
   79       14.582173
   80       15.785335
   81       15.788270
   82       16.047905
   83       16.053354
   84       16.060936
 
  0.2222222E+00  0.4163336E-16  0.0000000E+00  0.6172840E-02
    1      -12.135544
    2      -11.063062
    3      -11.059836
    4       -9.398620
    5       -8.765879
    6       -7.796157
    7       -7.793253
    8       -7.490053
    9       -7.487488
   10       -6.576707
   11       -6.573957
   12       -6.572763
   13       -6.570414
   14       -6.401048
   15       -5.449921
   16       -5.447560
   17       -4.503251
   18       -4.502083
   19       -3.902313
   20       -3.900717
   21       -3.899509
   22       -3.896460
   23       -3.473980
   24       -2.839600
   25       -2.837329
   26       -2.729828
   27       -2.726638
   28       -2.085585
   29       -1.710544
   30        0.687355
   31        0.689972
   32        1.190222
   33        1.193385
   34        1.195276
   35        1.196446
   36        1.763324
   37        1.767796
   38        1.804650
   39        1.808080
   40        1.824175
   41        1.906067
   42        2.343745
   43        2.347571
   44        2.828476
   45        3.178566
   46        3.181461
   47        3.972110
   48        4.320234
   49        4.326293
   50        4.586982
   51        4.685357
   52        4.881206
   53        4.887816
   54        5.153513
   55        5.156769
   56        5.194671
   57        6.210198
   58        6.214847
   59        6.216739
   60        6.218077
   61        6.284347
   62        6.801265
   63        6.803341
   64        7.523179
   65       10.574673
   66       10.578075
   67       10.579659
   68       10.587541
   69       11.111513
   70       11.130649
   71       11.132816
   72       11.707825
   73       11.713868
   74       12.967488
   75       12.970220
   76       14.367773
   77       14.427721
   78       15.597879
   79       15.603691
   80       15.988343
   81       15.991473
   82       16.253728
   83       16.466725
   84       16.473741
 
  0.3333333E+00  0.0000000E+00  0.0000000E+00  0.6172840E-02
    1      -11.753973
    2      -10.691955
    3      -10.688762
    4       -9.721909
    5       -9.056194
    6       -8.719737
    7       -8.716729
    8       -7.765248
    9       -7.762922
   10       -7.239351
   11       -6.835033
   12       -6.832562
   13       -6.831298
   14       -6.829038
   15       -5.550027
   16       -5.547622
   17       -3.777205
   18       -3.775174
   19       -3.079374
   20       -3.077743
   21       -3.076513
   22       -3.073301
   23       -2.138727
   24       -2.136190
   25       -1.977068
   26       -1.633164
   27       -1.281595
   28       -1.278271
   29       -0.369071
   30       -0.141572
   31       -0.139446
   32        0.347729
   33        0.351057
   34        0.352253
   35        0.353827
   36        0.745164
   37        1.048685
   38        1.051267
   39        2.147186
   40        2.151769
   41        2.265978
   42        2.665746
   43        2.693393
   44        2.697400
   45        2.947538
   46        2.950294
   47        3.143401
   48        3.148346
   49        3.165751
   50        3.623934
   51        3.969124
   52        4.265773
   53        4.269265
   54        4.316703
   55        4.322521
   56        4.693287
   57        6.101197
   58        6.106073
   59        6.108367
   60        6.109757
   61        6.612177
   62        7.627843
   63        7.629853
   64        7.821204
   65       10.399782
   66       10.401939
   67       10.919472
   68       10.921815
   69       10.922990
   70       10.929952
   71       11.708349
   72       12.971802
   73       12.976228
   74       13.106622
   75       13.109059
   76       14.696626
   77       15.497444
   78       15.902112
   79       15.999167
   80       16.004702
   81       16.238499
   82       16.333990
   83       16.337247
   84       17.069738
 
  0.4444444E+00  0.8326673E-16  0.0000000E+00  0.6172840E-02
    1      -11.222374
    2      -10.543394
    3      -10.175169
    4      -10.172022
    5       -9.515965
    6       -9.512879
    7       -8.579323
    8       -7.971574
    9       -7.906069
   10       -7.903832
   11       -6.968738
   12       -6.966364
   13       -6.965067
   14       -6.962856
   15       -5.648351
   16       -5.646023
   17       -2.941854
   18       -2.939309
   19       -2.325325
   20       -2.324119
   21       -2.323150
   22       -2.318724
   23       -1.880072
   24       -1.877579
   25       -1.004712
   26       -0.530670
   27       -0.528830
   28       -0.442016
   29       -0.438382
   30       -0.437266
   31       -0.435844
   32       -0.408928
   33       -0.207341
   34        0.210705
   35        0.214516
   36        0.257095
   37        0.259261
   38        1.005343
   39        1.164918
   40        1.678375
   41        1.682501
   42        2.361113
   43        2.750084
   44        2.770083
   45        2.773744
   46        2.820519
   47        2.823078
   48        3.160995
   49        3.165415
   50        3.332888
   51        3.449951
   52        3.453675
   53        3.612767
   54        3.717892
   55        3.723261
   56        4.139478
   57        6.035427
   58        6.040436
   59        6.042883
   60        6.044401
   61        7.039816
   62        7.505515
   63        8.481682
   64        8.483601
   65        9.616395
   66        9.619575
   67       11.148046
   68       11.149130
   69       11.149717
   70       11.155995
   71       13.091028
   72       13.153325
   73       13.155500
   74       14.201187
   75       14.204736
   76       14.703366
   77       15.054135
   78       15.239340
   79       15.243568
   80       15.472880
   81       16.647616
   82       16.831831
   83       16.835660
   84       17.492731
 
  0.1694066E-20  0.1111111E+00  0.0000000E+00  0.6172840E-02
    1      -12.365217
    2      -11.286480
    3      -11.283235
    4       -9.604846
    5       -7.698104
    6       -7.106308
    7       -7.102752
    8       -6.775331
    9       -6.772610
   10       -6.231691
   11       -6.228459
   12       -6.227635
   13       -6.224328
   14       -5.755832
   15       -5.753085
   16       -5.633122
   17       -4.686574
   18       -4.611294
   19       -4.607405
   20       -4.605912
   21       -4.602925
   22       -4.593628
   23       -4.590277
   24       -4.073648
   25       -4.071314
   26       -3.526299
   27       -3.522111
   28       -2.977072
   29       -2.358432
   30        1.354885
   31        1.356125
   32        1.522114
   33        1.526661
   34        1.683302
   35        1.819855
   36        1.820883
   37        1.823748
   38        1.824794
   39        2.128010
   40        2.129408
   41        2.349504
   42        2.350754
   43        2.618118
   44        2.929465
   45        3.442883
   46        3.446463
   47        4.911241
   48        5.067213
   49        5.158371
   50        5.158881
   51        5.301494
   52        5.301988
   53        5.406697
   54        5.537349
   55        5.975542
   56        5.977495
   57        6.080601
   58        6.159515
   59        6.161569
   60        6.317933
   61        6.321118
   62        6.322407
   63        6.325893
   64        6.560967
   65       10.266875
   66       10.273941
   67       10.276161
   68       10.282985
   69       10.631324
   70       10.637939
   71       11.471130
   72       11.757242
   73       11.762202
   74       12.692552
   75       12.698226
   76       13.283802
   77       14.260763
   78       14.577962
   79       14.581264
   80       15.784425
   81       15.787378
   82       16.048545
   83       16.051685
   84       16.053963
 
  0.1111111E+00  0.1111111E+00  0.0000000E+00  0.6172840E-02
    1      -12.212034
    2      -11.137469
    3      -11.134237
    4       -9.467298
    5       -8.191521
    6       -8.187658
    7       -7.245245
    8       -7.240908
    9       -7.240480
   10       -7.236359
   11       -6.610618
   12       -5.922531
   13       -5.918921
   14       -5.911638
   15       -5.809081
   16       -5.806477
   17       -4.771611
   18       -4.767167
   19       -4.132483
   20       -4.115957
   21       -4.112192
   22       -3.827194
   23       -3.382785
   24       -3.377205
   25       -3.377027
   26       -3.373635
   27       -2.325766
   28       -2.321330
   29       -2.176370
   30        0.607982
   31        1.117271
   32        1.120738
   33        1.504390
   34        1.507704
   35        1.683460
   36        1.687991
   37        1.736023
   38        1.964719
   39        1.966446
   40        1.966825
   41        1.971936
   42        2.447540
   43        2.450702
   44        2.488294
   45        2.491940
   46        3.825266
   47        4.331146
   48        4.605690
   49        4.614840
   50        4.619858
   51        4.982436
   52        4.989281
   53        5.033478
   54        5.250538
   55        5.645437
   56        5.647239
   57        5.648373
   58        5.653053
   59        6.137154
   60        6.216962
   61        6.613617
   62        6.617582
   63        7.141752
   64        7.143530
   65       10.093661
   66       10.102647
   67       11.113848
   68       11.122665
   69       11.124113
   70       11.126083
   71       11.140986
   72       11.142961
   73       11.567727
   74       12.382700
   75       13.703197
   76       13.706498
   77       14.686556
   78       14.691705
   79       15.546851
   80       16.178633
   81       16.182580
   82       16.184466
   83       16.188027
   84       16.497772
 
  0.2222222E+00  0.1111111E+00  0.0000000E+00  0.6172840E-02
    1      -11.906411
    2      -10.840195
    3      -10.836989
    4       -9.205349
    5       -9.192669
    6       -8.549256
    7       -8.219807
    8       -8.216857
    9       -7.587155
   10       -7.584280
   11       -6.782690
   12       -6.697769
   13       -6.210339
   14       -5.840006
   15       -5.837414
   16       -5.368950
   17       -4.254239
   18       -4.251571
   19       -4.245180
   20       -3.309563
   21       -3.246422
   22       -2.701503
   23       -2.584215
   24       -2.581968
   25       -1.981851
   26       -1.978603
   27       -1.813634
   28       -1.615057
   29       -1.026875
   30       -0.348284
   31        0.184618
   32        0.188056
   33        0.902379
   34        0.934838
   35        1.336354
   36        1.417876
   37        1.419442
   38        1.806201
   39        1.999374
   40        2.003904
   41        2.017693
   42        2.078246
   43        2.253331
   44        2.257211
   45        2.765859
   46        3.279095
   47        3.659179
   48        3.665845
   49        3.848611
   50        3.934359
   51        4.334621
   52        4.433815
   53        4.441327
   54        4.764603
   55        4.767885
   56        4.771645
   57        5.384667
   58        5.387261
   59        6.483334
   60        6.631515
   61        6.807151
   62        6.810936
   63        7.768970
   64        7.839661
   65       10.089639
   66       10.097540
   67       10.688487
   68       10.843362
   69       11.219727
   70       11.638757
   71       11.643400
   72       12.321646
   73       12.326549
   74       12.544848
   75       13.898905
   76       14.783075
   77       14.907576
   78       15.763396
   79       16.357141
   80       16.361411
   81       16.372650
   82       16.445736
   83       16.449169
   84       16.750778
 
  0.3333333E+00  0.1111111E+00  0.0000000E+00  0.6172840E-02
    1      -11.449807
    2      -10.396275
    3      -10.393111
    4      -10.094180
    5       -9.080466
    6       -9.077422
    7       -8.783258
    8       -8.767636
    9       -7.797615
   10       -7.794712
   11       -7.570589
   12       -6.867878
   13       -6.396227
   14       -5.980126
   15       -5.977499
   16       -4.898529
   17       -4.026236
   18       -3.463278
   19       -3.459434
   20       -2.656307
   21       -2.434336
   22       -1.775985
   23       -1.773651
   24       -1.273233
   25       -1.171386
   26       -1.164586
   27       -1.048553
   28       -0.783697
   29       -0.780078
   30       -0.518694
   31       -0.515431
   32       -0.009713
   33        0.313093
   34        0.316461
   35        0.326386
   36        0.689055
   37        0.691181
   38        1.346490
   39        1.847785
   40        1.908686
   41        2.246314
   42        2.251365
   43        2.255810
   44        2.633686
   45        2.636421
   46        2.670048
   47        2.673967
   48        2.864879
   49        3.163074
   50        3.520000
   51        3.807474
   52        3.813416
   53        3.898629
   54        3.904946
   55        3.908114
   56        4.216361
   57        5.217570
   58        5.220388
   59        6.863866
   60        6.898899
   61        6.901938
   62        7.494605
   63        7.754273
   64        8.291817
   65        9.640095
   66       10.175257
   67       10.180962
   68       10.610427
   69       12.045903
   70       12.049399
   71       12.288261
   72       12.687397
   73       13.594451
   74       13.597979
   75       13.915936
   76       15.220407
   77       15.377555
   78       15.724483
   79       15.729917
   80       15.898830
   81       16.018154
   82       16.838336
   83       16.841563
   84       17.309776
 
  0.4444444E+00  0.1111111E+00  0.0000000E+00  0.6172840E-02
    1      -10.846342
    2      -10.842743
    3       -9.811005
    4       -9.807023
    5       -9.806524
    6       -9.802323
    7       -8.840778
    8       -8.242899
    9       -8.239145
   10       -7.868052
   11       -7.865140
   12       -6.930772
   13       -6.459554
   14       -6.035588
   15       -6.032942
   16       -4.843568
   17       -3.536142
   18       -2.958450
   19       -2.955087
   20       -2.719984
   21       -1.828700
   22       -1.346497
   23       -1.343150
   24       -1.305033
   25       -1.301066
   26       -1.144444
   27       -1.118293
   28       -0.670726
   29       -0.561524
   30       -0.558201
   31        0.231032
   32        0.235436
   33        0.345468
   34        0.387788
   35        0.391494
   36        0.822070
   37        0.946854
   38        0.954039
   39        0.954492
   40        0.954861
   41        1.640347
   42        1.644361
   43        1.769852
   44        2.815805
   45        2.821791
   46        3.122554
   47        3.125964
   48        3.127085
   49        3.131703
   50        3.221925
   51        3.222665
   52        3.224256
   53        3.231728
   54        3.656365
   55        3.662867
   56        3.872210
   57        5.160240
   58        5.163206
   59        6.923424
   60        6.925784
   61        7.320354
   62        7.323408
   63        8.427212
   64        8.508613
   65        8.654938
   66       10.224641
   67       10.228139
   68       10.512395
   69       12.202322
   70       12.205610
   71       12.737392
   72       13.814048
   73       13.818246
   74       13.894260
   75       14.767107
   76       14.772636
   77       14.775733
   78       14.777526
   79       15.603258
   80       15.607091
   81       17.034857
   82       17.040902
   83       17.340327
   84       17.344928
 
 -0.4444444E+00  0.1111111E+00  0.0000000E+00  0.6172840E-02
    1      -11.449892
    2      -10.396360
    3      -10.393195
    4      -10.094044
    5       -9.080321
    6       -9.077279
    7       -8.783541
    8       -8.767649
    9       -7.797805
   10       -7.794901
   11       -7.570504
   12       -6.867538
   13       -6.396459
   14       -5.979705
   15       -5.977101
   16       -4.897382
   17       -4.026685
   18       -3.462038
   19       -3.459826
   20       -2.656025
   21       -2.435198
   22       -1.777569
   23       -1.773693
   24       -1.273345
   25       -1.171962
   26       -1.164913
   27       -1.048910
   28       -0.783744
   29       -0.781815
   30       -0.519250
   31       -0.515598
   32       -0.010598
   33        0.312900
   34        0.316464
   35        0.327048
   36        0.689134
   37        0.693340
   38        1.347561
   39        1.847493
   40        1.909128
   41        2.246657
   42        2.252157
   43        2.255670
   44        2.633944
   45        2.636309
   46        2.670241
   47        2.674778
   48        2.865386
   49        3.163425
   50        3.519353
   51        3.807914
   52        3.811877
   53        3.898765
   54        3.904976
   55        3.908683
   56        4.215902
   57        5.217133
   58        5.220186
   59        6.863863
   60        6.900123
   61        6.901895
   62        7.496043
   63        7.754364
   64        8.290560
   65        9.638349
   66       10.175726
   67       10.179707
   68       10.611461
   69       12.045440
   70       12.049950
   71       12.288113
   72       12.687550
   73       13.593951
   74       13.598093
   75       13.916035
   76       15.220133
   77       15.377664
   78       15.725105
   79       15.729306
   80       15.898783
   81       16.018260
   82       16.837859
   83       16.841503
   84       17.279543
 
 -0.3333333E+00  0.1111111E+00  0.0000000E+00  0.6172840E-02
    1      -11.906472
    2      -10.840254
    3      -10.837048
    4       -9.205157
    5       -9.192725
    6       -8.549636
    7       -8.219656
    8       -8.216704
    9       -7.587575
   10       -7.584701
   11       -6.782580
   12       -6.696964
   13       -6.210836
   14       -5.838935
   15       -5.836541
   16       -5.367586
   17       -4.253070
   18       -4.251047
   19       -4.247228
   20       -3.310278
   21       -3.246101
   22       -2.701722
   23       -2.585662
   24       -2.582172
   25       -1.982256
   26       -1.978842
   27       -1.813714
   28       -1.615765
   29       -1.027248
   30       -0.349407
   31        0.184296
   32        0.186054
   33        0.901286
   34        0.936247
   35        1.336547
   36        1.418230
   37        1.421878
   38        1.806557
   39        1.999263
   40        2.003834
   41        2.018931
   42        2.077728
   43        2.253481
   44        2.257613
   45        2.766162
   46        3.279551
   47        3.661463
   48        3.664452
   49        3.848645
   50        3.935361
   51        4.334513
   52        4.435255
   53        4.438762
   54        4.764790
   55        4.767870
   56        4.771298
   57        5.383769
   58        5.386879
   59        6.483265
   60        6.632664
   61        6.809397
   62        6.811010
   63        7.767304
   64        7.839610
   65       10.089931
   66       10.095844
   67       10.686685
   68       10.844619
   69       11.219748
   70       11.638256
   71       11.644241
   72       12.321205
   73       12.326570
   74       12.545090
   75       13.899141
   76       14.782940
   77       14.907361
   78       15.766976
   79       16.358237
   80       16.361918
   81       16.369855
   82       16.445421
   83       16.448922
   84       16.754245
 
 -0.2222222E+00  0.1111111E+00  0.0000000E+00  0.6172840E-02
    1      -12.212070
    2      -11.137505
    3      -11.134272
    4       -9.467333
    5       -8.190197
    6       -8.189407
    7       -7.243387
    8       -7.241411
    9       -7.240552
   10       -7.238602
   11       -6.609176
   12       -5.921769
   13       -5.920496
   14       -5.910921
   15       -5.806990
   16       -5.805163
   17       -4.770595
   18       -4.769265
   19       -4.131841
   20       -4.115086
   21       -4.113719
   22       -3.827687
   23       -3.380721
   24       -3.378837
   25       -3.377423
   26       -3.375423
   27       -2.324458
   28       -2.323510
   29       -2.176417
   30        0.606662
   31        1.116893
   32        1.118507
   33        1.506750
   34        1.507096
   35        1.683407
   36        1.687935
   37        1.734806
   38        1.966057
   39        1.966790
   40        1.969783
   41        1.970558
   42        2.447870
   43        2.449713
   44        2.490561
   45        2.491124
   46        3.826677
   47        4.331425
   48        4.605789
   49        4.616689
   50        4.618175
   51        4.985396
   52        4.985775
   53        5.033627
   54        5.250147
   55        5.644690
   56        5.647932
   57        5.648311
   58        5.651565
   59        6.138046
   60        6.216923
   61        6.616229
   62        6.617868
   63        7.140822
   64        7.142689
   65       10.093743
   66       10.100847
   67       11.114853
   68       11.121079
   69       11.123334
   70       11.126482
   71       11.141130
   72       11.145360
   73       11.566078
   74       12.382961
   75       13.704222
   76       13.705640
   77       14.689477
   78       14.692241
   79       15.542969
   80       16.180659
   81       16.184284
   82       16.187648
   83       16.191534
   84       16.476748
 
 -0.1111111E+00  0.1111111E+00  0.0000000E+00  0.6172840E-02
    1      -12.365229
    2      -11.286492
    3      -11.283246
    4       -9.604857
    5       -7.698960
    6       -7.105354
    7       -7.102325
    8       -6.776277
    9       -6.773541
   10       -6.230582
   11       -6.227944
   12       -6.227006
   13       -6.223604
   14       -5.754562
   15       -5.753345
   16       -5.634576
   17       -4.686309
   18       -4.611263
   19       -4.606531
   20       -4.605783
   21       -4.604412
   22       -4.592750
   23       -4.591230
   24       -4.074545
   25       -4.071029
   26       -3.525544
   27       -3.523117
   28       -2.977403
   29       -2.358448
   30        1.353383
   31        1.356262
   32        1.522100
   33        1.526647
   34        1.684812
   35        1.819232
   36        1.820579
   37        1.820990
   38        1.825842
   39        2.128313
   40        2.131960
   41        2.347860
   42        2.351141
   43        2.619457
   44        2.928302
   45        3.443925
   46        3.446962
   47        4.911161
   48        5.067383
   49        5.155060
   50        5.162175
   51        5.298197
   52        5.305220
   53        5.406673
   54        5.537282
   55        5.973517
   56        5.976999
   57        6.080638
   58        6.160137
   59        6.161888
   60        6.319730
   61        6.321260
   62        6.322464
   63        6.326840
   64        6.559667
   65       10.265681
   66       10.275202
   67       10.276605
   68       10.280729
   69       10.631149
   70       10.639269
   71       11.471955
   72       11.757997
   73       11.760846
   74       12.693582
   75       12.696466
   76       13.284340
   77       14.264457
   78       14.575270
   79       14.580121
   80       15.787492
   81       15.791124
   82       16.045946
   83       16.048763
   84       16.052979
 
  0.1694066E-20  0.2222222E+00  0.0000000E+00  0.6172840E-02
    1      -12.135536
    2      -11.063053
    3      -11.059827
    4       -9.398604
    5       -8.765854
    6       -7.796152
    7       -7.793252
    8       -7.490597
    9       -7.486867
   10       -6.577424
   11       -6.573809
   12       -6.572981
   13       -6.569349
   14       -6.401046
   15       -5.449681
   16       -5.447140
   17       -4.505015
   18       -4.502316
   19       -3.905074
   20       -3.901276
   21       -3.899652
   22       -3.895809
   23       -3.472673
   24       -2.841436
   25       -2.836969
   26       -2.728175
   27       -2.725891
   28       -2.085607
   29       -1.709335
   30        0.688532
   31        0.690582
   32        1.191704
   33        1.193365
   34        1.195987
   35        1.197652
   36        1.763314
   37        1.767831
   38        1.806023
   39        1.808261
   40        1.823657
   41        1.904434
   42        2.343234
   43        2.344610
   44        2.826632
   45        3.178632
   46        3.182636
   47        3.975087
   48        4.325768
   49        4.326642
   50        4.583974
   51        4.688318
   52        4.880992
   53        4.881858
   54        5.153087
   55        5.155806
   56        5.191400
   57        6.211029
   58        6.214771
   59        6.216554
   60        6.220245
   61        6.284339
   62        6.800641
   63        6.803621
   64        7.522201
   65       10.571264
   66       10.577826
   67       10.579644
   68       10.586007
   69       11.114233
   70       11.128861
   71       11.133096
   72       11.709999
   73       11.715016
   74       12.965500
   75       12.970969
   76       14.368443
   77       14.426802
   78       15.599344
   79       15.603369
   80       15.987928
   81       15.990528
   82       16.250686
   83       16.465714
   84       16.470261
 
  0.1111111E+00  0.2222222E+00  0.0000000E+00  0.6172840E-02
    1      -11.906405
    2      -10.840188
    3      -10.836982
    4       -9.205044
    5       -9.192920
    6       -8.549293
    7       -8.219765
    8       -8.216817
    9       -7.587181
   10       -7.584306
   11       -6.782715
   12       -6.697718
   13       -6.210290
   14       -5.839975
   15       -5.837396
   16       -5.368988
   17       -4.254259
   18       -4.251667
   19       -4.245232
   20       -3.311022
   21       -3.246663
   22       -2.700159
   23       -2.585925
   24       -2.582837
   25       -1.980037
   26       -1.977851
   27       -1.813650
   28       -1.616481
   29       -1.025457
   30       -0.348067
   31        0.184815
   32        0.188072
   33        0.902444
   34        0.936624
   35        1.335925
   36        1.418600
   37        1.422189
   38        1.804376
   39        1.999350
   40        2.003827
   41        2.019444
   42        2.078909
   43        2.252726
   44        2.254141
   45        2.763944
   46        3.280961
   47        3.662036
   48        3.665874
   49        3.847443