  32  32   0   0
  0.8730593E+01  0.4932875E-09  0.4932875E-09  0.1326350E-08  0.5000000E-15
  1.000000000000000E-004
  CAR 
 graphite                                
     15.90500549    -16.86296713  301      4.77456146      1.00000000
    -16.863  0.0000E+00  0.0000E+00
    -16.754  0.0000E+00  0.0000E+00
    -16.645  0.0000E+00  0.0000E+00
    -16.535  0.0000E+00  0.0000E+00
    -16.426  0.0000E+00  0.0000E+00
    -16.317  0.0000E+00  0.0000E+00
    -16.208  0.0000E+00  0.0000E+00
    -16.098  0.0000E+00  0.0000E+00
    -15.989  0.0000E+00  0.0000E+00
    -15.880  0.0000E+00  0.0000E+00
    -15.771  0.0000E+00  0.0000E+00
    -15.661  0.0000E+00  0.0000E+00
    -15.552  0.0000E+00  0.0000E+00
    -15.443  0.0000E+00  0.0000E+00
    -15.334  0.0000E+00  0.0000E+00
    -15.225  0.0000E+00  0.0000E+00
    -15.115  0.0000E+00  0.0000E+00
    -15.006  0.0000E+00  0.0000E+00
    -14.897  0.0000E+00  0.0000E+00
    -14.788  0.1640E+01  0.4976E-01
    -14.678  0.2495E+01  0.2616E+00
    -14.569  0.3680E+01  0.6013E+00
    -14.460  0.4732E+01  0.1095E+01
    -14.351  0.5062E+01  0.1632E+01
    -14.242  0.4863E+01  0.2172E+01
    -14.132  0.4944E+01  0.2707E+01
    -14.023  0.4928E+01  0.3249E+01
    -13.914  0.4947E+01  0.3790E+01
    -13.805  0.4970E+01  0.4331E+01
    -13.695  0.5033E+01  0.4877E+01
    -13.586  0.5641E+01  0.5467E+01
    -13.477  0.5855E+01  0.6098E+01
    -13.368  0.6855E+01  0.6839E+01
    -13.258  0.4420E+01  0.7390E+01
    -13.149  0.1899E+01  0.7736E+01
    -13.040  0.3979E+01  0.8018E+01
    -12.931  0.4187E+01  0.8448E+01
    -12.822  0.7381E+01  0.8957E+01
    -12.712  0.5640E+01  0.9718E+01
    -12.603  0.6408E+01  0.1039E+02
    -12.494  0.4393E+01  0.1095E+02
    -12.385  0.4603E+01  0.1144E+02
    -12.275  0.4756E+01  0.1195E+02
    -12.166  0.4957E+01  0.1248E+02
    -12.057  0.5139E+01  0.1303E+02
    -11.948  0.5426E+01  0.1360E+02
    -11.839  0.5684E+01  0.1424E+02
    -11.729  0.5242E+01  0.1483E+02
    -11.620  0.5072E+01  0.1539E+02
    -11.511  0.4964E+01  0.1594E+02
    -11.402  0.4993E+01  0.1648E+02
    -11.292  0.5083E+01  0.1703E+02
    -11.183  0.5138E+01  0.1759E+02
    -11.074  0.5357E+01  0.1816E+02
    -10.965  0.5564E+01  0.1876E+02
    -10.856  0.5915E+01  0.1938E+02
    -10.746  0.5825E+01  0.2002E+02
    -10.637  0.5822E+01  0.2066E+02
    -10.528  0.5917E+01  0.2130E+02
    -10.419  0.4815E+01  0.2189E+02
    -10.309  0.4448E+01  0.2238E+02
    -10.200  0.5146E+01  0.2291E+02
    -10.091  0.5332E+01  0.2349E+02
     -9.982  0.5489E+01  0.2408E+02
     -9.872  0.5711E+01  0.2469E+02
     -9.763  0.6409E+01  0.2533E+02
     -9.654  0.7914E+01  0.2610E+02
     -9.545  0.9611E+01  0.2712E+02
     -9.436  0.6366E+01  0.2798E+02
     -9.326  0.6255E+01  0.2870E+02
     -9.217  0.6534E+01  0.2933E+02
     -9.108  0.3486E+01  0.2978E+02
     -8.999  0.3111E+01  0.3014E+02
     -8.889  0.2735E+01  0.3045E+02
     -8.780  0.2360E+01  0.3073E+02
     -8.671  0.2988E+01  0.3101E+02
     -8.562  0.2511E+01  0.3133E+02
     -8.453  0.1388E+01  0.3155E+02
     -8.343  0.2018E+01  0.3173E+02
     -8.234  0.3558E+01  0.3201E+02
     -8.125  0.7102E+01  0.3270E+02
     -8.016  0.4191E+01  0.3324E+02
     -7.906  0.4067E+01  0.3367E+02
     -7.797  0.6472E+01  0.3414E+02
     -7.688  0.7784E+01  0.3491E+02
     -7.579  0.6743E+01  0.3566E+02
     -7.469  0.7833E+01  0.3645E+02
     -7.360  0.9054E+01  0.3738E+02
     -7.251  0.7106E+01  0.3826E+02
     -7.142  0.6155E+01  0.3895E+02
     -7.033  0.5886E+01  0.3961E+02
     -6.923  0.5638E+01  0.4024E+02
     -6.814  0.5431E+01  0.4084E+02
     -6.705  0.5247E+01  0.4143E+02
     -6.596  0.5061E+01  0.4199E+02
     -6.486  0.4882E+01  0.4253E+02
     -6.377  0.4832E+01  0.4306E+02
     -6.268  0.4804E+01  0.4359E+02
     -6.159  0.4709E+01  0.4411E+02
     -6.050  0.4524E+01  0.4461E+02
     -5.940  0.4404E+01  0.4510E+02
     -5.831  0.3581E+01  0.4553E+02
     -5.722  0.4101E+01  0.4596E+02
     -5.613  0.4739E+01  0.4644E+02
     -5.503  0.5493E+01  0.4700E+02
     -5.394  0.6321E+01  0.4764E+02
     -5.285  0.8977E+01  0.4846E+02
     -5.176  0.9455E+01  0.4954E+02
     -5.066  0.7076E+01  0.5044E+02
     -4.957  0.4696E+01  0.5109E+02
     -4.848  0.2678E+01  0.5148E+02
     -4.739  0.2758E+01  0.5176E+02
     -4.630  0.3887E+01  0.5212E+02
     -4.520  0.5272E+01  0.5262E+02
     -4.411  0.6830E+01  0.5327E+02
     -4.302  0.8108E+01  0.5411E+02
     -4.193  0.7177E+01  0.5496E+02
     -4.083  0.5870E+01  0.5567E+02
     -3.974  0.5906E+01  0.5629E+02
     -3.865  0.7451E+01  0.5708E+02
     -3.756  0.6931E+01  0.5787E+02
     -3.647  0.7011E+01  0.5863E+02
     -3.537  0.6720E+01  0.5938E+02
     -3.428  0.9179E+01  0.6017E+02
     -3.319  0.1042E+02  0.6125E+02
     -3.210  0.8262E+01  0.6227E+02
     -3.100  0.8491E+01  0.6320E+02
     -2.991  0.7450E+01  0.6408E+02
     -2.882  0.6827E+01  0.6484E+02
     -2.773  0.7650E+01  0.6563E+02
     -2.664  0.8713E+01  0.6652E+02
     -2.554  0.1117E+02  0.6757E+02
     -2.445  0.1377E+02  0.6894E+02
     -2.336  0.1204E+02  0.7043E+02
     -2.227  0.1133E+02  0.7164E+02
     -2.117  0.1235E+02  0.7296E+02
     -2.008  0.1421E+02  0.7434E+02
     -1.899  0.1322E+02  0.7594E+02
     -1.790  0.1552E+02  0.7746E+02
     -1.680  0.1163E+02  0.7915E+02
     -1.571  0.1425E+02  0.8040E+02
     -1.462  0.1802E+02  0.8250E+02
     -1.353  0.1966E+02  0.8452E+02
     -1.244  0.1428E+02  0.8631E+02
     -1.134  0.1253E+02  0.8777E+02
     -1.025  0.1175E+02  0.8909E+02
     -0.916  0.7834E+01  0.9016E+02
     -0.807  0.8056E+01  0.9103E+02
     -0.697  0.1078E+02  0.9203E+02
     -0.588  0.1417E+02  0.9346E+02
     -0.479  0.1891E+02  0.9510E+02
     -0.370  0.8934E+01  0.9636E+02
     -0.261  0.9569E+01  0.9732E+02
     -0.151  0.1024E+02  0.9840E+02
     -0.042  0.1068E+02  0.9957E+02
      0.067  0.1114E+02  0.1008E+03
      0.176  0.9507E+01  0.1019E+03
      0.286  0.9539E+01  0.1029E+03
      0.395  0.9803E+01  0.1040E+03
      0.504  0.9596E+01  0.1050E+03
      0.613  0.9336E+01  0.1061E+03
      0.723  0.9286E+01  0.1071E+03
      0.832  0.9342E+01  0.1081E+03
      0.941  0.9264E+01  0.1092E+03
      1.050  0.9262E+01  0.1102E+03
      1.159  0.9237E+01  0.1112E+03
      1.269  0.9535E+01  0.1122E+03
      1.378  0.9482E+01  0.1133E+03
      1.487  0.9254E+01  0.1143E+03
      1.596  0.9453E+01  0.1153E+03
      1.706  0.9009E+01  0.1164E+03
      1.815  0.6521E+01  0.1172E+03
      1.924  0.6445E+01  0.1179E+03
      2.033  0.6071E+01  0.1186E+03
      2.142  0.4446E+01  0.1191E+03
      2.252  0.4336E+01  0.1196E+03
      2.361  0.5736E+01  0.1201E+03
      2.470  0.7487E+01  0.1209E+03
      2.579  0.8618E+01  0.1218E+03
      2.689  0.4613E+01  0.1225E+03
      2.798  0.7105E+01  0.1232E+03
      2.907  0.6700E+01  0.1240E+03
      3.016  0.5088E+01  0.1246E+03
      3.125  0.4203E+01  0.1251E+03
      3.235  0.3614E+01  0.1256E+03
      3.344  0.3288E+01  0.1259E+03
      3.453  0.2969E+01  0.1263E+03
      3.562  0.2650E+01  0.1266E+03
      3.672  0.2249E+01  0.1269E+03
      3.781  0.1926E+01  0.1271E+03
      3.890  0.1686E+01  0.1273E+03
      3.999  0.1442E+01  0.1275E+03
      4.109  0.1201E+01  0.1276E+03
      4.218  0.9977E+00  0.1277E+03
      4.327  0.8378E+00  0.1278E+03
      4.436  0.6146E+00  0.1279E+03
      4.545  0.4033E+00  0.1280E+03
      4.655  0.2016E+00  0.1280E+03
      4.764  0.9789E-02  0.1280E+03
      4.873  0.1014E+00  0.1280E+03
      4.982  0.2387E+00  0.1280E+03
      5.092  0.3866E+00  0.1281E+03
      5.201  0.5492E+00  0.1281E+03
      5.310  0.7277E+00  0.1282E+03
      5.419  0.9311E+00  0.1283E+03
      5.528  0.1226E+01  0.1284E+03
      5.638  0.1603E+01  0.1285E+03
      5.747  0.1948E+01  0.1287E+03
      5.856  0.2312E+01  0.1290E+03
      5.965  0.2810E+01  0.1292E+03
      6.075  0.3317E+01  0.1296E+03
      6.184  0.4326E+01  0.1300E+03
      6.293  0.5997E+01  0.1306E+03
      6.402  0.8249E+01  0.1317E+03
      6.512  0.8153E+01  0.1326E+03
      6.621  0.7456E+01  0.1335E+03
      6.730  0.7673E+01  0.1343E+03
      6.839  0.6500E+01  0.1351E+03
      6.948  0.5919E+01  0.1358E+03
      7.058  0.5724E+01  0.1364E+03
      7.167  0.4930E+01  0.1370E+03
      7.276  0.4137E+01  0.1375E+03
      7.385  0.3580E+01  0.1379E+03
      7.495  0.3525E+01  0.1383E+03
      7.604  0.3894E+01  0.1387E+03
      7.713  0.4286E+01  0.1392E+03
      7.822  0.4611E+01  0.1396E+03
      7.931  0.4817E+01  0.1402E+03
      8.041  0.4631E+01  0.1407E+03
      8.150  0.4450E+01  0.1412E+03
      8.259  0.4271E+01  0.1417E+03
      8.368  0.4068E+01  0.1421E+03
      8.478  0.3888E+01  0.1425E+03
      8.587  0.3734E+01  0.1430E+03
      8.696  0.3619E+01  0.1434E+03
      8.805  0.3536E+01  0.1438E+03
      8.915  0.3448E+01  0.1441E+03
      9.024  0.3314E+01  0.1445E+03
      9.133  0.3218E+01  0.1449E+03
      9.242  0.3256E+01  0.1452E+03
      9.351  0.3572E+01  0.1456E+03
      9.461  0.3894E+01  0.1460E+03
      9.570  0.3997E+01  0.1464E+03
      9.679  0.3803E+01  0.1468E+03
      9.788  0.3807E+01  0.1473E+03
      9.898  0.3854E+01  0.1477E+03
     10.007  0.3882E+01  0.1481E+03
     10.116  0.3912E+01  0.1485E+03
     10.225  0.3883E+01  0.1490E+03
     10.334  0.3876E+01  0.1494E+03
     10.444  0.3886E+01  0.1498E+03
     10.553  0.3898E+01  0.1502E+03
     10.662  0.4376E+01  0.1507E+03
     10.771  0.4971E+01  0.1512E+03
     10.881  0.5357E+01  0.1517E+03
     10.990  0.4985E+01  0.1523E+03
     11.099  0.4813E+01  0.1528E+03
     11.208  0.4636E+01  0.1534E+03
     11.317  0.3568E+01  0.1539E+03
     11.427  0.3425E+01  0.1542E+03
     11.536  0.3165E+01  0.1546E+03
     11.645  0.3383E+01  0.1550E+03
     11.754  0.3929E+01  0.1554E+03
     11.864  0.3317E+01  0.1558E+03
     11.973  0.2858E+01  0.1560E+03
     12.082  0.6690E+01  0.1566E+03
     12.191  0.7191E+01  0.1574E+03
     12.301  0.1117E+02  0.1583E+03
     12.410  0.1321E+02  0.1597E+03
     12.519  0.1338E+02  0.1612E+03
     12.628  0.1337E+02  0.1627E+03
     12.737  0.1109E+02  0.1640E+03
     12.847  0.7401E+01  0.1651E+03
     12.956  0.6169E+01  0.1658E+03
     13.065  0.5523E+01  0.1664E+03
     13.174  0.5496E+01  0.1671E+03
     13.284  0.3385E+01  0.1675E+03
     13.393  0.2029E+01  0.1678E+03
     13.502  0.6059E+00  0.1680E+03
     13.611  0.2555E-01  0.1680E+03
     13.720  0.9585E-02  0.1680E+03
     13.830  0.1596E-02  0.1680E+03
     13.939  0.0000E+00  0.1680E+03
     14.048  0.0000E+00  0.1680E+03
     14.157  0.0000E+00  0.1680E+03
     14.267  0.0000E+00  0.1680E+03
     14.376  0.0000E+00  0.1680E+03
     14.485  0.0000E+00  0.1680E+03
     14.594  0.0000E+00  0.1680E+03
     14.704  0.0000E+00  0.1680E+03
     14.813  0.0000E+00  0.1680E+03
     14.922  0.0000E+00  0.1680E+03
     15.031  0.0000E+00  0.1680E+03
     15.140  0.0000E+00  0.1680E+03
     15.250  0.0000E+00  0.1680E+03
     15.359  0.0000E+00  0.1680E+03
     15.468  0.0000E+00  0.1680E+03
     15.577  0.0000E+00  0.1680E+03
     15.687  0.0000E+00  0.1680E+03
     15.796  0.0000E+00  0.1680E+03
     15.905  0.0000E+00  0.1680E+03
