  32  32   0   0
  0.8294063E+01  0.4932875E-09  0.4932875E-09  0.1260033E-08  0.5000000E-15
  1.000000000000000E-004
  CAR 
 graphite                                
     16.95024846    -16.46356042  301      5.23279141      1.00000000
    -16.464  0.0000E+00  0.0000E+00
    -16.352  0.0000E+00  0.0000E+00
    -16.241  0.0000E+00  0.0000E+00
    -16.129  0.0000E+00  0.0000E+00
    -16.018  0.0000E+00  0.0000E+00
    -15.907  0.0000E+00  0.0000E+00
    -15.795  0.0000E+00  0.0000E+00
    -15.684  0.0000E+00  0.0000E+00
    -15.573  0.0000E+00  0.0000E+00
    -15.461  0.0000E+00  0.0000E+00
    -15.350  0.0000E+00  0.0000E+00
    -15.238  0.0000E+00  0.0000E+00
    -15.127  0.0000E+00  0.0000E+00
    -15.016  0.0000E+00  0.0000E+00
    -14.904  0.0000E+00  0.0000E+00
    -14.793  0.0000E+00  0.0000E+00
    -14.681  0.0000E+00  0.0000E+00
    -14.570  0.0000E+00  0.0000E+00
    -14.459  0.9484E-02  0.1526E-04
    -14.347  0.1457E+01  0.9488E-01
    -14.236  0.2364E+01  0.3058E+00
    -14.125  0.3015E+01  0.6061E+00
    -14.013  0.3975E+01  0.9909E+00
    -13.902  0.4833E+01  0.1515E+01
    -13.790  0.4954E+01  0.2063E+01
    -13.679  0.4889E+01  0.2608E+01
    -13.568  0.5016E+01  0.3160E+01
    -13.456  0.4916E+01  0.3714E+01
    -13.345  0.4937E+01  0.4262E+01
    -13.234  0.5377E+01  0.4830E+01
    -13.122  0.5589E+01  0.5442E+01
    -13.011  0.6489E+01  0.6105E+01
    -12.899  0.5886E+01  0.6817E+01
    -12.788  0.3997E+01  0.7357E+01
    -12.677  0.2656E+01  0.7695E+01
    -12.565  0.3633E+01  0.8062E+01
    -12.454  0.3952E+01  0.8448E+01
    -12.343  0.5995E+01  0.9131E+01
    -12.231  0.5379E+01  0.9751E+01
    -12.120  0.5779E+01  0.1035E+02
    -12.008  0.5058E+01  0.1098E+02
    -11.897  0.4802E+01  0.1150E+02
    -11.786  0.5091E+01  0.1205E+02
    -11.674  0.4999E+01  0.1261E+02
    -11.563  0.5022E+01  0.1317E+02
    -11.451  0.5214E+01  0.1373E+02
    -11.340  0.5821E+01  0.1436E+02
    -11.229  0.4989E+01  0.1495E+02
    -11.117  0.5019E+01  0.1550E+02
    -11.006  0.5073E+01  0.1607E+02
    -10.895  0.5150E+01  0.1663E+02
    -10.783  0.5225E+01  0.1721E+02
    -10.672  0.5313E+01  0.1780E+02
    -10.560  0.5561E+01  0.1840E+02
    -10.449  0.5691E+01  0.1903E+02
    -10.338  0.6029E+01  0.1968E+02
    -10.226  0.6023E+01  0.2035E+02
    -10.115  0.6087E+01  0.2102E+02
    -10.004  0.5204E+01  0.2165E+02
     -9.892  0.4198E+01  0.2217E+02
     -9.781  0.4302E+01  0.2263E+02
     -9.669  0.5062E+01  0.2316E+02
     -9.558  0.5398E+01  0.2375E+02
     -9.447  0.5592E+01  0.2436E+02
     -9.335  0.6154E+01  0.2500E+02
     -9.224  0.7027E+01  0.2574E+02
     -9.113  0.8651E+01  0.2660E+02
     -9.001  0.8439E+01  0.2763E+02
     -8.890  0.6319E+01  0.2847E+02
     -8.778  0.5022E+01  0.2909E+02
     -8.667  0.3640E+01  0.2964E+02
     -8.556  0.3250E+01  0.3003E+02
     -8.444  0.2859E+01  0.3037E+02
     -8.333  0.2470E+01  0.3066E+02
     -8.221  0.3113E+01  0.3096E+02
     -8.110  0.2394E+01  0.3126E+02
     -7.999  0.1910E+01  0.3150E+02
     -7.887  0.1976E+01  0.3170E+02
     -7.776  0.3472E+01  0.3197E+02
     -7.665  0.6577E+01  0.3262E+02
     -7.553  0.4240E+01  0.3317E+02
     -7.442  0.4065E+01  0.3364E+02
     -7.330  0.6272E+01  0.3415E+02
     -7.219  0.6633E+01  0.3484E+02
     -7.108  0.6650E+01  0.3563E+02
     -6.996  0.7785E+01  0.3644E+02
     -6.885  0.8441E+01  0.3737E+02
     -6.774  0.7369E+01  0.3825E+02
     -6.662  0.6139E+01  0.3898E+02
     -6.551  0.5849E+01  0.3965E+02
     -6.439  0.5605E+01  0.4028E+02
     -6.328  0.5402E+01  0.4090E+02
     -6.217  0.5215E+01  0.4149E+02
     -6.105  0.5024E+01  0.4206E+02
     -5.994  0.4873E+01  0.4261E+02
     -5.883  0.4830E+01  0.4315E+02
     -5.771  0.4799E+01  0.4368E+02
     -5.660  0.4639E+01  0.4421E+02
     -5.548  0.4521E+01  0.4472E+02
     -5.437  0.3929E+01  0.4521E+02
     -5.326  0.3753E+01  0.4561E+02
     -5.214  0.4354E+01  0.4607E+02
     -5.103  0.5056E+01  0.4659E+02
     -4.991  0.5807E+01  0.4720E+02
     -4.880  0.7426E+01  0.4790E+02
     -4.769  0.9233E+01  0.4885E+02
     -4.657  0.8772E+01  0.4992E+02
     -4.546  0.6134E+01  0.5075E+02
     -4.435  0.3497E+01  0.5129E+02
     -4.323  0.2346E+01  0.5159E+02
     -4.212  0.3153E+01  0.5189E+02
     -4.100  0.4517E+01  0.5231E+02
     -3.989  0.6113E+01  0.5290E+02
     -3.878  0.7757E+01  0.5368E+02
     -3.766  0.7934E+01  0.5457E+02
     -3.655  0.6600E+01  0.5538E+02
     -3.544  0.5350E+01  0.5604E+02
     -3.432  0.8170E+01  0.5674E+02
     -3.321  0.7988E+01  0.5765E+02
     -3.209  0.7742E+01  0.5852E+02
     -3.098  0.7613E+01  0.5938E+02
     -2.987  0.7575E+01  0.6023E+02
     -2.875  0.9046E+01  0.6118E+02
     -2.764  0.8231E+01  0.6217E+02
     -2.653  0.9227E+01  0.6318E+02
     -2.541  0.8017E+01  0.6414E+02
     -2.430  0.6984E+01  0.6497E+02
     -2.318  0.7731E+01  0.6578E+02
     -2.207  0.9139E+01  0.6671E+02
     -2.096  0.1102E+02  0.6784E+02
     -1.984  0.1224E+02  0.6913E+02
     -1.873  0.1159E+02  0.7051E+02
     -1.761  0.1072E+02  0.7169E+02
     -1.650  0.1240E+02  0.7299E+02
     -1.539  0.1407E+02  0.7441E+02
     -1.427  0.1364E+02  0.7604E+02
     -1.316  0.1294E+02  0.7749E+02
     -1.205  0.1111E+02  0.7914E+02
     -1.093  0.1366E+02  0.8038E+02
     -0.982  0.1903E+02  0.8247E+02
     -0.870  0.1737E+02  0.8454E+02
     -0.759  0.1442E+02  0.8629E+02
     -0.648  0.1242E+02  0.8779E+02
     -0.536  0.1076E+02  0.8906E+02
     -0.425  0.9838E+01  0.9021E+02
     -0.314  0.8212E+01  0.9118E+02
     -0.202  0.1251E+02  0.9227E+02
     -0.091  0.1356E+02  0.9379E+02
      0.021  0.1255E+02  0.9539E+02
      0.132  0.8867E+01  0.9654E+02
      0.243  0.8691E+01  0.9749E+02
      0.355  0.9703E+01  0.9855E+02
      0.466  0.1037E+02  0.9966E+02
      0.577  0.1053E+02  0.1008E+03
      0.689  0.1083E+02  0.1022E+03
      0.800  0.9466E+01  0.1033E+03
      0.912  0.9338E+01  0.1043E+03
      1.023  0.9349E+01  0.1054E+03
      1.134  0.9369E+01  0.1064E+03
      1.246  0.9649E+01  0.1075E+03
      1.357  0.9185E+01  0.1085E+03
      1.469  0.9304E+01  0.1095E+03
      1.580  0.9716E+01  0.1106E+03
      1.691  0.9495E+01  0.1117E+03
      1.803  0.9140E+01  0.1127E+03
      1.914  0.8543E+01  0.1137E+03
      2.025  0.9553E+01  0.1147E+03
      2.137  0.9789E+01  0.1158E+03
      2.248  0.7367E+01  0.1168E+03
      2.360  0.5874E+01  0.1175E+03
      2.471  0.6028E+01  0.1181E+03
      2.582  0.5588E+01  0.1188E+03
      2.694  0.4521E+01  0.1194E+03
      2.805  0.5058E+01  0.1199E+03
      2.916  0.8071E+01  0.1206E+03
      3.028  0.8432E+01  0.1215E+03
      3.139  0.5737E+01  0.1223E+03
      3.251  0.4182E+01  0.1229E+03
      3.362  0.5487E+01  0.1235E+03
      3.473  0.6391E+01  0.1242E+03
      3.585  0.5470E+01  0.1249E+03
      3.696  0.4248E+01  0.1254E+03
      3.807  0.3441E+01  0.1258E+03
      3.919  0.3043E+01  0.1262E+03
      4.030  0.2725E+01  0.1265E+03
      4.142  0.2381E+01  0.1268E+03
      4.253  0.1929E+01  0.1270E+03
      4.364  0.1694E+01  0.1272E+03
      4.476  0.1461E+01  0.1274E+03
      4.587  0.1250E+01  0.1276E+03
      4.699  0.1070E+01  0.1277E+03
      4.810  0.9519E+00  0.1278E+03
      4.921  0.7274E+00  0.1279E+03
      5.033  0.4509E+00  0.1280E+03
      5.144  0.1807E+00  0.1280E+03
      5.255  0.9458E-02  0.1280E+03
      5.367  0.1532E+00  0.1280E+03
      5.478  0.3075E+00  0.1280E+03
      5.590  0.4703E+00  0.1281E+03
      5.701  0.6438E+00  0.1281E+03
      5.812  0.8322E+00  0.1282E+03
      5.924  0.1019E+01  0.1283E+03
      6.035  0.1254E+01  0.1285E+03
      6.146  0.1546E+01  0.1286E+03
      6.258  0.1852E+01  0.1288E+03
      6.369  0.2262E+01  0.1290E+03
      6.481  0.2992E+01  0.1293E+03
      6.592  0.4179E+01  0.1297E+03
      6.703  0.4500E+01  0.1302E+03
      6.815  0.1177E+02  0.1310E+03
      6.926  0.8525E+01  0.1322E+03
      7.037  0.7377E+01  0.1331E+03
      7.149  0.7337E+01  0.1339E+03
      7.260  0.7125E+01  0.1347E+03
      7.372  0.6907E+01  0.1355E+03
      7.483  0.5557E+01  0.1362E+03
      7.594  0.4696E+01  0.1368E+03
      7.706  0.4647E+01  0.1373E+03
      7.817  0.3641E+01  0.1377E+03
      7.929  0.3495E+01  0.1381E+03
      8.040  0.3728E+01  0.1385E+03
      8.151  0.4026E+01  0.1389E+03
      8.263  0.4477E+01  0.1394E+03
      8.374  0.4798E+01  0.1399E+03
      8.485  0.5008E+01  0.1405E+03
      8.597  0.4708E+01  0.1410E+03
      8.708  0.4379E+01  0.1415E+03
      8.820  0.4093E+01  0.1420E+03
      8.931  0.3982E+01  0.1424E+03
      9.042  0.3842E+01  0.1429E+03
      9.154  0.3667E+01  0.1433E+03
      9.265  0.3578E+01  0.1437E+03
      9.376  0.3485E+01  0.1441E+03
      9.488  0.3345E+01  0.1445E+03
      9.599  0.3230E+01  0.1448E+03
      9.711  0.3187E+01  0.1452E+03
      9.822  0.3186E+01  0.1456E+03
      9.933  0.3189E+01  0.1459E+03
     10.045  0.3041E+01  0.1463E+03
     10.156  0.2986E+01  0.1466E+03
     10.267  0.3109E+01  0.1469E+03
     10.379  0.3320E+01  0.1473E+03
     10.490  0.3448E+01  0.1477E+03
     10.602  0.3528E+01  0.1481E+03
     10.713  0.3605E+01  0.1485E+03
     10.824  0.3634E+01  0.1489E+03
     10.936  0.3597E+01  0.1493E+03
     11.047  0.3914E+01  0.1497E+03
     11.159  0.4160E+01  0.1501E+03
     11.270  0.4268E+01  0.1506E+03
     11.381  0.4148E+01  0.1511E+03
     11.493  0.4079E+01  0.1515E+03
     11.604  0.4120E+01  0.1520E+03
     11.715  0.4544E+01  0.1524E+03
     11.827  0.4449E+01  0.1530E+03
     11.938  0.3488E+01  0.1535E+03
     12.050  0.2858E+01  0.1538E+03
     12.161  0.2334E+01  0.1541E+03
     12.272  0.3485E+01  0.1544E+03
     12.384  0.4112E+01  0.1548E+03
     12.495  0.5146E+01  0.1554E+03
     12.606  0.6825E+01  0.1560E+03
     12.718  0.9301E+01  0.1570E+03
     12.829  0.1064E+02  0.1581E+03
     12.941  0.1240E+02  0.1594E+03
     13.052  0.1174E+02  0.1607E+03
     13.163  0.1061E+02  0.1620E+03
     13.275  0.9977E+01  0.1631E+03
     13.386  0.9967E+01  0.1642E+03
     13.497  0.1122E+02  0.1654E+03
     13.609  0.8515E+01  0.1665E+03
     13.720  0.5028E+01  0.1672E+03
     13.832  0.2816E+01  0.1677E+03
     13.943  0.1183E+01  0.1679E+03
     14.054  0.2916E+00  0.1679E+03
     14.166  0.1451E+00  0.1680E+03
     14.277  0.7841E-01  0.1680E+03
     14.389  0.5461E-01  0.1680E+03
     14.500  0.3510E-01  0.1680E+03
     14.611  0.1988E-01  0.1680E+03
     14.723  0.8964E-02  0.1680E+03
     14.834  0.2337E-02  0.1680E+03
     14.945  0.4035E-05  0.1680E+03
     15.057  0.0000E+00  0.1680E+03
     15.168  0.0000E+00  0.1680E+03
     15.280  0.0000E+00  0.1680E+03
     15.391  0.0000E+00  0.1680E+03
     15.502  0.0000E+00  0.1680E+03
     15.614  0.0000E+00  0.1680E+03
     15.725  0.0000E+00  0.1680E+03
     15.836  0.0000E+00  0.1680E+03
     15.948  0.0000E+00  0.1680E+03
     16.059  0.0000E+00  0.1680E+03
     16.171  0.0000E+00  0.1680E+03
     16.282  0.0000E+00  0.1680E+03
     16.393  0.0000E+00  0.1680E+03
     16.505  0.0000E+00  0.1680E+03
     16.616  0.0000E+00  0.1680E+03
     16.727  0.0000E+00  0.1680E+03
     16.839  0.0000E+00  0.1680E+03
     16.950  0.0000E+00  0.1680E+03
