   32   32    1    1
  0.8419860E+01  0.4934311E-09  0.4934311E-09  0.1277891E-08  0.5000000E-15
  1.000000000000000E-004
  CAR 
 graphite                                
    128    163     84
 
  0.0000000E+00  0.0000000E+00  0.0000000E+00  0.3086420E-02
    1      -14.570407
    2      -14.363729
    3      -14.363108
    4      -14.136527
    5       -9.215980
    6       -9.213323
    7       -9.210830
    8       -9.124150
    9       -9.120035
   10       -9.119731
   11       -9.119241
   12       -9.119199
   13       -9.115191
   14       -9.050504
   15       -9.048693
   16       -9.046663
   17       -8.113716
   18       -8.112208
   19       -8.111376
   20       -8.075434
   21       -8.072832
   22       -8.071795
   23       -8.071304
   24       -8.071301
   25       -8.068427
   26       -7.991641
   27       -7.990057
   28       -7.988027
   29       -3.605956
   30       -2.489661
   31       -2.487587
   32       -1.289901
   33       -1.287385
   34       -1.286337
   35       -1.247669
   36       -1.245008
   37       -1.244996
   38       -1.243772
   39       -1.241845
   40       -1.240854
   41       -1.201340
   42       -1.198844
   43       -1.197690
   44       -1.102961
   45        2.111274
   46        2.115811
   47        2.127097
   48        2.128804
   49        2.133612
   50        2.134388
   51        2.146038
   52        2.149464
   53        2.205129
   54        2.207678
   55        2.209401
   56        2.755419
   57        2.759106
   58        2.759333
   59        2.759450
   60        2.759649
   61        2.763190
   62        3.082476
   63        3.083919
   64        3.085232
   65        6.664272
   66        6.665678
   67        6.666606
   68        6.751970
   69        6.757109
   70        6.758674
   71        6.759030
   72        6.759507
   73        6.764943
   74        7.445956
   75        7.448185
   76        7.450362
   77        9.879911
   78       12.225601
   79       12.229539
   80       12.232634
   81       12.495850
   82       12.499674
   83       12.502396
   84       12.503711
 
  0.1111111E+00 -0.2081668E-16  0.0000000E+00  0.6172840E-02
    1      -14.496549
    2      -14.290729
    3      -14.290109
    4      -14.064413
    5      -10.023586
    6       -9.872921
    7       -9.872479
    8       -9.713210
    9       -9.473849
   10       -9.471226
   11       -9.343501
   12       -9.340847
   13       -9.340124
   14       -9.338521
   15       -9.209654
   16       -9.207084
   17       -7.833366
   18       -7.831939
   19       -7.731948
   20       -7.731543
   21       -7.730329
   22       -7.728339
   23       -7.611929
   24       -7.610272
   25       -7.329589
   26       -7.211559
   27       -7.209400
   28       -7.082340
   29       -3.516067
   30       -2.402937
   31       -2.400868
   32       -1.518036
   33       -1.515190
   34       -1.470954
   35       -1.468883
   36       -1.466663
   37       -1.465796
   38       -1.420012
   39       -1.417261
   40       -1.215295
   41       -1.172689
   42       -1.170157
   43       -1.127070
   44       -1.020380
   45        1.588356
   46        1.809072
   47        1.828708
   48        1.834073
   49        1.853131
   50        1.956172
   51        1.973696
   52        1.978447
   53        1.996667
   54        2.078736
   55        2.081724
   56        2.333448
   57        2.335704
   58        2.703674
   59        2.707459
   60        2.707671
   61        2.708667
   62        3.037847
   63        3.167213
   64        3.169121
   65        6.710580
   66        6.711730
   67        6.886921
   68        6.888945
   69        6.890056
   70        6.895170
   71        6.938310
   72        7.294484
   73        7.299616
   74        7.582941
   75        7.585399
   76        8.064063
   77        9.966227
   78       12.270517
   79       12.538023
   80       12.538927
   81       12.562032
   82       12.567177
   83       12.822121
   84       12.838382
 
  0.2222222E+00 -0.1387779E-16  0.0000000E+00  0.6172840E-02
    1      -14.275294
    2      -14.071940
    3      -14.071323
    4      -13.848638
    5      -11.038660
    6      -10.871877
    7      -10.871340
    8      -10.692393
    9       -9.825838
   10       -9.823726
   11       -9.678738
   12       -9.676662
   13       -9.676113
   14       -9.674575
   15       -9.520882
   16       -9.518733
   17       -7.158808
   18       -7.157141
   19       -7.044160
   20       -7.043768
   21       -7.042375
   22       -7.040623
   23       -6.919384
   24       -6.917596
   25       -6.003969
   26       -5.892273
   27       -5.890210
   28       -5.772516
   29       -3.247870
   30       -2.143617
   31       -2.141572
   32       -2.128557
   33       -2.125960
   34       -2.071291
   35       -2.069263
   36       -2.067363
   37       -2.066372
   38       -2.009071
   39       -2.006517
   40       -1.000176
   41       -0.958512
   42       -0.955893
   43       -0.913723
   44       -0.773908
   45        0.545267
   46        0.978261
   47        1.010428
   48        1.015274
   49        1.047391
   50        1.445950
   51        1.447846
   52        1.534008
   53        1.558613
   54        1.563180
   55        1.588354
   56        1.841313
   57        1.843746
   58        2.472871
   59        2.582168
   60        2.585999
   61        2.586285
   62        2.587317
   63        3.288842
   64        3.291018
   65        6.896400
   66        6.898075
   67        7.221090
   68        7.222812
   69        7.223866
   70        7.228684
   71        7.879403
   72        7.881982
   73        7.996384
   74        8.515375
   75        8.519693
   76        9.272840
   77       10.226068
   78       12.392201
   79       12.650604
   80       12.651854
   81       12.900437
   82       13.137369
   83       13.141577
   84       13.469648
 
  0.3333333E+00 -0.2775558E-16  0.0000000E+00  0.6172840E-02
    1      -13.907930
    2      -13.708574
    3      -13.707961
    4      -13.490211
    5      -11.954113
    6      -11.776733
    7      -11.776157
    8      -11.584205
    9      -10.084501
   10      -10.082604
   11       -9.930999
   12       -9.929085
   13       -9.928747
   14       -9.927163
   15       -9.765564
   16       -9.763625
   17       -6.349176
   18       -6.347271
   19       -6.242456
   20       -6.241999
   21       -6.240614
   22       -6.238531
   23       -6.129030
   24       -6.127006
   25       -4.566761
   26       -4.469318
   27       -4.467008
   28       -4.364764
   29       -2.947304
   30       -2.945023
   31       -2.880873
   32       -2.878617
   33       -2.877392
   34       -2.876094
   35       -2.808012
   36       -2.805720
   37       -2.803460
   38       -1.714948
   39       -1.712912
   40       -0.651228
   41       -0.611039
   42       -0.608242
   43       -0.567326
   44       -0.487610
   45       -0.367891
   46       -0.212397
   47       -0.164331
   48       -0.160359
   49       -0.111738
   50        0.494719
   51        0.496546
   52        0.969293
   53        0.999947
   54        1.004032
   55        1.035055
   56        1.637995
   57        1.640219
   58        1.671203
   59        2.457834
   60        2.461694
   61        2.462026
   62        2.463131
   63        3.347816
   64        3.350177
   65        7.207904
   66        7.210140
   67        7.612029
   68        7.613242
   69        7.614141
   70        7.618664
   71        8.158942
   72        8.161602
   73        9.489387
   74        9.990886
   75        9.994821
   76       10.653333
   77       10.665336
   78       12.553621
   79       12.825731
   80       12.827171
   81       12.870439
   82       13.254510
   83       13.259039
   84       13.306323
 
  0.4444444E+00 -0.2775558E-16  0.0000000E+00  0.6172840E-02
    1      -13.396111
    2      -13.202453
    3      -13.201840
    4      -12.990953
    5      -12.743129
    6      -12.556667
    7      -12.556082
    8      -12.353889
    9      -10.217822
   10      -10.216014
   11      -10.061868
   12      -10.059949
   13      -10.059823
   14      -10.058157
   15       -9.893425
   16       -9.891574
   17       -5.591840
   18       -5.589818
   19       -5.513544
   20       -5.512879
   21       -5.512328
   22       -5.508822
   23       -5.434930
   24       -5.432661
   25       -3.690960
   26       -3.689212
   27       -3.638789
   28       -3.635852
   29       -3.635388
   30       -3.633949
   31       -3.573107
   32       -3.571425
   33       -3.081639
   34       -3.000007
   35       -2.997300
   36       -2.912837
   37       -2.188228
   38       -1.604262
   39       -1.540785
   40       -1.537389
   41       -1.469588
   42       -1.410390
   43       -1.121162
   44       -1.119364
   45       -0.378283
   46       -0.376422
   47       -0.184755
   48       -0.146355
   49       -0.143299
   50       -0.104819
   51        0.189186
   52        0.371127
   53        0.406405
   54        0.410049
   55        0.445507
   56        0.880550
   57        1.526293
   58        1.528442
   59        2.383079
   60        2.386944
   61        2.387293
   62        2.388463
   63        3.361300
   64        3.363747
   65        7.473023
   66        7.475646
   67        7.878947
   68        7.879544
   69        7.879990
   70        7.884517
   71        8.302763
   72        8.305395
   73       11.122070
   74       11.262550
   75       11.527646
   76       11.531502
   77       12.016265
   78       12.087295
   79       12.734301
   80       12.874269
   81       12.915875
   82       12.922531
   83       13.043587
   84       13.046519
 
 -0.1694066E-20  0.1111111E+00  0.0000000E+00  0.6172840E-02
    1      -14.496547
    2      -14.290727
    3      -14.290108
    4      -14.064410
    5      -10.023696
    6       -9.873086
    7       -9.872581
    8       -9.713377
    9       -9.473775
   10       -9.470943
   11       -9.343238
   12       -9.340847
   13       -9.340127
   14       -9.337983
   15       -9.209496
   16       -9.206790
   17       -7.834617
   18       -7.832128
   19       -7.734320
   20       -7.731894
   21       -7.730318
   22       -7.728205
   23       -7.613100
   24       -7.610271
   25       -7.328512
   26       -7.209640
   27       -7.209276
   28       -7.081360
   29       -3.516071
   30       -2.402942
   31       -2.400873
   32       -1.516509
   33       -1.515417
   34       -1.468957
   35       -1.468851
   36       -1.466166
   37       -1.465790
   38       -1.418537
   39       -1.417463
   40       -1.216484
   41       -1.172792
   42       -1.172638
   43       -1.128480
   44       -1.020387
   45        1.587482
   46        1.812752
   47        1.833457
   48        1.834069
   49        1.854905
   50        1.954336
   51        1.973592
   52        1.973703
   53        1.993060
   54        2.079399
   55        2.082243
   56        2.333074
   57        2.334046
   58        2.704645
   59        2.707451
   60        2.707660
   61        2.710348
   62        3.036705
   63        3.167557
   64        3.169896
   65        6.709375
   66        6.711043
   67        6.884415
   68        6.888308
   69        6.890216
   70        6.893798
   71        6.940230
   72        7.297238
   73        7.300566
   74        7.581363
   75        7.584660
   76        8.065889
   77        9.966219
   78       12.269845
   79       12.537124
   80       12.538293
   81       12.563429
   82       12.566809
   83       12.819533
   84       12.837861
 
  0.1111111E+00  0.1111111E+00  0.0000000E+00  0.6172840E-02
    1      -14.348987
    2      -14.144813
    3      -14.144195
    4      -13.920524
    5      -10.490400
    6      -10.487290
    7      -10.332438
    8      -10.329169
    9      -10.329153
   10      -10.326155
   11      -10.160347
   12      -10.157186
   13       -9.025114
   14       -8.933814
   15       -8.932089
   16       -8.863161
   17       -7.927565
   18       -7.890229
   19       -7.886990
   20       -7.810412
   21       -6.647914
   22       -6.644516
   23       -6.533188
   24       -6.528797
   25       -6.528775
   26       -6.526450
   27       -6.406954
   28       -6.403603
   29       -3.337181
   30       -2.229883
   31       -2.227825
   32       -2.202130
   33       -2.143890
   34       -2.141297
   35       -2.081448
   36       -1.372405
   37       -1.369794
   38       -1.325449
   39       -1.323769
   40       -1.323757
   41       -1.319897
   42       -1.275987
   43       -1.272997
   44       -0.855829
   45        1.139195
   46        1.141845
   47        1.278154
   48        1.298322
   49        1.303448
   50        1.321014
   51        1.645901
   52        1.659885
   53        1.664830
   54        1.681836
   55        1.974263
   56        1.976067
   57        1.976263
   58        1.979599
   59        2.471429
   60        2.870865
   61        2.873244
   62        3.021861
   63        3.024701
   64        3.340537
   65        6.661412
   66        6.683578
   67        6.689001
   68        7.240197
   69        7.374335
   70        7.376950
   71        7.834825
   72        7.840254
   73        7.840686
   74        7.842572
   75        8.585060
   76        8.587997
   77       10.139558
   78       12.643900
   79       12.648102
   80       12.907390
   81       12.911431
   82       12.911470
   83       12.915876
   84       13.098533
 
  0.2222222E+00  0.1111111E+00  0.0000000E+00  0.6172840E-02
    1      -14.054669
    2      -13.853695
    3      -13.853080
    4      -13.633391
    5      -11.458703
    6      -11.286979
    7      -11.286419
    8      -11.101578
    9      -10.831492
   10      -10.667397
   11      -10.666909
   12      -10.490774
   13       -9.086200
   14       -8.959784
   15       -8.958727
   16       -8.831838
   17       -7.484876
   18       -7.390646
   19       -7.388027
   20       -7.278252
   21       -5.860530
   22       -5.752773
   23       -5.752424
   24       -5.639123
   25       -5.262345
   26       -5.158586
   27       -5.156526
   28       -5.047540
   29       -3.112769
   30       -3.043146
   31       -3.040614
   32       -2.980822
   33       -2.967647
   34       -1.902157
   35       -1.885758
   36       -1.883721
   37       -1.845744
   38       -1.845167
   39       -1.786771
   40       -1.083676
   41       -1.038544
   42       -1.036001
   43       -0.990044
   44       -0.529454
   45        0.082293
   46        0.319982
   47        0.353286
   48        0.358588
   49        0.390211
   50        0.796834
   51        1.027105
   52        1.028855
   53        1.097228
   54        1.119670
   55        1.124986
   56        1.149477
   57        1.688977
   58        1.690447
   59        2.138515
   60        2.597006
   61        2.706951
   62        3.223153
   63        3.225938
   64        3.682677
   65        6.601327
   66        6.691982
   67        6.696716
   68        7.167013
   69        7.929122
   70        8.408506
   71        8.411091
   72        8.692665
   73        9.048131
   74        9.205204
   75        9.208938
   76        9.891226
   77       10.487554
   78       12.796223
   79       13.055743
   80       13.056889
   81       13.234799
   82       13.316803
   83       13.321672
   84       13.616474
 
  0.3333333E+00  0.1111111E+00  0.0000000E+00  0.6172840E-02
    1      -13.615039
    2      -13.418974
    3      -13.418361
    4      -13.204519
    5      -12.311612
    6      -12.130094
    7      -12.129517
    8      -11.932970
    9      -11.040279
   10      -10.873386
   11      -10.872893
   12      -10.693682
   13       -9.234994
   14       -9.094509
   15       -9.093880
   16       -8.946374
   17       -6.722822
   18       -6.625431
   19       -6.622994
   20       -6.520307
   21       -5.055671
   22       -4.966122
   23       -4.965187
   24       -4.872668
   25       -4.047881
   26       -3.977419
   27       -3.974692
   28       -3.897238
   29       -3.808367
   30       -3.720218
   31       -3.717917
   32       -3.626475
   33       -2.602404
   34       -2.543345
   35       -2.541920
   36       -2.478215
   37       -2.450716
   38       -1.375803
   39       -1.373714
   40       -0.932058
   41       -0.901838
   42       -0.878213
   43       -0.874613
   44       -0.822906
   45       -0.666774
   46       -0.624056
   47       -0.621387
   48       -0.577735
   49       -0.047337
   50        0.105969
   51        0.107786
   52        0.468304
   53        0.500487
   54        0.504827
   55        0.538197
   56        0.583315
   57        1.324916
   58        1.506039
   59        1.507667
   60        2.580525
   61        2.589228
   62        3.312411
   63        3.314801
   64        4.023705
   65        6.503957
   66        6.811040
   67        6.814576
   68        7.265966
   69        8.436415
   70        8.863721
   71        8.865669
   72        9.338285
   73       10.259940
   74       10.708857
   75       10.712394
   76       11.008802
   77       11.286160
   78       12.517398
   79       13.076171
   80       13.248068
   81       13.249382
   82       13.360537
   83       13.369066
   84       13.385323
 
  0.4444444E+00  0.1111111E+00  0.0000000E+00  0.6172840E-02
    1      -13.034165
    2      -13.031258
    3      -12.845844
    4      -12.842741
    5      -12.842619
    6      -12.839939
    7      -12.637852
    8      -12.634879
    9      -11.110180
   10      -10.942661
   11      -10.942166
   12      -10.761905
   13       -9.291675
   14       -9.148563
   15       -9.148061
   16       -8.996850
   17       -6.206959
   18       -6.143011
   19       -6.140775
   20       -6.081830
   21       -4.566751
   22       -4.548735
   23       -4.515248
   24       -4.512964
   25       -4.512383
   26       -4.509903
   27       -4.462419
   28       -4.460655
   29       -3.011729
   30       -2.979674
   31       -2.976275
   32       -2.932786
   33       -2.343402
   34       -2.339953
   35       -2.274231
   36       -2.268154
   37       -2.268099
   38       -2.267955
   39       -2.196424
   40       -2.193537
   41       -1.754784
   42       -1.752406
   43       -0.707465
   44       -0.704775
   45       -0.704435
   46       -0.701149
   47       -0.140848
   48       -0.136748
   49       -0.101420
   50       -0.099754
   51       -0.099683
   52       -0.091772
   53       -0.059518
   54       -0.053292
   55        0.510267
   56        0.577301
   57        0.580029
   58        1.443216
   59        1.444973
   60        2.546555
   61        2.563425
   62        3.334611
   63        3.336472
   64        4.159687
   65        6.468253
   66        6.878155
   67        6.880388
   68        7.319301
   69        8.661246
   70        9.042242
   71        9.044159
   72        9.420263
   73       11.694732
   74       11.696608
   75       11.867604
   76       11.870792
   77       12.197702
   78       12.204131
   79       12.205058
   80       12.207743
   81       12.671998
   82       12.675655
   83       13.310814
   84       13.314494
 
 -0.4444444E+00  0.1111111E+00  0.0000000E+00  0.6172840E-02
    1      -13.615125
    2      -13.419055
    3      -13.418450
    4      -13.204604
    5      -12.311474
    6      -12.129961
    7      -12.129375
    8      -11.932832
    9      -11.040488
   10      -10.873595
   11      -10.873102
   12      -10.693891
   13       -9.234634
   14       -9.094043
   15       -9.093589
   16       -8.945971
   17       -6.722168
   18       -6.623907
   19       -6.623262
   20       -6.519716
   21       -5.056738
   22       -4.967907
   23       -4.965394
   24       -4.873585
   25       -4.048920
   26       -3.977653
   27       -3.976689
   28       -3.898413
   29       -3.808697
   30       -3.720725
   31       -3.718052
   32       -3.626787
   33       -2.601164
   34       -2.542939
   35       -2.539616
   36       -2.476775
   37       -2.450817
   38       -1.375900
   39       -1.373814
   40       -0.931666
   41       -0.901693
   42       -0.877271
   43       -0.875102
   44       -0.822784
   45       -0.666468
   46       -0.623963
   47       -0.620812
   48       -0.577367
   49       -0.047435
   50        0.106100
   51        0.107949
   52        0.468188
   53        0.500989
   54        0.503728
   55        0.537656
   56        0.583043
   57        1.325062
   58        1.505644
   59        1.507503
   60        2.580935
   61        2.588919
   62        3.313458
   63        3.314756
   64        4.024447
   65        6.503701
   66        6.811826
   67        6.813747
   68        7.265939
   69        8.435988
   70        8.862955
   71        8.865783
   72        9.338212
   73       10.259776
   74       10.708511
   75       10.712444
   76       11.008664
   77       11.286065
   78       12.517601
   79       13.075898
   80       13.247443
   81       13.249590
   82       13.363273
   83       13.370140
   84       13.387446
 
 -0.3333333E+00  0.1111111E+00  0.0000000E+00  0.6172840E-02
    1      -14.054730
    2      -13.853753
    3      -13.853143
    4      -13.633451
    5      -11.458535
    6      -11.286811
    7      -11.286248
    8      -11.101402
    9      -10.831926
   10      -10.667829
   11      -10.667337
   12      -10.491202
   13       -9.085375
   14       -8.958579
   15       -8.958178
   16       -8.830888
   17       -7.484540
   18       -7.389122
   19       -7.388823
   20       -7.277872
   21       -5.861555
   22       -5.754591
   23       -5.752582
   24       -5.640069
   25       -5.262668
   26       -5.159005
   27       -5.156736
   28       -5.047848
   29       -3.114164
   30       -3.043516
   31       -3.043136
   32       -2.980897
   33       -2.969132
   34       -1.900541
   35       -1.885830
   36       -1.883790
   37       -1.845230
   38       -1.842281
   39       -1.785003
   40       -1.083453
   41       -1.038420
   42       -1.035658
   43       -0.989800
   44       -0.529525
   45        0.082465
   46        0.320463
   47        0.354697
   48        0.357135
   49        0.389842
   50        0.796332
   51        1.027238
   52        1.029029
   53        1.097708
   54        1.121159
   55        1.123536
   56        1.148678
   57        1.688197
   58        1.690147
   59        2.138640
   60        2.597837
   61        2.706318
   62        3.225109
   63        3.225840
   64        3.683789
   65        6.601234
   66        6.692944
   67        6.695574
   68        7.166814
   69        7.928586
   70        8.407463
   71        8.411188
   72        8.692484
   73        9.047949
   74        9.204833
   75        9.208935
   76        9.891083
   77       10.487452
   78       12.796052
   79       13.055323
   80       13.056963
   81       13.234773
   82       13.316712
   83       13.321328
   84       13.629575
 
 -0.2222222E+00  0.1111111E+00  0.0000000E+00  0.6172840E-02
    1      -14.349023
    2      -14.144847
    3      -14.144232
    4      -13.920560
    5      -10.489450
    6      -10.488625
    7      -10.330231
    8      -10.329733
    9      -10.329333
   10      -10.328846
   11      -10.159466
   12      -10.158617
   13       -9.023619
   14       -8.931591
   15       -8.931308
   16       -8.861698
   17       -7.927536
   18       -7.888906
   19       -7.888685
   20       -7.810666
   21       -6.646922
   22       -6.646488
   23       -6.531161
   24       -6.530553
   25       -6.529079
   26       -6.528674
   27       -6.406069
   28       -6.405643
   29       -3.337225
   30       -2.229928
   31       -2.227869
   32       -2.203698
   33       -2.144342
   34       -2.144103
   35       -2.083128
   36       -1.370256
   37       -1.369938
   38       -1.323680
   39       -1.323500
   40       -1.321121
   41       -1.320642
   42       -1.273705
   43       -1.273404
   44       -0.855872
   45        1.139423
   46        1.141054
   47        1.278567
   48        1.300172
   49        1.300300
   50        1.319788
   51        1.647279
   52        1.662985
   53        1.663093
   54        1.681075
   55        1.974084
   56        1.976154
   57        1.976297
   58        1.978344
   59        2.472577
   60        2.870619
   61        2.872654
   62        3.024283
   63        3.024628
   64        3.341707
   65        6.661802
   66        6.684510
   67        6.687731
   68        7.239814
   69        7.374594
   70        7.376137
   71        7.835509
   72        7.838525
   73        7.840155
   74        7.842935
   75        8.585569
   76        8.587124
   77       10.139494
   78       12.646291
   79       12.649413
   80       12.911124
   81       12.912496
   82       12.914013
   83       12.915828
   84       13.098407
 
 -0.1111111E+00  0.1111111E+00  0.0000000E+00  0.6172840E-02
    1      -14.496560
    2      -14.290738
    3      -14.290120
    4      -14.064422
    5      -10.024579
    6       -9.874036
    7       -9.873417
    8       -9.714280
    9       -9.472868
   10       -9.470481
   11       -9.342157
   12       -9.339972
   13       -9.339937
   14       -9.337334
   15       -9.208613
   16       -9.206237
   17       -7.834369
   18       -7.832362
   19       -7.733883
   20       -7.730531
   21       -7.730487
   22       -7.729904
   23       -7.612686
   24       -7.610769
   25       -7.329061
   26       -7.210982
   27       -7.209014
   28       -7.081887
   29       -3.516086
   30       -2.402957
   31       -2.400887
   32       -1.517983
   33       -1.515633
   34       -1.470236
   35       -1.468861
   36       -1.468848
   37       -1.465194
   38       -1.420181
   39       -1.417457
   40       -1.214790
   41       -1.172311
   42       -1.169527
   43       -1.126600
   44       -1.020402
   45        1.586507
   46        1.811434
   47        1.830577
   48        1.835451
   49        1.855289
   50        1.953613
   51        1.971741
   52        1.977224
   53        1.994555
   54        2.080442
   55        2.082435
   56        2.331392
   57        2.333676
   58        2.706363
   59        2.707440
   60        2.707589
   61        2.711208
   62        3.035568
   63        3.168418
   64        3.170236
   65        6.709152
   66        6.711458
   67        6.883788
   68        6.889990
   69        6.890507
   70        6.892466
   71        6.939936
   72        7.296202
   73        7.301022
   74        7.581271
   75        7.584488
   76        8.065822
   77        9.966197
   78       12.273702
   79       12.540584
   80       12.542605
   81       12.561007
   82       12.564844
   83       12.823237
   84       12.834812
 
 -0.5082198E-20  0.2222222E+00  0.0000000E+00  0.6172840E-02
    1      -14.275286
    2      -14.071931
    3      -14.071318
    4      -13.848630
    5      -11.038643
    6      -10.871857
    7      -10.871331
    8      -10.692383
    9       -9.826212
   10       -9.823280
   11       -9.679412
   12       -9.676667
   13       -9.676116
   14       -9.673643
   15       -9.521185
   16       -9.518251
   17       -7.160150
   18       -7.157064
   19       -7.046746
   20       -7.044080
   21       -7.042367
   22       -7.040016
   23       -6.920627
   24       -6.917392
   25       -6.002991
   26       -5.890465
   27       -5.890107
   28       -5.771577
   29       -3.247889
   30       -2.143641
   31       -2.141585
   32       -2.127447
   33       -2.125749
   34       -2.069857
   35       -2.069263
   36       -2.066397
   37       -2.066104
   38       -2.007955
   39       -2.006265
   40       -1.001433
   41       -0.958659
   42       -0.958475
   43       -0.915215
   44       -0.773938
   45        0.544779
   46        0.981046
   47        1.014986
   48        1.015276
   49        1.049343
   50        1.445573
   51        1.447026
   52        1.532045
   53        1.558415
   54        1.558623
   55        1.585280
   56        1.841553
   57        1.844572
   58        2.472061
   59        2.582850
   60        2.585969
   61        2.586194
   62        2.589195
   63        3.289256
   64        3.291900
   65        6.895021
   66        6.897298
   67        7.218276
   68        7.222265
   69        7.223947
   70        7.227600
   71        7.877552
   72        7.881671
   73        7.997994
   74        8.517395
   75        8.520457
   76        9.274163
   77       10.226046
   78       12.391498
   79       12.650159
   80       12.650849
   81       12.899690
   82       13.136756
   83       13.140792
   84       13.466833
 
  0.1111111E+00  0.2222222E+00  0.0000000E+00  0.6172840E-02
    1      -14.054664
    2      -13.853687
    3      -13.853076
    4      -13.633384
    5      -11.458663
    6      -11.286925
    7      -11.286395
    8      -11.101539
    9      -10.831520
   10      -10.667428
   11      -10.666930
   12      -10.490797
   13       -9.086187
   14       -8.959758
   15       -8.958726
   16       -8.831824
   17       -7.484948
   18       -7.390645
   19       -7.388206
   20       -7.278359
   21       -5.861600
   22       -5.754660
   23       -5.752643
   24       -5.640167
   25       -5.261281
   26       -5.156669
   27       -5.156346
   28       -5.046500
   29       -3.112670
   30       -3.042978
   31       -3.040614
   32       -2.980837
   33       -2.967575
   34       -1.900828
   35       -1.885777
   36       -1.883738
   37       -1.845188
   38       -1.842966
   39       -1.785330
   40       -1.085033
   41       -1.038916
   42       -1.038524
   43       -0.991598
   44       -0.529476
   45        0.081896
   46        0.321567
   47        0.355454
   48        0.358587
   49        0.390967