 running on    6 total cores
 distrk:  each k-point on    6 cores,    1 groups
 distr:  one band on    1 cores,    6 groups
 using from now: INCAR     
 vasp.5.3.5 31Mar14 (build Nov 02 2014 15:17:37) complex                        
  
 POSCAR found :  1 types and      32 ions
 scaLAPACK will be used

 ----------------------------------------------------------------------------- 
|                                                                             |
|           W    W    AA    RRRRR   N    N  II  N    N   GGGG   !!!           |
|           W    W   A  A   R    R  NN   N  II  NN   N  G    G  !!!           |
|           W    W  A    A  R    R  N N  N  II  N N  N  G       !!!           |
|           W WW W  AAAAAA  RRRRR   N  N N  II  N  N N  G  GGG   !            |
|           WW  WW  A    A  R   R   N   NN  II  N   NN  G    G                |
|           W    W  A    A  R    R  N    N  II  N    N   GGGG   !!!           |
|                                                                             |
|      For optimal performance we recommend to set                            |
|        NCORE= 4 - approx SQRT( number of cores)                             |
|      NCORE specifies how many cores store one orbital (NPAR=cpu/NCORE).     |
|      This setting can  greatly improve the performance of VASP for DFT.     |
|      The default, NPAR=number of cores might be grossly inefficient         |
|      on modern multi-core architectures or massively parallel machines.     |
|      Do your own testing !!!!                                               |
|      Unfortunately you need to use the default for GW and RPA calculations. |
|      (for HF NCORE is supported but not extensively tested yet)             |
|                                                                             |
 ----------------------------------------------------------------------------- 


 ----------------------------------------------------------------------------- 
|                                                                             |
|  ADVICE TO THIS USER RUNNING 'VASP/VAMP'   (HEAR YOUR MASTER'S VOICE ...):  |
|                                                                             |
|      You have a (more or less) 'large supercell' and for larger cells       |
|      it might be more efficient to use real space projection operators      |
|      So try LREAL= Auto  in the INCAR   file.                               |
|      Mind: If you want to do a very accurate calculations keep the          |
|      reciprocal projection scheme          (i.e. LREAL=.FALSE.)             |
|                                                                             |
 ----------------------------------------------------------------------------- 

 LDA part: xc-table for Pade appr. of Perdew
 POSCAR, INCAR and KPOINTS ok, starting setup
 WARNING: small aliasing (wrap around) errors must be expected
 FFT: planning ...
 WAVECAR not read
 WARNING: random wavefunctions but no delay for mixing, default for NELMDL
 entering main loop
       N       E                     dE             d eps       ncg     rms          rms(c)
DAV:   1     0.564406125176E+03    0.56441E+03   -0.72408E+04 27384   0.161E+03
DAV:   2    -0.265663514966E+03   -0.83007E+03   -0.79956E+03 34116   0.310E+02
DAV:   3    -0.311748759896E+03   -0.46085E+02   -0.45630E+02 33120   0.730E+01
DAV:   4    -0.312595943718E+03   -0.84718E+00   -0.84548E+00 34224   0.107E+01
DAV:   5    -0.312620435017E+03   -0.24491E-01   -0.24480E-01 34380   0.173E+00    0.221E+01
DAV:   6    -0.298480384082E+03    0.14140E+02   -0.14596E+01 31296   0.107E+01    0.116E+01
DAV:   7    -0.294060784784E+03    0.44196E+01   -0.14963E+01 31188   0.108E+01    0.189E+00
DAV:   8    -0.294111528723E+03   -0.50744E-01   -0.35087E-01 31152   0.172E+00    0.257E-01
DAV:   9    -0.294113174116E+03   -0.16454E-02   -0.11972E-02 32964   0.383E-01    0.110E-01
DAV:  10    -0.294113995384E+03   -0.82127E-03   -0.50212E-03 37668   0.211E-01    0.693E-02
DAV:  11    -0.294114033986E+03   -0.38602E-04   -0.78137E-04 31428   0.107E-01    0.459E-02
DAV:  12    -0.294114088605E+03   -0.54619E-04   -0.87892E-04 36552   0.782E-02    0.280E-02
DAV:  13    -0.294114090536E+03   -0.19311E-05   -0.39029E-04 32436   0.474E-02    0.182E-02
DAV:  14    -0.294114084628E+03    0.59084E-05   -0.44266E-05 31236   0.172E-02    0.440E-03
DAV:  15    -0.294114085973E+03   -0.13452E-05   -0.16946E-05 28212   0.841E-03    0.130E-02
DAV:  16    -0.294114084930E+03    0.10425E-05   -0.29988E-05 19596   0.651E-03    0.863E-03
DAV:  17    -0.294114087857E+03   -0.29271E-05   -0.13300E-05 21408   0.673E-03    0.161E-02
DAV:  18    -0.294114084121E+03    0.37365E-05   -0.19419E-05 19524   0.679E-03    0.981E-04
DAV:  19    -0.294114084230E+03   -0.10899E-06   -0.62761E-07 19164   0.246E-03
   1 F= -.29949949E+03 E0= -.29949949E+03  d E =0.000000E+00
