 running on    6 total cores
 distrk:  each k-point on    6 cores,    1 groups
 distr:  one band on    1 cores,    6 groups
 using from now: INCAR     
 vasp.5.3.5 31Mar14 (build Nov 02 2014 15:17:37) complex                        
  
 POSCAR found :  1 types and      32 ions
 scaLAPACK will be used

 ----------------------------------------------------------------------------- 
|                                                                             |
|           W    W    AA    RRRRR   N    N  II  N    N   GGGG   !!!           |
|           W    W   A  A   R    R  NN   N  II  NN   N  G    G  !!!           |
|           W    W  A    A  R    R  N N  N  II  N N  N  G       !!!           |
|           W WW W  AAAAAA  RRRRR   N  N N  II  N  N N  G  GGG   !            |
|           WW  WW  A    A  R   R   N   NN  II  N   NN  G    G                |
|           W    W  A    A  R    R  N    N  II  N    N   GGGG   !!!           |
|                                                                             |
|      For optimal performance we recommend to set                            |
|        NCORE= 4 - approx SQRT( number of cores)                             |
|      NCORE specifies how many cores store one orbital (NPAR=cpu/NCORE).     |
|      This setting can  greatly improve the performance of VASP for DFT.     |
|      The default, NPAR=number of cores might be grossly inefficient         |
|      on modern multi-core architectures or massively parallel machines.     |
|      Do your own testing !!!!                                               |
|      Unfortunately you need to use the default for GW and RPA calculations. |
|      (for HF NCORE is supported but not extensively tested yet)             |
|                                                                             |
 ----------------------------------------------------------------------------- 


 ----------------------------------------------------------------------------- 
|                                                                             |
|  ADVICE TO THIS USER RUNNING 'VASP/VAMP'   (HEAR YOUR MASTER'S VOICE ...):  |
|                                                                             |
|      You have a (more or less) 'large supercell' and for larger cells       |
|      it might be more efficient to use real space projection operators      |
|      So try LREAL= Auto  in the INCAR   file.                               |
|      Mind: If you want to do a very accurate calculations keep the          |
|      reciprocal projection scheme          (i.e. LREAL=.FALSE.)             |
|                                                                             |
 ----------------------------------------------------------------------------- 

 LDA part: xc-table for Pade appr. of Perdew
 POSCAR, INCAR and KPOINTS ok, starting setup
 WARNING: small aliasing (wrap around) errors must be expected
 FFT: planning ...
 WAVECAR not read
 WARNING: random wavefunctions but no delay for mixing, default for NELMDL
 entering main loop
       N       E                     dE             d eps       ncg     rms          rms(c)
DAV:   1     0.568834514977E+03    0.56883E+03   -0.72299E+04 27384   0.161E+03
DAV:   2    -0.265341476553E+03   -0.83418E+03   -0.80393E+03 34068   0.310E+02
DAV:   3    -0.311918964130E+03   -0.46577E+02   -0.46123E+02 33276   0.733E+01
DAV:   4    -0.312773266300E+03   -0.85430E+00   -0.85266E+00 34320   0.107E+01
DAV:   5    -0.312797588805E+03   -0.24323E-01   -0.24312E-01 34380   0.172E+00    0.220E+01
DAV:   6    -0.298648371388E+03    0.14149E+02   -0.14613E+01 31296   0.106E+01    0.115E+01
DAV:   7    -0.294215210672E+03    0.44332E+01   -0.15066E+01 31116   0.108E+01    0.191E+00
DAV:   8    -0.294268320947E+03   -0.53110E-01   -0.39913E-01 31296   0.186E+00    0.424E-01
DAV:   9    -0.294269498239E+03   -0.11773E-02   -0.25872E-02 32412   0.568E-01    0.173E-01
DAV:  10    -0.294269596185E+03   -0.97945E-04   -0.96678E-03 35304   0.318E-01    0.107E-01
DAV:  11    -0.294270036163E+03   -0.43998E-03   -0.60994E-03 31392   0.198E-01    0.841E-02
DAV:  12    -0.294270137775E+03   -0.10161E-03   -0.26284E-03 31200   0.139E-01    0.574E-02
DAV:  13    -0.294270124288E+03    0.13487E-04   -0.45308E-04 31416   0.673E-02    0.257E-02
DAV:  14    -0.294270128294E+03   -0.40059E-05   -0.15925E-04 32472   0.231E-02    0.283E-02
DAV:  15    -0.294270131734E+03   -0.34403E-05   -0.19857E-04 29148   0.153E-02    0.265E-02
DAV:  16    -0.294270134308E+03   -0.25735E-05   -0.17188E-05 26796   0.626E-03    0.349E-02
DAV:  17    -0.294270167102E+03   -0.32794E-04   -0.89571E-04 30504   0.382E-02    0.451E-02
DAV:  18    -0.294270128925E+03    0.38177E-04   -0.67921E-05 25596   0.227E-02    0.242E-02
DAV:  19    -0.294270129899E+03   -0.97380E-06   -0.32721E-06 21720   0.448E-03
   1 F= -.29956854E+03 E0= -.29956854E+03  d E =0.000000E+00
