  32  32   0   0
  0.8905205E+01  0.4932875E-09  0.4932875E-09  0.1352877E-08  0.5000000E-15
  1.000000000000000E-004
  CAR 
 graphite                                
     15.48218067    -17.01792675  301      4.60033115      1.00000000
    -17.018  0.0000E+00  0.0000E+00
    -16.910  0.0000E+00  0.0000E+00
    -16.801  0.0000E+00  0.0000E+00
    -16.693  0.0000E+00  0.0000E+00
    -16.585  0.0000E+00  0.0000E+00
    -16.476  0.0000E+00  0.0000E+00
    -16.368  0.0000E+00  0.0000E+00
    -16.260  0.0000E+00  0.0000E+00
    -16.151  0.0000E+00  0.0000E+00
    -16.043  0.0000E+00  0.0000E+00
    -15.935  0.0000E+00  0.0000E+00
    -15.826  0.0000E+00  0.0000E+00
    -15.718  0.0000E+00  0.0000E+00
    -15.610  0.0000E+00  0.0000E+00
    -15.501  0.0000E+00  0.0000E+00
    -15.393  0.0000E+00  0.0000E+00
    -15.285  0.0000E+00  0.0000E+00
    -15.176  0.0000E+00  0.0000E+00
    -15.068  0.0000E+00  0.0000E+00
    -14.960  0.5559E+00  0.1253E-01
    -14.851  0.2840E+01  0.1871E+00
    -14.743  0.3560E+01  0.5096E+00
    -14.635  0.5084E+01  0.9903E+00
    -14.526  0.4855E+01  0.1527E+01
    -14.418  0.5044E+01  0.2066E+01
    -14.310  0.4994E+01  0.2610E+01
    -14.201  0.4863E+01  0.3146E+01
    -14.093  0.4853E+01  0.3669E+01
    -13.985  0.5101E+01  0.4208E+01
    -13.876  0.5351E+01  0.4775E+01
    -13.768  0.7278E+01  0.5486E+01
    -13.660  0.7538E+01  0.6292E+01
    -13.551  0.5911E+01  0.7110E+01
    -13.443  0.2380E+01  0.7517E+01
    -13.335  0.1856E+01  0.7737E+01
    -13.226  0.2097E+01  0.7946E+01
    -13.118  0.2487E+01  0.8195E+01
    -13.010  0.3022E+01  0.8488E+01
    -12.901  0.1216E+02  0.9149E+01
    -12.793  0.8455E+01  0.1013E+02
    -12.685  0.6838E+01  0.1099E+02
    -12.576  0.4030E+01  0.1149E+02
    -12.468  0.4138E+01  0.1194E+02
    -12.360  0.4256E+01  0.1239E+02
    -12.251  0.4405E+01  0.1286E+02
    -12.143  0.4547E+01  0.1334E+02
    -12.035  0.4675E+01  0.1384E+02
    -11.926  0.4979E+01  0.1436E+02
    -11.818  0.5525E+01  0.1493E+02
    -11.710  0.6422E+01  0.1556E+02
    -11.601  0.6015E+01  0.1624E+02
    -11.493  0.5616E+01  0.1687E+02
    -11.385  0.5485E+01  0.1746E+02
    -11.276  0.5650E+01  0.1807E+02
    -11.168  0.5816E+01  0.1869E+02
    -11.060  0.5981E+01  0.1933E+02
    -10.951  0.5775E+01  0.1997E+02
    -10.843  0.5578E+01  0.2059E+02
    -10.735  0.5442E+01  0.2118E+02
    -10.626  0.4994E+01  0.2176E+02
    -10.518  0.3883E+01  0.2223E+02
    -10.410  0.4577E+01  0.2268E+02
    -10.301  0.4997E+01  0.2320E+02
    -10.193  0.5181E+01  0.2375E+02
    -10.085  0.6447E+01  0.2435E+02
     -9.976  0.9248E+01  0.2517E+02
     -9.868  0.1035E+02  0.2633E+02
     -9.760  0.8033E+01  0.2733E+02
     -9.651  0.5760E+01  0.2807E+02
     -9.543  0.4652E+01  0.2862E+02
     -9.435  0.4178E+01  0.2910E+02
     -9.326  0.3703E+01  0.2953E+02
     -9.218  0.6134E+01  0.3012E+02
     -9.110  0.5205E+01  0.3075E+02
     -9.001  0.1929E+01  0.3102E+02
     -8.893  0.1724E+01  0.3121E+02
     -8.785  0.1519E+01  0.3139E+02
     -8.676  0.1314E+01  0.3154E+02
     -8.568  0.1340E+01  0.3168E+02
     -8.460  0.1831E+01  0.3185E+02
     -8.351  0.2330E+01  0.3208E+02
     -8.243  0.2830E+01  0.3236E+02
     -8.135  0.5656E+01  0.3277E+02
     -8.026  0.1074E+02  0.3365E+02
     -7.918  0.5087E+01  0.3453E+02
     -7.810  0.5190E+01  0.3507E+02
     -7.701  0.6353E+01  0.3569E+02
     -7.593  0.7517E+01  0.3644E+02
     -7.485  0.8681E+01  0.3732E+02
     -7.376  0.9845E+01  0.3832E+02
     -7.268  0.6814E+01  0.3922E+02
     -7.160  0.5568E+01  0.3984E+02
     -7.051  0.5579E+01  0.4045E+02
     -6.943  0.5542E+01  0.4105E+02
     -6.835  0.5389E+01  0.4164E+02
     -6.726  0.5206E+01  0.4222E+02
     -6.618  0.5075E+01  0.4277E+02
     -6.510  0.4957E+01  0.4332E+02
     -6.401  0.4838E+01  0.4385E+02
     -6.293  0.4720E+01  0.4437E+02
     -6.185  0.4601E+01  0.4487E+02
     -6.076  0.4483E+01  0.4536E+02
     -5.968  0.4365E+01  0.4584E+02
     -5.860  0.4720E+01  0.4632E+02
     -5.751  0.5314E+01  0.4687E+02
     -5.643  0.5904E+01  0.4748E+02
     -5.535  0.6494E+01  0.4815E+02
     -5.426  0.7084E+01  0.4888E+02
     -5.318  0.7674E+01  0.4968E+02
     -5.210  0.8263E+01  0.5055E+02
     -5.101  0.8853E+01  0.5147E+02
     -4.993  0.5431E+01  0.5230E+02
     -4.885  0.5285E+01  0.5277E+02
     -4.776  0.7206E+01  0.5348E+02
     -4.668  0.5742E+01  0.5418E+02
     -4.560  0.4278E+01  0.5473E+02
     -4.451  0.2815E+01  0.5511E+02
     -4.343  0.1351E+01  0.5534E+02
     -4.235  0.1825E+01  0.5548E+02
     -4.126  0.3320E+01  0.5576E+02
     -4.018  0.4814E+01  0.5620E+02
     -3.910  0.6830E+01  0.5680E+02
     -3.801  0.1176E+02  0.5781E+02
     -3.693  0.1148E+02  0.5907E+02
     -3.585  0.1296E+02  0.6046E+02
     -3.476  0.8693E+01  0.6168E+02
     -3.368  0.4491E+01  0.6230E+02
     -3.260  0.5791E+01  0.6286E+02
     -3.151  0.6714E+01  0.6354E+02
     -3.043  0.9998E+01  0.6439E+02
     -2.935  0.1555E+02  0.6577E+02
     -2.826  0.2225E+02  0.6793E+02
     -2.718  0.6765E+01  0.6920E+02
     -2.610  0.7005E+01  0.6994E+02
     -2.501  0.7290E+01  0.7071E+02
     -2.393  0.8110E+01  0.7155E+02
     -2.285  0.1170E+02  0.7251E+02
     -2.176  0.1613E+02  0.7402E+02
     -2.068  0.1263E+02  0.7558E+02
     -1.960  0.1057E+02  0.7680E+02
     -1.851  0.1916E+02  0.7822E+02
     -1.743  0.1361E+02  0.8136E+02
     -1.635  0.2187E+02  0.8328E+02
     -1.526  0.1373E+02  0.8501E+02
     -1.418  0.1519E+02  0.8654E+02
     -1.310  0.1695E+02  0.8837E+02
     -1.201  0.8746E+01  0.8961E+02
     -1.093  0.6344E+01  0.9039E+02
     -0.985  0.7470E+01  0.9114E+02
     -0.876  0.8290E+01  0.9199E+02
     -0.768  0.9388E+01  0.9294E+02
     -0.660  0.1101E+02  0.9405E+02
     -0.551  0.1071E+02  0.9522E+02
     -0.443  0.1108E+02  0.9641E+02
     -0.335  0.1136E+02  0.9817E+02
     -0.226  0.1230E+02  0.9946E+02
     -0.118  0.1137E+02  0.1008E+03
     -0.010  0.1008E+02  0.1019E+03
      0.099  0.1003E+02  0.1030E+03
      0.207  0.9807E+01  0.1041E+03
      0.315  0.9665E+01  0.1051E+03
      0.424  0.9618E+01  0.1062E+03
      0.532  0.9625E+01  0.1072E+03
      0.640  0.9394E+01  0.1083E+03
      0.749  0.9200E+01  0.1093E+03
      0.857  0.9133E+01  0.1103E+03
      0.965  0.9683E+01  0.1113E+03
      1.074  0.9567E+01  0.1123E+03
      1.182  0.9679E+01  0.1133E+03
      1.290  0.1083E+02  0.1144E+03
      1.399  0.1049E+02  0.1156E+03
      1.507  0.8987E+01  0.1167E+03
      1.615  0.6822E+01  0.1175E+03
      1.724  0.6399E+01  0.1182E+03
      1.832  0.5355E+01  0.1189E+03
      1.940  0.3529E+01  0.1193E+03
      2.049  0.2914E+01  0.1197E+03
      2.157  0.3062E+01  0.1200E+03
      2.265  0.4454E+01  0.1204E+03
      2.374  0.6694E+01  0.1210E+03
      2.482  0.9452E+01  0.1218E+03
      2.590  0.9509E+01  0.1228E+03
      2.699  0.7889E+01  0.1238E+03
      2.807  0.6190E+01  0.1245E+03
      2.915  0.4773E+01  0.1251E+03
      3.024  0.3875E+01  0.1256E+03
      3.132  0.3327E+01  0.1260E+03
      3.240  0.2971E+01  0.1263E+03
      3.349  0.2601E+01  0.1266E+03
      3.457  0.2260E+01  0.1269E+03
      3.565  0.1964E+01  0.1271E+03
      3.674  0.1679E+01  0.1273E+03
      3.782  0.1397E+01  0.1275E+03
      3.890  0.1170E+01  0.1276E+03
      3.999  0.9420E+00  0.1277E+03
      4.107  0.7357E+00  0.1278E+03
      4.215  0.5516E+00  0.1279E+03
      4.324  0.3808E+00  0.1279E+03
      4.432  0.2217E+00  0.1280E+03
      4.540  0.7266E-01  0.1280E+03
      4.649  0.3910E-01  0.1280E+03
      4.757  0.1573E+00  0.1280E+03
      4.865  0.2868E+00  0.1280E+03
      4.974  0.4294E+00  0.1281E+03
      5.082  0.5865E+00  0.1281E+03
      5.190  0.7642E+00  0.1282E+03
      5.299  0.9776E+00  0.1283E+03
      5.407  0.1219E+01  0.1284E+03
      5.515  0.1461E+01  0.1286E+03
      5.624  0.1703E+01  0.1287E+03
      5.732  0.2544E+01  0.1289E+03
      5.840  0.3321E+01  0.1293E+03
      5.949  0.3806E+01  0.1297E+03
      6.057  0.4452E+01  0.1301E+03
      6.165  0.7615E+01  0.1307E+03
      6.274  0.1278E+02  0.1318E+03
      6.382  0.9762E+01  0.1330E+03
      6.490  0.7668E+01  0.1340E+03
      6.599  0.6328E+01  0.1347E+03
      6.707  0.5696E+01  0.1354E+03
      6.815  0.5360E+01  0.1360E+03
      6.924  0.5036E+01  0.1365E+03
      7.032  0.4300E+01  0.1370E+03
      7.140  0.3783E+01  0.1375E+03
      7.249  0.3660E+01  0.1379E+03
      7.357  0.3855E+01  0.1383E+03
      7.465  0.4289E+01  0.1387E+03
      7.574  0.4687E+01  0.1392E+03
      7.682  0.4898E+01  0.1397E+03
      7.790  0.4749E+01  0.1403E+03
      7.899  0.4582E+01  0.1408E+03
      8.007  0.4411E+01  0.1412E+03
      8.115  0.4265E+01  0.1417E+03
      8.224  0.4162E+01  0.1422E+03
      8.332  0.4089E+01  0.1426E+03
      8.440  0.4029E+01  0.1431E+03
      8.549  0.3978E+01  0.1435E+03
      8.657  0.3938E+01  0.1439E+03
      8.765  0.3738E+01  0.1443E+03
      8.874  0.3489E+01  0.1447E+03
      8.982  0.3571E+01  0.1451E+03
      9.090  0.3779E+01  0.1455E+03
      9.199  0.3742E+01  0.1459E+03
      9.307  0.3710E+01  0.1463E+03
      9.415  0.3709E+01  0.1467E+03
      9.524  0.3764E+01  0.1471E+03
      9.632  0.3800E+01  0.1475E+03
      9.740  0.3793E+01  0.1480E+03
      9.849  0.3784E+01  0.1484E+03
      9.957  0.3775E+01  0.1488E+03
     10.065  0.3786E+01  0.1492E+03
     10.174  0.3796E+01  0.1496E+03
     10.282  0.5077E+01  0.1500E+03
     10.390  0.6139E+01  0.1507E+03
     10.499  0.5953E+01  0.1513E+03
     10.607  0.5734E+01  0.1519E+03
     10.715  0.5454E+01  0.1525E+03
     10.824  0.4743E+01  0.1531E+03
     10.932  0.6290E+01  0.1537E+03
     11.040  0.3483E+01  0.1542E+03
     11.149  0.2494E+01  0.1545E+03
     11.257  0.2657E+01  0.1548E+03
     11.366  0.3035E+01  0.1551E+03
     11.474  0.3383E+01  0.1555E+03
     11.582  0.3408E+01  0.1558E+03
     11.691  0.2643E+01  0.1562E+03
     11.799  0.3347E+01  0.1565E+03
     11.907  0.6491E+01  0.1570E+03
     12.016  0.7065E+01  0.1578E+03
     12.124  0.8228E+01  0.1586E+03
     12.232  0.1086E+02  0.1596E+03
     12.341  0.1297E+02  0.1609E+03
     12.449  0.1319E+02  0.1623E+03
     12.557  0.1338E+02  0.1638E+03
     12.666  0.1269E+02  0.1652E+03
     12.774  0.1170E+02  0.1665E+03
     12.882  0.7607E+01  0.1676E+03
     12.991  0.2271E+00  0.1680E+03
     13.099  0.1380E+00  0.1680E+03
     13.207  0.7104E-01  0.1680E+03
     13.316  0.2610E-01  0.1680E+03
     13.424  0.3197E-02  0.1680E+03
     13.532  0.0000E+00  0.1680E+03
     13.641  0.0000E+00  0.1680E+03
     13.749  0.0000E+00  0.1680E+03
     13.857  0.0000E+00  0.1680E+03
     13.966  0.0000E+00  0.1680E+03
     14.074  0.0000E+00  0.1680E+03
     14.182  0.0000E+00  0.1680E+03
     14.291  0.0000E+00  0.1680E+03
     14.399  0.0000E+00  0.1680E+03
     14.507  0.0000E+00  0.1680E+03
     14.616  0.0000E+00  0.1680E+03
     14.724  0.0000E+00  0.1680E+03
     14.832  0.0000E+00  0.1680E+03
     14.941  0.0000E+00  0.1680E+03
     15.049  0.0000E+00  0.1680E+03
     15.157  0.0000E+00  0.1680E+03
     15.266  0.0000E+00  0.1680E+03
     15.374  0.0000E+00  0.1680E+03
     15.482  0.0000E+00  0.1680E+03
