   32   32    1    1
  0.8905205E+01  0.4932875E-09  0.4932875E-09  0.1352877E-08  0.5000000E-15
  1.000000000000000E-004
  CAR 
 graphite                                
    128     76     84
