       N       E                     dE             d eps       ncg     rms          rms(c)
DAV:   1     0.702249041900E+03    0.70225E+03   -0.84198E+04 12768   0.201E+03
DAV:   2    -0.254854450615E+03   -0.95710E+03   -0.92171E+03 15840   0.341E+02
DAV:   3    -0.312456869043E+03   -0.57602E+02   -0.56976E+02 15516   0.821E+01
DAV:   4    -0.313585555218E+03   -0.11287E+01   -0.11263E+01 15948   0.123E+01
DAV:   5    -0.313618671353E+03   -0.33116E-01   -0.33104E-01 16380   0.199E+00    0.221E+01
DAV:   6    -0.299245119594E+03    0.14374E+02   -0.14826E+01 14592   0.107E+01    0.116E+01
DAV:   7    -0.294702817953E+03    0.45423E+01   -0.15557E+01 14532   0.109E+01    0.196E+00
DAV:   8    -0.294771684476E+03   -0.68867E-01   -0.73676E-01 15024   0.217E+00    0.813E-01
DAV:   9    -0.294767806523E+03    0.38780E-02   -0.53095E-02 14808   0.803E-01    0.445E-01
DAV:  10    -0.294760476576E+03    0.73299E-02   -0.49306E-02 19896   0.534E-01    0.129E-01
DAV:  11    -0.294761453048E+03   -0.97647E-03   -0.11419E-02 14616   0.252E-01    0.102E-01
DAV:  12    -0.294761476209E+03   -0.23161E-04   -0.12107E-03 15660   0.905E-02    0.928E-02
DAV:  13    -0.294761478241E+03   -0.20322E-05   -0.27537E-03 16176   0.900E-02    0.860E-02
DAV:  14    -0.294762153346E+03   -0.67511E-03   -0.49166E-03 19908   0.153E-01    0.108E-01
DAV:  15    -0.294761989337E+03    0.16401E-03   -0.22799E-04 14856   0.564E-02    0.104E-01
DAV:  16    -0.294761511356E+03    0.47798E-03   -0.16814E-03 22536   0.118E-01    0.444E-02
DAV:  17    -0.294761507090E+03    0.42666E-05   -0.10217E-04 14304   0.280E-02    0.280E-02
DAV:  18    -0.294761505166E+03    0.19241E-05   -0.28314E-05 16380   0.559E-03    0.112E-02
DAV:  19    -0.294761520912E+03   -0.15746E-04   -0.18404E-04 19548   0.946E-03    0.444E-02
DAV:  20    -0.294761505019E+03    0.15893E-04   -0.11470E-04 21828   0.115E-02    0.167E-02
DAV:  21    -0.294761507169E+03   -0.21508E-05   -0.64031E-05 14832   0.596E-03    0.290E-02
DAV:  22    -0.294761504465E+03    0.27041E-05   -0.49438E-05 18744   0.612E-03    0.113E-02
DAV:  23    -0.294761505640E+03   -0.11750E-05   -0.34883E-05 15024   0.411E-03    0.246E-02
DAV:  24    -0.294761504628E+03    0.10124E-05   -0.20160E-06 14904   0.160E-03    0.165E-02
DAV:  25    -0.294761504191E+03    0.43659E-06   -0.13429E-06 15804   0.102E-03    0.880E-03
DAV:  26    -0.294761504029E+03    0.16242E-06   -0.25558E-06 12660   0.135E-03    0.187E-03
DAV:  27    -0.294761504324E+03   -0.29528E-06   -0.42453E-06 11868   0.146E-03    0.121E-02
DAV:  28    -0.294761504014E+03    0.30994E-06   -0.14623E-06 11952   0.786E-04    0.396E-03
DAV:  29    -0.294761503980E+03    0.34272E-07   -0.58377E-07  9120   0.564E-04    0.113E-03
DAV:  30    -0.294761503991E+03   -0.10821E-07   -0.37059E-08  8928   0.317E-04    0.213E-03
DAV:  31    -0.294761503986E+03    0.49031E-08   -0.53825E-08  8940   0.186E-04
   1 F= -.29983418E+03 E0= -.29983418E+03  d E =0.000000E+00
