   32   32    1    1
  0.8730593E+01  0.4932875E-09  0.4932875E-09  0.1326350E-08  0.5000000E-15
  1.000000000000000E-004
  CAR 
 graphite                                
    128     76     84
 
  0.0000000E+00  0.0000000E+00  0.0000000E+00  0.6944444E-02
    1      -14.863991
    2      -14.705967
    3      -14.705458
    4      -14.535565
    5       -9.535251
    6       -9.524924
    7       -9.522602
    8       -9.469197
    9       -9.467479
   10       -9.457303
   11       -9.455828
   12       -9.455776
   13       -9.451901
   14       -9.413824
   15       -9.400979
   16       -9.397702
   17       -8.453303
   18       -8.451550
   19       -8.449866
   20       -8.419360
   21       -8.418552
   22       -8.416489
   23       -8.415956
   24       -8.415887
   25       -8.413358
   26       -8.359693
   27       -8.359152
   28       -8.357174
   29       -3.772228
   30       -2.835280
   31       -2.833585
   32       -1.687801
   33       -1.626977
   34       -1.624636
   35       -1.609003
   36       -1.596636
   37       -1.595666
   38       -1.595655
   39       -1.591657
   40       -1.578971
   41       -1.576951
   42       -1.564888
   43       -1.562092
   44       -1.546773
   45        1.772027
   46        1.779809
   47        1.781260
   48        1.786684
   49        1.792389
   50        1.797410
   51        1.799203
   52        1.806528
   53        1.985319
   54        1.987539
   55        1.989011
   56        2.417105
   57        2.420564
   58        2.427282
   59        2.427735
   60        2.427962
   61        2.432532
   62        2.702986
   63        2.721836
   64        2.724499
   65        6.296226
   66        6.299461
   67        6.306561
   68        6.429716
   69        6.431775
   70        6.434155
   71        6.436294
   72        6.436586
   73        6.439282
   74        6.994008
   75        7.001379
   76        7.003864
   77        9.185306
   78       11.913431
   79       11.917864
   80       11.960365
   81       11.964288
   82       11.995967
   83       12.172016
   84       12.179736
 
  0.1666667E+00  0.0000000E+00  0.0000000E+00  0.1388889E-01
    1      -14.698217
    2      -14.541673
    3      -14.541171
    4      -14.373026
    5      -10.840337
    6      -10.719830
    7      -10.719382
    8      -10.592548
    9       -9.967033
   10       -9.959807
   11       -9.861004
   12       -9.860306
   13       -9.853255
   14       -9.852359
   15       -9.750498
   16       -9.742436
   17       -7.840821
   18       -7.834948
   19       -7.756974
   20       -7.754877
   21       -7.749946
   22       -7.749133
   23       -7.664187
   24       -7.657864
   25       -6.997501
   26       -6.910595
   27       -6.909126
   28       -6.818101
   29       -3.571021
   30       -2.639720
   31       -2.638027
   32       -2.119324
   33       -2.102593
   34       -2.081395
   35       -2.081242
   36       -2.065407
   37       -2.063471
   38       -2.042467
   39       -2.025718
   40       -1.500361
   41       -1.462349
   42       -1.433292
   43       -1.430371
   44       -1.400934
   45        0.887925
   46        1.119489
   47        1.137135
   48        1.141437
   49        1.158676
   50        1.432479
   51        1.446563
   52        1.451340
   53        1.466310
   54        1.580121
   55        1.582674
   56        1.754096
   57        1.758155
   58        2.309701
   59        2.312954
   60        2.318525
   61        2.319856
   62        2.330509
   63        2.808712
   64        2.822927
   65        6.463008
   66        6.466674
   67        6.711313
   68        6.714494
   69        6.717049
   70        6.720025
   71        7.124751
   72        7.273258
   73        7.280004
   74        7.535034
   75        7.538517
   76        8.172541
   77        9.384081
   78       12.054050
   79       12.080226
   80       12.084426
   81       12.256480
   82       12.257960
   83       12.461551
   84       12.694409
 
  0.3333333E+00  0.0000000E+00  0.0000000E+00  0.1388889E-01
    1      -14.202679
    2      -14.050597
    3      -14.050119
    4      -13.887158
    5      -12.252367
    6      -12.117841
    7      -12.117420
    8      -11.974655
    9      -10.390712
   10      -10.387042
   11      -10.275093
   12      -10.274480
   13      -10.271275
   14      -10.270096
   15      -10.152712
   16      -10.148832
   17       -6.666716
   18       -6.657704
   19       -6.588202
   20       -6.586065
   21       -6.578542
   22       -6.577425
   23       -6.504121
   24       -6.495223
   25       -4.879879
   26       -4.807991
   27       -4.806257
   28       -4.731963
   29       -3.278015
   30       -3.263988
   31       -3.228767
   32       -3.228340
   33       -3.215340
   34       -3.213315
   35       -3.177106
   36       -3.162944
   37       -2.971501
   38       -2.058225
   39       -2.056541
   40       -0.988234
   41       -0.960379
   42       -0.957234
   43       -0.944528
   44       -0.929156
   45       -0.663185
   46       -0.536083
   47       -0.501835
   48       -0.498564
   49       -0.464073
   50        0.157236
   51        0.159181
   52        0.632509
   53        0.653310
   54        0.657630
   55        0.678869
   56        1.129143
   57        1.444005
   58        1.447202
   59        2.121178
   60        2.124294
   61        2.127173
   62        2.128464
   63        2.859999
   64        2.867153
   65        6.946191
   66        6.949044
   67        7.288328
   68        7.290499
   69        7.293067
   70        7.296546
   71        7.738266
   72        7.741619
   73        9.261837
   74        9.675775
   75        9.678807
   76        9.982052
   77       10.219869
   78       12.190976
   79       12.415240
   80       12.489556
   81       12.491483
   82       12.540565
   83       12.543295
   84       12.822832
 
  0.5000000E+00  0.5551115E-16  0.0000000E+00  0.6944444E-02
    1      -13.384767
    2      -13.381932
    3      -13.241092
    4      -13.238475
    5      -13.238447
    6      -13.235357
    7      -13.085082
    8      -13.082175
    9      -10.539583
   10      -10.537865
   11      -10.422052
   12      -10.420636
   13      -10.420592
   14      -10.418499
   15      -10.296941
   16      -10.295146
   17       -5.750715
   18       -5.748933
   19       -5.707217
   20       -5.707204
   21       -5.706467
   22       -5.702370
   23       -5.665605
   24       -5.663120
   25       -4.159871
   26       -4.158134
   27       -4.133722
   28       -4.131090
   29       -4.130027
   30       -4.130014
   31       -4.096456
   32       -4.095319
   33       -2.657520
   34       -2.654109
   35       -2.605555
   36       -2.600181
   37       -2.600159
   38       -2.599504
   39       -2.546696
   40       -2.543955
   41       -1.990279
   42       -1.987985
   43       -1.110866
   44       -1.108586
   45       -1.108491
   46       -1.104994
   47       -0.254411
   48       -0.250685
   49       -0.228098
   50       -0.226854
   51       -0.226841
   52       -0.218945
   53       -0.200453
   54       -0.193474
   55       -0.046534
   56       -0.043840
   57        1.322821
   58        1.324807
   59        2.037067
   60        2.040678
   61        2.041151
   62        2.042549
   63        2.853602
   64        2.856101
   65        7.269970
   66        7.272378
   67        7.594352
   68        7.595446
   69        7.595988
   70        7.600910
   71        7.921998
   72        7.924863
   73       10.970309
   74       10.971331
   75       11.699584
   76       11.703206
   77       11.955691
   78       11.960877
   79       11.962309
   80       11.965347
   81       12.380442
   82       12.383857
   83       12.710730
   84       12.716460
 
  0.0000000E+00  0.1666667E+00  0.0000000E+00  0.1388889E-01
    1      -14.698213
    2      -14.541671
    3      -14.541165
    4      -14.373022
    5      -10.840350
    6      -10.719838
    7      -10.719417
    8      -10.592580
    9       -9.967139
   10       -9.959556
   11       -9.861222
   12       -9.860321
   13       -9.853247
   14       -9.851712
   15       -9.750534
   16       -9.742127
   17       -7.841174
   18       -7.835847
   19       -7.756991
   20       -7.756259
   21       -7.750087
   22       -7.749814
   23       -7.664481
   24       -7.658558
   25       -6.996566
   26       -6.909172
   27       -6.908732
   28       -6.817212
   29       -3.571031
   30       -2.639730
   31       -2.638041
   32       -2.118136
   33       -2.102516
   34       -2.081360
   35       -2.078775
   36       -2.065448
   37       -2.063470
   38       -2.041171
   39       -2.025741
   40       -1.500377
   41       -1.463484
   42       -1.433302
   43       -1.432904
   44       -1.402386
   45        0.887345
   46        1.122819
   47        1.141437
   48        1.141748
   49        1.160513
   50        1.430730
   51        1.446552
   52        1.446783
   53        1.462541
   54        1.579771
   55        1.581502
   56        1.754183
   57        1.759054
   58        2.310017
   59        2.312902
   60        2.318718
   61        2.321703
   62        2.329610
   63        2.808838
   64        2.824273
   65        6.461083
   66        6.466399
   67        6.710855
   68        6.712738
   69        6.716707
   70        6.718374
   71        7.126592
   72        7.272752
   73        7.278416
   74        7.537363
   75        7.539278
   76        8.173973
   77        9.384070
   78       12.053409
   79       12.080142
   80       12.084337
   81       12.256277
   82       12.256837
   83       12.460863
   84       12.708459
 
  0.1666667E+00  0.1666667E+00  0.0000000E+00  0.1388889E-01
    1      -14.367323
    2      -14.213756
    3      -14.213269
    4      -14.048591
    5      -11.463179
    6      -11.460207
    7      -11.337206
    8      -11.334512
    9      -11.334482
   10      -11.331196
   11      -11.201226
   12      -11.198173
   13       -9.109479
   14       -9.045864
   15       -9.044642
   16       -8.993025
   17       -8.046948
   18       -8.018951
   19       -8.015324
   20       -7.966292
   21       -5.887036
   22       -5.883497
   23       -5.809852
   24       -5.805952
   25       -5.805923
   26       -5.802909
   27       -5.725821
   28       -5.722365
   29       -3.450691
   30       -3.399596
   31       -3.397738
   32       -3.344948
   33       -3.170298
   34       -2.250817
   35       -2.249129
   36       -1.790857
   37       -1.788171
   38       -1.755091
   39       -1.753589
   40       -1.753578
   41       -1.749319
   42       -1.717082
   43       -1.713890
   44       -1.128276
   45        0.085278
   46        0.102651
   47        0.106962
   48        0.122584
   49        0.239697
   50        0.241593
   51        0.756875
   52        0.767724
   53        0.772433
   54        0.785957
   55        1.005045
   56        1.007332
   57        1.007504
   58        1.010873
   59        1.889990
   60        1.892554
   61        2.583760
   62        3.014781
   63        3.017733
   64        3.286281
   65        6.217774
   66        6.221725
   67        6.235926
   68        6.534100
   69        8.067630
   70        8.070374
   71        8.487011
   72        8.490826
   73        8.491184
   74        8.493202
   75        9.036174
   76        9.038758
   77        9.784355
   78       12.418955
   79       12.422647
   80       12.853471
   81       12.857421
   82       13.067766
   83       13.070528
   84       13.071974
 
  0.3333333E+00  0.1666667E+00  0.0000000E+00  0.1388889E-01
    1      -13.709645
    2      -13.561980
    3      -13.561529
    4      -13.403685
    5      -12.735766
    6      -12.596865
    7      -12.596415
    8      -12.448668
    9      -11.778999
   10      -11.648934
   11      -11.648400
   12      -11.510656
   13       -9.097372
   14       -8.999867
   15       -8.999509
   16       -8.899203
   17       -7.196428
   18       -7.132038
   19       -7.129076
   20       -7.061767
   21       -4.884338
   22       -4.835094
   23       -4.833099
   24       -4.778455
   25       -4.722830
   26       -4.666306
   27       -4.664517
   28       -4.607490
   29       -3.741738
   30       -3.682212
   31       -3.680516
   32       -3.619498
   33       -2.690831
   34       -2.652878
   35       -2.651494
   36       -2.610713
   37       -2.378280
   38       -1.647472
   39       -1.613273
   40       -1.609620
   41       -1.571092
   42       -1.482125
   43       -1.480075
   44       -1.220969
   45       -1.150161
   46       -1.118779
   47       -1.115957
   48       -1.083749
   49       -0.398820
   50       -0.371487
   51       -0.369669
   52       -0.251302
   53       -0.229142
   54       -0.224444
   55       -0.200864
   56       -0.098453
   57        0.646865
   58        0.699715
   59        0.701347
   60        1.640894
   61        2.868556
   62        3.422853
   63        3.425458
   64        3.932126
   65        5.845721
   66        6.076113
   67        6.079991
   68        6.428838
   69        8.880260
   70        9.205714
   71        9.208050
   72        9.553376
   73       10.365133
   74       10.584142
   75       10.698588
   76       10.700920
   77       11.108065
   78       11.766109
   79       12.635626
   80       12.777266
   81       12.786399
   82       12.961114
   83       13.112516
   84       13.124303
 
  0.5000000E+00  0.1666667E+00  0.0000000E+00  0.1388889E-01
    1      -13.710842
    2      -13.563181
    3      -13.562713
    4      -13.404873
    5      -12.734082
    6      -12.595175
    7      -12.594742
    8      -12.446990
    9      -11.780217
   10      -11.650163
   11      -11.649620
   12      -11.511885
   13       -9.094564
   14       -8.996733
   15       -8.996408
   16       -8.895684
   17       -7.191944
   18       -7.126529
   19       -7.125333
   20       -7.057140
   21       -4.892402
   22       -4.842785
   23       -4.842270
   24       -4.787183
   25       -4.732197
   26       -4.675988
   27       -4.672788
   28       -4.616000
   29       -3.745422
   30       -3.686301
   31       -3.683884
   32       -3.623254
   33       -2.679851
   34       -2.642325
   35       -2.639319
   36       -2.599060
   37       -2.379569
   38       -1.645392
   39       -1.610441
   40       -1.608726
   41       -1.569253
   42       -1.483352
   43       -1.481326
   44       -1.219242
   45       -1.146632
   46       -1.115661
   47       -1.111985
   48       -1.080144
   49       -0.400087
   50       -0.369829
   51       -0.367942
   52       -0.253252
   53       -0.230344
   54       -0.227778
   55       -0.203638
   56       -0.099700
   57        0.648563
   58        0.698232
   59        0.699921
   60        1.639085
   61        2.869336
   62        3.426745
   63        3.428567
   64        3.941579
   65        5.841546
   66        6.076633
   67        6.078988
   68        6.428232
   69        8.876429
   70        9.202346
   71        9.205297
   72        9.552466
   73       10.365821
   74       10.582401
   75       10.697241
   76       10.699960
   77       11.105225
   78       11.768495
   79       12.632677
   80       12.778376
   81       12.787356
   82       12.990597
   83       13.112381
   84       13.120596
 
 -0.3333333E+00  0.1666667E+00  0.0000000E+00  0.1388889E-01
    1      -14.368038
    2      -14.214474
    3      -14.213975
    4      -14.049300
    5      -11.465305
    6      -11.459512
    7      -11.338295
    8      -11.337775
    9      -11.332422
   10      -11.332014
   11      -11.203473
   12      -11.197633
   13       -9.099140
   14       -9.033774
   15       -9.033426
   16       -8.979958
   17       -8.047889
   18       -8.017477
   19       -8.017139
   20       -7.965720
   21       -5.894811
   22       -5.889290
   23       -5.816853
   24       -5.814508
   25       -5.811127
   26       -5.809442
   27       -5.733564
   28       -5.728358
   29       -3.464097
   30       -3.412324
   31       -3.411939
   32       -3.358445
   33       -3.171090
   34       -2.251600
   35       -2.249925
   36       -1.786244
   37       -1.773428
   38       -1.751213
   39       -1.748152
   40       -1.738089
   41       -1.735656
   42       -1.712362
   43       -1.699622
   44       -1.129069
   45        0.080473
   46        0.099290
   47        0.099506
   48        0.117110
   49        0.236873
   50        0.242866
   51        0.762785
   52        0.775267
   53        0.775477
   54        0.789572
   55        1.002204
   56        1.003990
   57        1.008853
   58        1.011067
   59        1.885357
   60        1.893302
   61        2.585160
   62        3.023461
   63        3.025275
   64        3.304600
   65        6.219439
   66        6.221422
   67        6.227427
   68        6.537242
   69        8.064392
   70        8.067744
   71        8.483089
   72        8.486481
   73        8.486734
   74        8.489874
   75        9.033595
   76        9.033768
   77        9.783267
   78       12.417745
   79       12.421422
   80       12.853623
   81       12.883397
   82       13.068355
   83       13.076536
   84       13.102379
 
 -0.1666667E+00  0.1666667E+00  0.0000000E+00  0.1388889E-01
    1      -14.698451
    2      -14.541910
    3      -14.541400
    4      -14.373257
    5      -10.846635
    6      -10.726213
    7      -10.725791
    8      -10.599052
    9       -9.958480
   10       -9.956503
   11       -9.852501
   12       -9.850918
   13       -9.850873
   14       -9.848296
   15       -9.741307
   16       -9.739096
   17       -7.839309
   18       -7.837424
   19       -7.755335
   20       -7.752779
   21       -7.752748
   22       -7.751704
   23       -7.662293
   24       -7.660540
   25       -7.003773
   26       -6.917211
   27       -6.915033
   28       -6.824310
   29       -3.571298
   30       -2.639996
   31       -2.638309
   32       -2.118869
   33       -2.116727
   34       -2.081279
   35       -2.080523
   36       -2.080509
   37       -2.076587
   38       -2.042197
   39       -2.039587
   40       -1.500644
   41       -1.446460
   42       -1.417133
   43       -1.414869
   44       -1.385230
   45        0.882065
   46        1.111764
   47        1.128790
   48        1.133682
   49        1.151527
   50        1.439885
   51        1.454902
   52        1.459312
   53        1.473409
   54        1.572880
   55        1.574908
   56        1.759113
   57        1.760900
   58        2.317554
   59        2.319847
   60        2.320089
   61        2.320599
   62        2.324655
   63        2.822641
   64        2.825296
   65        6.460895
   66        6.464069
   67        6.711216
   68        6.716289
   69        6.716573
   70        6.717946
   71        7.124365
   72        7.275166
   73        7.277769
   74        7.530938
   75        7.534734
   76        8.168420
   77        9.383694
   78       12.079613
   79       12.083822
   80       12.086369
   81       12.288850
   82       12.290006
   83       12.493559
   84       12.692160
 
 -0.2710505E-19  0.3333333E+00  0.0000000E+00  0.1388889E-01
    1      -14.202663
    2      -14.050590
    3      -14.050092
    4      -13.887140
    5      -12.252331
    6      -12.117826
    7      -12.117364
    8      -11.974619
    9      -10.391050
   10      -10.386759
   11      -10.275887
   12      -10.274512
   13      -10.271270
   14      -10.269262
   15      -10.152976
   16      -10.148503
   17       -6.667232
   18       -6.658606
   19       -6.588221
   20       -6.587617
   21       -6.578620
   22       -6.578371
   23       -6.504579
   24       -6.495960
   25       -4.878825
   26       -4.806292
   27       -4.805898
   28       -4.730954
   29       -3.276806
   30       -3.263665
   31       -3.228355
   32       -3.226312
   33       -3.214729
   34       -3.213312
   35       -3.175797
   36       -3.162684
   37       -2.971545
   38       -2.058266
   39       -2.056603
   40       -0.989490
   41       -0.960390
   42       -0.960062
   43       -0.944592
   44       -0.930803
   45       -0.663446
   46       -0.533996
   47       -0.498571
   48       -0.498108
   49       -0.462385
   50        0.157031
   51        0.158718
   52        0.630861
   53        0.653300
   54        0.653625
   55        0.676202
   56        1.128685
   57        1.444016
   58        1.448068
   59        2.121549
   60        2.124196
   61        2.127223
   62        2.130296
   63        2.860268
   64        2.868256
   65        6.944909
   66        6.948258
   67        7.286816
   68        7.288927
   69        7.293068
   70        7.295323
   71        7.736677
   72        7.740842
   73        9.263066
   74        9.677251
   75        9.679379
   76        9.982028
   77       10.220868
   78       12.190535
   79       12.414704
   80       12.489317
   81       12.490139
   82       12.540137
   83       12.542819
   84       12.822258
 
  0.1666667E+00  0.3333333E+00  0.0000000E+00  0.1388889E-01
    1      -13.709631
    2      -13.561973
    3      -13.561505
    4      -13.403668
    5      -12.735731
    6      -12.596851
    7      -12.596355
    8      -12.448629
    9      -11.779045
   10      -11.648948
   11      -11.648479
   12      -11.510702
   13       -9.097307
   14       -8.999760
   15       -8.999471
   16       -8.899124
   17       -7.196787
   18       -7.132043
   19       -7.129948
   20       -7.062297
   21       -4.883878
   22       -4.834321
   23       -4.833095
   24       -4.778126
   25       -4.724209
   26       -4.667355
   27       -4.666301
   28       -4.608952
   29       -3.740356
   30       -3.680524
   31       -3.679465
   32       -3.618131
   33       -2.689165
   34       -2.651492
   35       -2.649578
   36       -2.609051
   37       -2.378316
   38       -1.646248
   39       -1.611408
   40       -1.609615
   41       -1.570308
   42       -1.482143
   43       -1.480101
   44       -1.221182
   45       -1.151697
   46       -1.119233
   47       -1.118777
   48       -1.085525
   49       -0.398780
   50       -0.371721
   51       -0.370052
   52       -0.252077
   53       -0.229145
   54       -0.226641
   55       -0.202543
   56       -0.098153
   57        0.646531
   58        0.700027
   59        0.701783
   60        1.641389
   61        2.869009
   62        3.423654
   63        3.425620
   64        3.932515
   65        5.845528
   66        6.076004
   67        6.078687
   68        6.427742
   69        8.879107
   70        9.204811
   71        9.206611
   72        9.552111
   73       10.366236
   74       10.584148
   75       10.699420
   76       10.702069
   77       11.109123
   78       11.766034
   79       12.635978
   80       12.777111
   81       12.786279
   82       12.956225
   83       13.116085
   84       13.128466
 
  0.3333333E+00  0.3333333E+00  0.0000000E+00  0.1388889E-01
    1      -12.900326
    2      -12.897621
    3      -12.895094
    4      -12.761460
    5      -12.758188
    6      -12.758157
    7      -12.756578
    8      -12.755283
    9      -12.752670
   10      -12.610039
   11      -12.607356
   12      -12.604756
   13       -7.883438
   14       -7.785414
   15       -7.783699
   16       -7.776728
   17       -7.774488
   18       -7.769982
   19       -7.767810
   20       -7.672666
   21       -5.733492
   22       -5.733154
   23       -5.727884
   24       -5.726916
   25       -2.976729
   26       -2.973344
   27       -2.971563
   28       -2.947427
   29       -2.942710
   30       -2.942682
   31       -2.942094
   32       -2.941805
   33       -2.936794
   34       -2.914775
   35       -2.912538
   36       -2.908863
   37       -1.613863
   38       -1.609823
   39       -1.607339
   40       -1.594411
   41       -1.590946
   42       -1.589202
   43       -1.588456
   44       -1.588444
   45       -1.583194
   46       -1.566909
   47       -1.565303
   48       -1.560586
   49       -1.411234
   50       -1.408955
   51       -1.406448
   52       -0.553967
   53       -0.550425
   54       -0.550216
   55       -0.548967
   56       -0.547747
   57       -0.544572
   58        0.480167
   59        0.482596
   60        0.485359
   61        4.101755
   62        4.750755
   63        4.760010
   64        4.769518
   65        4.772718
   66        4.794098
   67        4.795262
   68        5.546055
   69       10.892095
   70       10.895298
   71       10.899896
   72       11.142654
   73       11.147572
   74       11.147842
   75       11.148722
   76       11.149537
   77       11.152312
   78       11.409703
   79       11.414998
   80       11.417488
   81       11.582211
   82       11.583959
   83       11.588407
   84       13.903690
 
  0.5000000E+00  0.3333333E+00  0.0000000E+00  0.1388889E-01
    1      -13.711542
    2      -13.563892
    3      -13.563397
    4      -13.405568
    5      -12.737620
    6      -12.598771
    7      -12.598214
    8      -12.450513
    9      -11.775213
   10      -11.645089
   11      -11.644681
   12      -11.506879
   13       -9.087190
   14       -8.989501
   15       -8.988986
   16       -8.888468
   17       -7.200145
   18       -7.135081
   19       -7.134491
   20       -7.066675
   21       -4.890564
   22       -4.841396
   23       -4.840268
   24       -4.785622
   25       -4.730641
   26       -4.674661
   27       -4.672166
   28       -4.615701
   29       -3.752162
   30       -3.693088
   31       -3.690052
   32       -3.629415
   33       -2.685120
   34       -2.648307
   35       -2.644669
   36       -2.604983
   37       -2.380395
   38       -1.654372
   39       -1.619202
   40       -1.616905
   41       -1.577515
   42       -1.484364
   43       -1.482359
   44       -1.223215
   45       -1.136547
   46       -1.105188
   47       -1.102122
   48       -1.070036
   49       -0.401005
   50       -0.373815
   51       -0.372174
   52       -0.243454
   53       -0.220131
   54       -0.218085
   55       -0.193661
   56       -0.094428
   57        0.644167
   58        0.703582
   59        0.705547
   60        1.644970
   61        2.874768
   62        3.431521
   63        3.433602
   64        3.943939
   65        5.846853
   66        6.072596
   67        6.074706
   68        6.416150
   69        8.881471
   70        9.202327
   71        9.205174
   72        9.545352
   73       10.359384
   74       10.581452
   75       10.693229
   76       10.696648
   77       11.106286
   78       11.763892
   79       12.628670
   80       12.773271
   81       12.782392
   82       12.961321
   83       13.112662
   84       13.123806
 
 -0.3333333E+00  0.3333333E+00  0.0000000E+00  0.1388889E-01
    1      -14.203610
    2      -14.051546
    3      -14.051032
    4      -13.888084
    5      -12.256160
    6      -12.121694
    7      -12.121159
    8      -11.978455
    9      -10.383445
   10      -10.381668
   11      -10.268065
   12      -10.266551
   13      -10.266510
   14      -10.264387
   15      -10.145305
   16      -10.143436
   17       -6.665938
   18       -6.663991
   19       -6.587872
   20       -6.585019
   21       -6.584999
   22       -6.584062
   23       -6.503731
   24       -6.501877
   25       -4.888769
   26       -4.817073
   27       -4.814694
   28       -4.740569
   29       -3.275337
   30       -3.273547
   31       -3.226059
   32       -3.225935
   33       -3.225882
   34       -3.222063
   35       -3.174714
   36       -3.172533
   37       -2.972603
   38       -2.059321
   39       -2.057672
   40       -0.973465
   41       -0.945675
   42       -0.945358
   43       -0.942782
   44       -0.914564
   45       -0.667407
   46       -0.545884
   47       -0.511877
   48       -0.507766
   49       -0.473346
   50        0.152788
   51        0.154463
   52        0.642899
   53        0.664110
   54        0.667855
   55        0.688975
   56        1.123862
   57        1.450306
   58        1.452167
   59        2.129313
   60        2.130516
   61        2.130759
   62        2.134852
   63        2.869129
   64        2.871682
   65        6.946852
   66        6.949670
   67        7.285495
   68        7.290506
   69        7.290796
   70        7.292106
   71        7.731666
   72        7.734424
   73        9.255974
   74        9.670154
   75        9.673067
   76        9.980666
   77       10.216584
   78       12.200625
   79       12.437869
   80       12.518858
   81       12.520452
   82       12.540094
   83       12.542877
   84       12.845924
 
 -0.1666667E+00  0.3333333E+00  0.0000000E+00  0.1388889E-01
    1      -14.368026
    2      -14.214469
    3      -14.213955
    4      -14.049287
    5      -11.465724
    6      -11.459178
    7      -11.339173
    8      -11.338202
    9      -11.332347
   10      -11.330784
   11      -11.203823
   12      -11.197201
   13       -9.098438
   14       -9.033748
   15       -9.031920
   16       -8.979145
   17       -8.049715
   18       -8.020316
   19       -8.017478
   20       -7.967214
   21       -5.895369
   22       -5.888093
   23       -5.816865
   24       -5.816309
   25       -5.809456
   26       -5.807773
   27       -5.734054
   28       -5.726965
   29       -3.463088
   30       -3.412305
   31       -3.409808
   32       -3.357299
   33       -3.171120
   34       -2.251632
   35       -2.249966
   36       -1.787520
   37       -1.773306
   38       -1.751227
   39       -1.750910
   40       -1.737379
   41       -1.735655
   42       -1.713656
   43       -1.699327
   44       -1.129116
   45        0.082201
   46        0.099307
   47        0.103815
   48        0.120335
   49        0.236707