  32  32   0   0
  0.9040271E+01  0.4934311E-09  0.4934311E-09  0.1372051E-08  0.5000000E-15
  1.000000000000000E-004
  CAR 
 graphite                                
     15.27383166    -17.12279236  301      4.47628674      1.00000000
    -17.123  0.0000E+00  0.0000E+00
    -17.015  0.0000E+00  0.0000E+00
    -16.907  0.0000E+00  0.0000E+00
    -16.799  0.0000E+00  0.0000E+00
    -16.691  0.0000E+00  0.0000E+00
    -16.583  0.0000E+00  0.0000E+00
    -16.475  0.0000E+00  0.0000E+00
    -16.367  0.0000E+00  0.0000E+00
    -16.259  0.0000E+00  0.0000E+00
    -16.151  0.0000E+00  0.0000E+00
    -16.043  0.0000E+00  0.0000E+00
    -15.935  0.0000E+00  0.0000E+00
    -15.827  0.0000E+00  0.0000E+00
    -15.719  0.0000E+00  0.0000E+00
    -15.611  0.0000E+00  0.0000E+00
    -15.503  0.0000E+00  0.0000E+00
    -15.395  0.0000E+00  0.0000E+00
    -15.287  0.0000E+00  0.0000E+00
    -15.179  0.0000E+00  0.0000E+00
    -15.071  0.1102E+01  0.2201E-01
    -14.963  0.2620E+01  0.2363E+00
    -14.855  0.4627E+01  0.6154E+00
    -14.747  0.4851E+01  0.1141E+01
    -14.639  0.4979E+01  0.1677E+01
    -14.531  0.4930E+01  0.2209E+01
    -14.423  0.4954E+01  0.2743E+01
    -14.315  0.4911E+01  0.3275E+01
    -14.207  0.4997E+01  0.3810E+01
    -14.099  0.4990E+01  0.4349E+01
    -13.991  0.4988E+01  0.4888E+01
    -13.883  0.5650E+01  0.5457E+01
    -13.775  0.5937E+01  0.6086E+01
    -13.667  0.6710E+01  0.6795E+01
    -13.559  0.4630E+01  0.7386E+01
    -13.451  0.1758E+01  0.7732E+01
    -13.343  0.3469E+01  0.7984E+01
    -13.235  0.4343E+01  0.8439E+01
    -13.127  0.4586E+01  0.8926E+01
    -13.019  0.6096E+01  0.9671E+01
    -12.911  0.6629E+01  0.1039E+02
    -12.803  0.4357E+01  0.1092E+02
    -12.695  0.4520E+01  0.1140E+02
    -12.587  0.4644E+01  0.1189E+02
    -12.479  0.4758E+01  0.1240E+02
    -12.371  0.5184E+01  0.1293E+02
    -12.263  0.5644E+01  0.1351E+02
    -12.155  0.5599E+01  0.1415E+02
    -12.047  0.5547E+01  0.1474E+02
    -11.939  0.5149E+01  0.1531E+02
    -11.831  0.4911E+01  0.1586E+02
    -11.723  0.4919E+01  0.1638E+02
    -11.615  0.5012E+01  0.1692E+02
    -11.507  0.5070E+01  0.1747E+02
    -11.399  0.5166E+01  0.1802E+02
    -11.291  0.5500E+01  0.1859E+02
    -11.183  0.5889E+01  0.1921E+02
    -11.075  0.5773E+01  0.1984E+02
    -10.967  0.5717E+01  0.2046E+02
    -10.859  0.5785E+01  0.2108E+02
    -10.751  0.5358E+01  0.2170E+02
    -10.643  0.4604E+01  0.2222E+02
    -10.535  0.5212E+01  0.2275E+02
    -10.427  0.5347E+01  0.2333E+02
    -10.320  0.5452E+01  0.2391E+02
    -10.212  0.5654E+01  0.2451E+02
    -10.104  0.5899E+01  0.2513E+02
     -9.996  0.7331E+01  0.2583E+02
     -9.888  0.1044E+02  0.2680E+02
     -9.780  0.7018E+01  0.2774E+02
     -9.672  0.5403E+01  0.2838E+02
     -9.564  0.6088E+01  0.2910E+02
     -9.456  0.3631E+01  0.2962E+02
     -9.348  0.3261E+01  0.2999E+02
     -9.240  0.2891E+01  0.3033E+02
     -9.132  0.2520E+01  0.3062E+02
     -9.024  0.2366E+01  0.3087E+02
     -8.916  0.3226E+01  0.3119E+02
     -8.808  0.1989E+01  0.3147E+02
     -8.700  0.1519E+01  0.3163E+02
     -8.592  0.2415E+01  0.3184E+02
     -8.484  0.5931E+01  0.3222E+02
     -8.376  0.4567E+01  0.3299E+02
     -8.268  0.3880E+01  0.3343E+02
     -8.160  0.4210E+01  0.3387E+02
     -8.052  0.6893E+01  0.3447E+02
     -7.944  0.6183E+01  0.3525E+02
     -7.836  0.7252E+01  0.3598E+02
     -7.728  0.8337E+01  0.3682E+02
     -7.620  0.8390E+01  0.3777E+02
     -7.512  0.6328E+01  0.3854E+02
     -7.404  0.6067E+01  0.3921E+02
     -7.296  0.5808E+01  0.3985E+02
     -7.188  0.5570E+01  0.4047E+02
     -7.080  0.5376E+01  0.4106E+02
     -6.972  0.5195E+01  0.4163E+02
     -6.864  0.5002E+01  0.4218E+02
     -6.756  0.4858E+01  0.4271E+02
     -6.648  0.4830E+01  0.4323E+02
     -6.540  0.4800E+01  0.4375E+02
     -6.432  0.4666E+01  0.4427E+02
     -6.324  0.4432E+01  0.4476E+02
     -6.216  0.4379E+01  0.4523E+02
     -6.108  0.4056E+01  0.4565E+02
     -6.000  0.4193E+01  0.4608E+02
     -5.892  0.4824E+01  0.4657E+02
     -5.784  0.5620E+01  0.4713E+02
     -5.676  0.6414E+01  0.4779E+02
     -5.568  0.9881E+01  0.4864E+02
     -5.460  0.8950E+01  0.4972E+02
     -5.352  0.6667E+01  0.5057E+02
     -5.244  0.4384E+01  0.5116E+02
     -5.136  0.2650E+01  0.5152E+02
     -5.028  0.2906E+01  0.5181E+02
     -4.920  0.4098E+01  0.5219E+02
     -4.812  0.5418E+01  0.5270E+02
     -4.704  0.6925E+01  0.5336E+02
     -4.596  0.8154E+01  0.5420E+02
     -4.488  0.7025E+01  0.5502E+02
     -4.380  0.5766E+01  0.5572E+02
     -4.272  0.6497E+01  0.5634E+02
     -4.164  0.7359E+01  0.5714E+02
     -4.056  0.6842E+01  0.5791E+02
     -3.948  0.6325E+01  0.5862E+02
     -3.840  0.6350E+01  0.5929E+02
     -3.732  0.6117E+01  0.5997E+02
     -3.624  0.1223E+02  0.6101E+02
     -3.516  0.8993E+01  0.6216E+02
     -3.408  0.7989E+01  0.6309E+02
     -3.300  0.7067E+01  0.6390E+02
     -3.192  0.6769E+01  0.6464E+02
     -3.084  0.7441E+01  0.6540E+02
     -2.976  0.8486E+01  0.6626E+02
     -2.868  0.1007E+02  0.6724E+02
     -2.760  0.1436E+02  0.6854E+02
     -2.652  0.1295E+02  0.7010E+02
     -2.544  0.1181E+02  0.7138E+02
     -2.436  0.1294E+02  0.7275E+02
     -2.328  0.1388E+02  0.7412E+02
     -2.220  0.1370E+02  0.7568E+02
     -2.112  0.1439E+02  0.7711E+02
     -2.004  0.1331E+02  0.7897E+02
     -1.896  0.1297E+02  0.8023E+02
     -1.788  0.1622E+02  0.8229E+02
     -1.680  0.1849E+02  0.8420E+02
     -1.572  0.1530E+02  0.8609E+02
     -1.464  0.1211E+02  0.8758E+02
     -1.356  0.1031E+02  0.8877E+02
     -1.248  0.9250E+01  0.8982E+02
     -1.140  0.7702E+01  0.9077E+02
     -1.032  0.1055E+02  0.9174E+02
     -0.924  0.1313E+02  0.9307E+02
     -0.816  0.1366E+02  0.9449E+02
     -0.709  0.1044E+02  0.9600E+02
     -0.601  0.9757E+01  0.9704E+02
     -0.493  0.1095E+02  0.9816E+02
     -0.385  0.1039E+02  0.9929E+02
     -0.277  0.1111E+02  0.1004E+03
     -0.169  0.9494E+01  0.1016E+03
     -0.061  0.9249E+01  0.1026E+03
      0.047  0.9616E+01  0.1037E+03
      0.155  0.9670E+01  0.1047E+03
      0.263  0.9314E+01  0.1057E+03
      0.371  0.9194E+01  0.1067E+03
      0.479  0.9475E+01  0.1077E+03
      0.587  0.9439E+01  0.1087E+03
      0.695  0.9299E+01  0.1098E+03
      0.803  0.9313E+01  0.1108E+03
      0.911  0.9072E+01  0.1118E+03
      1.019  0.9446E+01  0.1128E+03
      1.127  0.9572E+01  0.1138E+03
      1.235  0.9924E+01  0.1148E+03
      1.343  0.1028E+02  0.1159E+03
      1.451  0.7684E+01  0.1169E+03
      1.559  0.6657E+01  0.1176E+03
      1.667  0.5971E+01  0.1183E+03
      1.775  0.4964E+01  0.1189E+03
      1.883  0.3883E+01  0.1194E+03
      1.991  0.3852E+01  0.1198E+03
      2.099  0.6164E+01  0.1203E+03
      2.207  0.8665E+01  0.1212E+03
      2.315  0.5915E+01  0.1221E+03
      2.423  0.9319E+01  0.1229E+03
      2.531  0.6703E+01  0.1238E+03
      2.639  0.5230E+01  0.1244E+03
      2.747  0.4430E+01  0.1249E+03
      2.855  0.3766E+01  0.1254E+03
      2.963  0.3289E+01  0.1257E+03
      3.071  0.3133E+01  0.1261E+03
      3.179  0.2901E+01  0.1264E+03
      3.287  0.2467E+01  0.1267E+03
      3.395  0.2102E+01  0.1270E+03
      3.503  0.1864E+01  0.1272E+03
      3.611  0.1628E+01  0.1274E+03
      3.719  0.1388E+01  0.1275E+03
      3.827  0.1152E+01  0.1277E+03
      3.935  0.9374E+00  0.1278E+03
      4.043  0.7146E+00  0.1279E+03
      4.151  0.5149E+00  0.1279E+03
      4.259  0.3300E+00  0.1280E+03
      4.367  0.1572E+00  0.1280E+03
      4.475  0.2587E-03  0.1280E+03
      4.583  0.1113E+00  0.1280E+03
      4.691  0.2433E+00  0.1280E+03
      4.799  0.3893E+00  0.1281E+03
      4.907  0.5527E+00  0.1281E+03
      5.015  0.7410E+00  0.1282E+03
      5.123  0.9775E+00  0.1283E+03
      5.231  0.1334E+01  0.1284E+03
      5.339  0.1711E+01  0.1286E+03
      5.447  0.2057E+01  0.1288E+03
      5.555  0.2435E+01  0.1290E+03
      5.663  0.3047E+01  0.1293E+03
      5.771  0.3271E+01  0.1296E+03
      5.879  0.4206E+01  0.1300E+03
      5.987  0.6536E+01  0.1306E+03
      6.095  0.7954E+01  0.1317E+03
      6.203  0.8446E+01  0.1326E+03
      6.311  0.8062E+01  0.1334E+03
      6.419  0.7734E+01  0.1343E+03
      6.527  0.6422E+01  0.1351E+03
      6.635  0.6158E+01  0.1357E+03
      6.743  0.5655E+01  0.1364E+03
      6.851  0.5060E+01  0.1370E+03
      6.959  0.4522E+01  0.1375E+03
      7.067  0.3748E+01  0.1379E+03
      7.175  0.3584E+01  0.1383E+03
      7.283  0.3826E+01  0.1387E+03
      7.391  0.4357E+01  0.1392E+03
      7.499  0.4660E+01  0.1396E+03
      7.607  0.4690E+01  0.1402E+03
      7.715  0.4528E+01  0.1407E+03
      7.823  0.4378E+01  0.1411E+03
      7.931  0.4220E+01  0.1416E+03
      8.039  0.4063E+01  0.1421E+03
      8.147  0.3886E+01  0.1425E+03
      8.255  0.3735E+01  0.1429E+03
      8.363  0.3609E+01  0.1433E+03
      8.471  0.3526E+01  0.1437E+03
      8.579  0.3452E+01  0.1440E+03
      8.687  0.3506E+01  0.1444E+03
      8.795  0.3734E+01  0.1448E+03
      8.902  0.3837E+01  0.1452E+03
      9.010  0.3995E+01  0.1456E+03
      9.118  0.4130E+01  0.1461E+03
      9.226  0.4224E+01  0.1465E+03
      9.334  0.4210E+01  0.1470E+03
      9.442  0.4032E+01  0.1474E+03
      9.550  0.4004E+01  0.1479E+03
      9.658  0.3975E+01  0.1483E+03
      9.766  0.3993E+01  0.1487E+03
      9.874  0.4020E+01  0.1492E+03
      9.982  0.4106E+01  0.1496E+03
     10.090  0.4241E+01  0.1501E+03
     10.198  0.4365E+01  0.1505E+03
     10.306  0.4377E+01  0.1510E+03
     10.414  0.5157E+01  0.1515E+03
     10.522  0.5570E+01  0.1521E+03
     10.630  0.5171E+01  0.1527E+03
     10.738  0.4625E+01  0.1532E+03
     10.846  0.4459E+01  0.1537E+03
     10.954  0.4430E+01  0.1543E+03
     11.062  0.3608E+01  0.1547E+03
     11.170  0.4042E+01  0.1551E+03
     11.278  0.4050E+01  0.1555E+03
     11.386  0.2970E+01  0.1559E+03
     11.494  0.2738E+01  0.1562E+03
     11.602  0.3570E+01  0.1565E+03
     11.710  0.5163E+01  0.1570E+03
     11.818  0.6675E+01  0.1577E+03
     11.926  0.1008E+02  0.1586E+03
     12.034  0.1254E+02  0.1598E+03
     12.142  0.1358E+02  0.1612E+03
     12.250  0.1385E+02  0.1627E+03
     12.358  0.1099E+02  0.1641E+03
     12.466  0.8510E+01  0.1652E+03
     12.574  0.6632E+01  0.1660E+03
     12.682  0.5596E+01  0.1666E+03
     12.790  0.5121E+01  0.1672E+03
     12.898  0.2846E+01  0.1676E+03
     13.006  0.1667E+01  0.1679E+03
     13.114  0.5553E+00  0.1680E+03
     13.222  0.8466E-02  0.1680E+03
     13.330  0.0000E+00  0.1680E+03
     13.438  0.0000E+00  0.1680E+03
     13.546  0.0000E+00  0.1680E+03
     13.654  0.0000E+00  0.1680E+03
     13.762  0.0000E+00  0.1680E+03
     13.870  0.0000E+00  0.1680E+03
     13.978  0.0000E+00  0.1680E+03
     14.086  0.0000E+00  0.1680E+03
     14.194  0.0000E+00  0.1680E+03
     14.302  0.0000E+00  0.1680E+03
     14.410  0.0000E+00  0.1680E+03
     14.518  0.0000E+00  0.1680E+03
     14.626  0.0000E+00  0.1680E+03
     14.734  0.0000E+00  0.1680E+03
     14.842  0.0000E+00  0.1680E+03
     14.950  0.0000E+00  0.1680E+03
     15.058  0.0000E+00  0.1680E+03
     15.166  0.0000E+00  0.1680E+03
     15.274  0.0000E+00  0.1680E+03
