   32   32    1    1
  0.9040271E+01  0.4934311E-09  0.4934311E-09  0.1372051E-08  0.5000000E-15
  1.000000000000000E-004
  CAR 
 graphite                                
    128    163     84
 
  0.0000000E+00  0.0000000E+00  0.0000000E+00  0.3086420E-02
    1      -15.122792
    2      -15.000360
    3      -15.000010
    4      -14.870303
    5       -9.813803
    6       -9.811640
    7       -9.809585
    8       -9.765142
    9       -9.761745
   10       -9.761337
   11       -9.760923
   12       -9.760917
   13       -9.757305
   14       -9.719587
   15       -9.718209
   16       -9.716108
   17       -8.744644
   18       -8.741422
   19       -8.739851
   20       -8.717774
   21       -8.714294
   22       -8.712997
   23       -8.712808
   24       -8.712807
   25       -8.709001
   26       -8.673731
   27       -8.670810
   28       -8.668334
   29       -3.924229
   30       -3.129480
   31       -3.127958
   32       -2.169895
   33       -1.917649
   34       -1.915022
   35       -1.911087
   36       -1.896678
   37       -1.892980
   38       -1.892976
   39       -1.892455
   40       -1.889837
   41       -1.886775
   42       -1.872222
   43       -1.870212
   44       -1.865614
   45        1.465054
   46        1.475537
   47        1.478508
   48        1.479647
   49        1.484423
   50        1.485424
   51        1.488273
   52        1.498642
   53        1.771529
   54        1.773698
   55        1.775622
   56        2.123054
   57        2.126627
   58        2.126719
   59        2.126853
   60        2.127009
   61        2.130569
   62        2.381053
   63        2.382522
   64        2.383964
   65        5.983004
   66        5.986938
   67        5.988862
   68        6.129815
   69        6.135679
   70        6.137144
   71        6.137772
   72        6.138074
   73        6.143785
   74        6.600473
   75        6.605149
   76        6.608098
   77        8.610168
   78       11.075948
   79       11.079130
   80       11.695896
   81       11.699560
   82       11.703983
   83       11.862261
   84       11.865656
 
  0.1111111E+00  0.6938894E-17  0.0000000E+00  0.6172840E-02
    1      -15.049226
    2      -14.927370
    3      -14.927021
    4      -14.797938
    5      -10.600170
    6      -10.513794
    7      -10.513416
    8      -10.424202
    9      -10.057473
   10      -10.055223
   11       -9.983815
   12       -9.982257
   13       -9.981513
   14       -9.979348
   15       -9.907974
   16       -9.905693
   17       -8.435131
   18       -8.431973
   19       -8.376636
   20       -8.373810
   21       -8.372269
   22       -8.371814
   23       -8.309790
   24       -8.306805
   25       -7.918572
   26       -7.851931
   27       -7.850003
   28       -7.780315
   29       -3.835084
   30       -3.042484
   31       -3.040965
   32       -2.141890
   33       -2.137400
   34       -2.117321
   35       -2.116630
   36       -2.113557
   37       -2.110569
   38       -2.091567
   39       -2.086582
   40       -2.085831
   41       -1.844438
   42       -1.823334
   43       -1.820859
   44       -1.799550
   45        1.175894
   46        1.185159
   47        1.186360
   48        1.192395
   49        1.202695
   50        1.310548
   51        1.320566
   52        1.324669
   53        1.332537
   54        1.661341
   55        1.663567
   56        1.699098
   57        1.701003
   58        2.074066
   59        2.074991
   60        2.075115
   61        2.078629
   62        2.204605
   63        2.422894
   64        2.424877
   65        6.067255
   66        6.071483
   67        6.260911
   68        6.266506
   69        6.267956
   70        6.269857
   71        6.380424
   72        6.676918
   73        6.681088
   74        6.734039
   75        6.738761
   76        7.198764
   77        8.699691
   78       11.155507
   79       11.158678
   80       11.738146
   81       11.898912
   82       11.900304
   83       12.031419
   84       12.037680
 
  0.2222222E+00 -0.1387779E-16  0.0000000E+00  0.6172840E-02
    1      -14.829060
    2      -14.708777
    3      -14.708433
    4      -14.581162
    5      -11.608125
    6      -11.511476
    7      -11.511196
    8      -11.410517
    9      -10.403248
   10      -10.401309
   11      -10.319248
   12      -10.317670
   13      -10.317109
   14      -10.315405
   15      -10.230476
   16      -10.228496
   17       -7.753433
   18       -7.750339
   19       -7.689305
   20       -7.686754
   21       -7.685072
   22       -7.684635
   23       -7.619505
   24       -7.616535
   25       -6.595844
   26       -6.533653
   27       -6.531867
   28       -6.467585
   29       -3.568454
   30       -2.782610
   31       -2.781101
   32       -2.747216
   33       -2.743014
   34       -2.716601
   35       -2.716125
   36       -2.713250
   37       -2.710316
   38       -2.684636
   39       -2.680003
   40       -1.835567
   41       -1.630015
   42       -1.609264
   43       -1.606649
   44       -1.585873
   45        0.182707
   46        0.351060
   47        0.366804
   48        0.370918
   49        0.387489
   50        0.811745
   51        0.813198
   52        0.893039
   53        0.905539
   54        0.909802
   55        0.921238
   56        1.447504
   57        1.449526
   58        1.522059
   59        1.952693
   60        1.953678
   61        1.953822
   62        1.957270
   63        2.458055
   64        2.460268
   65        6.328206
   66        6.332384
   67        6.594208
   68        6.599477
   69        6.600715
   70        6.602335
   71        7.042235
   72        7.046136
   73        7.524357
   74        7.897013
   75        7.900424
   76        8.409098
   77        8.968906
   78       11.393344
   79       11.396500
   80       11.852148
   81       12.007572
   82       12.008976
   83       12.145348
   84       12.848204
 
  0.3333333E+00 -0.2775558E-16  0.0000000E+00  0.6172840E-02
    1      -14.463338
    2      -14.345725
    3      -14.345388
    4      -14.221120
    5      -12.518955
    6      -12.415484
    7      -12.415180
    8      -12.306771
    9      -10.659486
   10      -10.657699
   11      -10.571547
   12      -10.569895
   13      -10.569552
   14      -10.567963
   15      -10.478466
   16      -10.476643
   17       -6.947315
   18       -6.944148
   19       -6.888553
   20       -6.885772
   21       -6.884024
   22       -6.883773
   23       -6.825075
   24       -6.822078
   25       -5.165120
   26       -5.111386
   27       -5.109410
   28       -5.054407
   29       -3.561097
   30       -3.557442
   31       -3.524583
   32       -3.524488
   33       -3.522021
   34       -3.519026
   35       -3.486753
   36       -3.482691
   37       -3.127038
   38       -2.352979
   39       -2.351485
   40       -1.422651
   41       -1.281648
   42       -1.262019
   43       -1.259187
   44       -1.239153
   45       -0.835420
   46       -0.830421
   47       -0.807893
   48       -0.803800
   49       -0.779182
   50       -0.140270
   51       -0.138900
   52        0.332472
   53        0.347449
   54        0.351337
   55        0.366009
   56        0.669262
   57        1.260735
   58        1.262684
   59        1.828426
   60        1.829488
   61        1.829667
   62        1.833054
   63        2.446950
   64        2.449231
   65        6.695191
   66        6.698862
   67        6.984029
   68        6.988932
   69        6.989825
   70        6.990910
   71        7.355129
   72        7.358208
   73        9.029232
   74        9.371785
   75        9.374378
   76        9.419005
   77        9.820856
   78       11.745591
   79       11.775658
   80       11.778991
   81       12.089367
   82       12.172085
   83       12.173689
   84       12.427974
 
  0.4444444E+00 -0.2775558E-16  0.0000000E+00  0.6172840E-02
    1      -13.954033
    2      -13.840068
    3      -13.839740
    4      -13.719634
    5      -13.304125
    6      -13.194920
    7      -13.194600
    8      -13.079683
    9      -10.791759
   10      -10.790044
   11      -10.702466
   12      -10.700719
   13      -10.700602
   14      -10.698988
   15      -10.607469
   16      -10.605720
   17       -6.202866
   18       -6.200049
   19       -6.161507
   20       -6.157803
   21       -6.157115
   22       -6.156611
   23       -6.116414
   24       -6.114097
   25       -4.309950
   26       -4.307827
   27       -4.280192
   28       -4.279068
   29       -4.278754
   30       -4.275299
   31       -4.246024
   32       -4.243234
   33       -3.686850
   34       -3.642894
   35       -3.640522
   36       -3.595489
   37       -2.516051
   38       -2.217108
   39       -2.183003
   40       -2.180142
   41       -2.144972
   42       -1.759472
   43       -1.758068
   44       -1.744761
   45       -1.014574
   46       -1.013180
   47       -0.855041
   48       -0.816665
   49       -0.797937
   50       -0.794779
   51       -0.776016
   52       -0.262739
   53       -0.245595
   54       -0.242202
   55       -0.224892
   56       -0.147553
   57        1.156937
   58        1.158863
   59        1.753646
   60        1.754759
   61        1.754955
   62        1.758314
   63        2.425959
   64        2.428247
   65        6.983107
   66        6.985998
   67        7.249917
   68        7.254697
   69        7.255078
   70        7.255477
   71        7.532678
   72        7.535255
   73       10.044170
   74       10.645697
   75       10.839610
   76       10.907084
   77       10.911236
   78       11.282832
   79       12.121346
   80       12.131243
   81       12.230719
   82       12.301585
   83       12.349875
   84       12.351983
 
 -0.8470329E-21  0.1111111E+00  0.0000000E+00  0.6172840E-02
    1      -15.049228
    2      -14.927372
    3      -14.927023
    4      -14.797939
    5      -10.600091
    6      -10.513655
    7      -10.513381
    8      -10.424108
    9      -10.057627
   10      -10.055353
   11       -9.984135
   12       -9.982257
   13       -9.981513
   14       -9.979639
   15       -9.908078
   16       -9.905929
   17       -8.435289
   18       -8.430746
   19       -8.376976
   20       -8.373810
   21       -8.372262
   22       -8.369161
   23       -8.309955
   24       -8.305376
   25       -7.919481
   26       -7.852005
   27       -7.851799
   28       -7.781279
   29       -3.835080
   30       -3.042478
   31       -3.040960
   32       -2.143027
   33       -2.137499
   34       -2.119165
   35       -2.116630
   36       -2.113557
   37       -2.111161
   38       -2.092520
   39       -2.086947
   40       -2.085854
   41       -1.843004
   42       -1.820881
   43       -1.820790
   44       -1.798410
   45        1.173609
   46        1.182500
   47        1.185161
   48        1.192704
   49        1.198189
   50        1.315498
   51        1.324667
   52        1.325181
   53        1.334314
   54        1.660423
   55        1.663236
   56        1.700657
   57        1.701398
   58        2.072358
   59        2.075001
   60        2.075118
   61        2.077857
   62        2.205678
   63        2.422126
   64        2.424488
   65        6.067407
   66        6.073144
   67        6.261533
   68        6.266449
   69        6.268329
   70        6.273036
   71        6.378691
   72        6.676001
   73        6.678519
   74        6.734262
   75        6.740757
   76        7.196992
   77        8.699696
   78       11.155528
   79       11.158699
   80       11.738616
   81       11.899746
   82       11.900352
   83       12.031659
   84       12.037208
 
  0.1111111E+00  0.1111111E+00  0.0000000E+00  0.6172840E-02
    1      -14.902420
    2      -14.781558
    3      -14.781212
    4      -14.653340
    5      -11.063152
    6      -11.060207
    7      -10.972627
    8      -10.969608
    9      -10.969588
   10      -10.966710
   11      -10.875266
   12      -10.872273
   13       -9.622754
   14       -9.574125
   15       -9.572709
   16       -9.531021
   17       -8.561190
   18       -8.535089
   19       -8.532033
   20       -8.493264
   21       -7.238771
   22       -7.235711
   23       -7.174281
   24       -7.171936
   25       -7.171916
   26       -7.167922
   27       -7.104730
   28       -7.101389
   29       -3.657147
   30       -2.868986
   31       -2.867475
   32       -2.818562
   33       -2.788285
   34       -2.786068
   35       -2.755098
   36       -1.998362
   37       -1.995449
   38       -1.975297
   39       -1.971586
   40       -1.971582
   41       -1.970164
   42       -1.948332
   43       -1.945946
   44       -1.918857
   45        0.645734
   46        0.654820
   47        0.658591
   48        0.669017
   49        0.763574
   50        0.766387
   51        0.997962
   52        1.007185
   53        1.010965
   54        1.018190
   55        1.340392
   56        1.343355
   57        1.343493
   58        1.345249
   59        1.967810
   60        1.970108
   61        2.041607
   62        2.392432
   63        2.395026
   64        2.644884
   65        5.959974
   66        6.056921
   67        6.061665
   68        6.436300
   69        6.869863
   70        6.872208
   71        7.216386
   72        7.218082
   73        7.218434
   74        7.222872
   75        7.723615
   76        7.726273
   77        8.879218
   78       11.315097
   79       11.318255
   80       12.108854
   81       12.112872
   82       12.269896
   83       12.272817
   84       12.275948
 
  0.2222222E+00  0.1111111E+00  0.0000000E+00  0.6172840E-02
    1      -14.609479
    2      -14.490741
    3      -14.490401
    4      -14.364933
    5      -12.026128
    6      -11.926331
    7      -11.926042
    8      -11.821716
    9      -11.402242
   10      -11.307385
   11      -11.307101
   12      -11.207959
   13       -9.671737
   14       -9.600507
   15       -9.599750
   16       -9.528135
   17       -8.089882
   18       -8.035465
   19       -8.032913
   20       -7.973547
   21       -6.456765
   22       -6.396649
   23       -6.396260
   24       -6.334513
   25       -5.857876
   26       -5.800507
   27       -5.798697
   28       -5.739910
   29       -3.723665
   30       -3.686373
   31       -3.684194
   32       -3.645952
   33       -3.303086
   34       -2.524237
   35       -2.522732
   36       -2.521738
   37       -2.492168
   38       -2.491776
   39       -2.461482
   40       -1.711661
   41       -1.688978
   42       -1.686433
   43       -1.663481
   44       -1.587120
   45       -0.305924
   46       -0.289526
   47       -0.285946
   48       -0.272700
   49       -0.264825
   50        0.392596
   51        0.394042
   52        0.433167
   53        0.454971
   54        0.466720
   55        0.471030
   56        0.482377
   57        1.056499
   58        1.057615
   59        1.158211
   60        1.759697
   61        2.181916
   62        2.594180
   63        2.596644
   64        2.942620
   65        5.943886
   66        6.063986
   67        6.068352
   68        6.383188
   69        7.446226
   70        7.785381
   71        7.787572
   72        8.217948
   73        8.229223
   74        8.586085
   75        8.588983
   76        9.048320
   77        9.239257
   78       11.632336
   79       11.635530
   80       12.205758
   81       12.395734
   82       12.408741
   83       12.410089
   84       12.743003
 
  0.3333333E+00  0.1111111E+00  0.0000000E+00  0.6172840E-02
    1      -14.171921
    2      -14.056359
    3      -14.056028
    4      -13.934158
    5      -12.874726
    6      -12.768624
    7      -12.768316
    8      -12.656957
    9      -11.609862
   10      -11.513294
   11      -11.512996
   12      -11.411958
   13       -9.815576
   14       -9.735698
   15       -9.735352
   16       -9.652798
   17       -7.325317
   18       -7.271144
   19       -7.268737
   20       -7.212726
   21       -5.660639
   22       -5.611479
   23       -5.610426
   24       -5.560437
   25       -4.658108
   26       -4.619225
   27       -4.616897
   28       -4.576113
   29       -4.411010
   30       -4.363023
   31       -4.361008
   32       -4.311869
   33       -3.219691
   34       -3.187919
   35       -3.186726
   36       -3.153513
   37       -2.776659
   38       -2.012730
   39       -2.011203
   40       -1.549682
   41       -1.522257
   42       -1.518545
   43       -1.491646
   44       -1.296050
   45       -1.274729
   46       -1.272019
   47       -1.250479
   48       -1.240672
   49       -1.096344
   50       -0.529508
   51       -0.528159
   52       -0.168132
   53       -0.152002
   54       -0.147809
   55       -0.131887
   56        0.226944
   57        0.309390
   58        0.873580
   59        0.874830
   60        1.618254
   61        2.185850
   62        2.683454
   63        2.685503
   64        3.189495
   65        5.958562
   66        6.182017
   67        6.185507
   68        6.480549
   69        7.952028
   70        8.239329
   71        8.241362
   72        8.557091
   73        9.776145
   74        9.791742
   75       10.089636
   76       10.092542
   77       10.475324
   78       11.371878
   79       12.075293
   80       12.079746
   81       12.501927
   82       12.575951
   83       12.577471
   84       12.803739
 
  0.4444444E+00  0.1111111E+00  0.0000000E+00  0.6172840E-02
    1      -13.593727
    2      -13.590993
    3      -13.483566
    4      -13.480889
    5      -13.480766
    6      -13.478046
    7      -13.364829
    8      -13.362028
    9      -11.679666
   10      -11.582471
   11      -11.582166
   12      -11.480605
   13       -9.871338
   14       -9.789798
   15       -9.789549
   16       -9.704983
   17       -6.823351
   18       -6.789252
   19       -6.786998
   20       -6.754615
   21       -5.188651
   22       -5.176640
   23       -5.160903
   24       -5.158010
   25       -5.156329
   26       -5.153892
   27       -5.131300
   28       -5.128326
   29       -3.640032
   30       -3.621608
   31       -3.618643
   32       -3.596554
   33       -2.953026
   34       -2.950457
   35       -2.914444
   36       -2.914033
   37       -2.913985
   38       -2.908438
   39       -2.874553
   40       -2.870872
   41       -2.085948
   42       -2.083733
   43       -1.344296
   44       -1.341372
   45       -1.341166
   46       -1.338875
   47       -0.774620
   48       -0.767725
   49       -0.754804
   50       -0.747867
   51       -0.747801
   52       -0.746470
   53       -0.729688
   54       -0.726273
   55       -0.458507
   56       -0.456003
   57        0.156612
   58        0.810879
   59        0.812244
   60        1.568696
   61        2.175769
   62        2.705220
   63        2.706745
   64        3.276922
   65        5.979465
   66        6.249265
   67        6.251679
   68        6.535612
   69        8.170059
   70        8.417002
   71        8.419290
   72        8.665713
   73       10.492619
   74       10.493572
   75       11.374136
   76       11.377108
   77       11.573578
   78       11.577744
   79       11.578321
   80       11.584887
   81       11.896881
   82       11.900205
   83       12.600584
   84       12.604863
 
 -0.4444444E+00  0.1111111E+00  0.0000000E+00  0.6172840E-02
    1      -14.172029
    2      -14.056468
    3      -14.056136
    4      -13.934266
    5      -12.874559
    6      -12.768459
    7      -12.768145
    8      -12.656788
    9      -11.610085
   10      -11.513520
   11      -11.513215
   12      -11.412178
   13       -9.815451
   14       -9.735527
   15       -9.735293
   16       -9.652694
   17       -7.322827
   18       -7.267929
   19       -7.267197
   20       -7.210451
   21       -5.663254
   22       -5.614712
   23       -5.612215
   24       -5.562852
   25       -4.660799
   26       -4.621223
   27       -4.620524
   28       -4.579056
   29       -4.411002
   30       -4.363160
   31       -4.360797
   32       -4.311796
   33       -3.216707
   34       -3.185620
   35       -3.182709
   36       -3.150145
   37       -2.776691
   38       -2.012747
   39       -2.011227
   40       -1.550653
   41       -1.522739
   42       -1.520398
   43       -1.493141
   44       -1.296234
   45       -1.275008
   46       -1.271923
   47       -1.250518
   48       -1.240635
   49       -1.096345
   50       -0.529511
   51       -0.528121
   52       -0.166323
   53       -0.150157
   54       -0.147315
   55       -0.130972
   56        0.227070
   57        0.309361
   58        0.873628
   59        0.875118
   60        1.618516
   61        2.185270
   62        2.683276
   63        2.684275
   64        3.188646
   65        5.961023
   66        6.184768
   67        6.186587
   68        6.481853
   69        7.950147
   70        8.237406
   71        8.240383
   72        8.556108
   73        9.776142
   74        9.792041
   75       10.089900
   76       10.093087
   77       10.475809
   78       11.371925
   79       12.075533
   80       12.079978
   81       12.500956
   82       12.574524
   83       12.576819
   84       12.803347
 
 -0.3333333E+00  0.1111111E+00  0.0000000E+00  0.6172840E-02
    1      -14.609557
    2      -14.490819
    3      -14.490478
    4      -14.365010
    5      -12.025931
    6      -11.926135
    7      -11.925840
    8      -11.821515
    9      -11.402683
   10      -11.307826
   11      -11.307533
   12      -11.208391
   13       -9.671612
   14       -9.600134
   15       -9.599924
   16       -9.528063
   17       -8.086944
   18       -8.031482
   19       -8.031247
   20       -7.970813
   21       -6.459542
   22       -6.400184
   23       -6.398180
   24       -6.337196
   25       -5.858030
   26       -5.800718
   27       -5.798768
   28       -5.740037
   29       -3.727128
   30       -3.688934
   31       -3.688740
   32       -3.649610
   33       -3.303111
   34       -2.524213
   35       -2.522714
   36       -2.517970
   37       -2.489277
   38       -2.486699
   39       -2.457314
   40       -1.711696
   41       -1.689080
   42       -1.686307
   43       -1.663441
   44       -1.587123
   45       -0.308187
   46       -0.290966
   47       -0.289808
   48       -0.274270
   49       -0.267080
   50        0.392614
   51        0.394117
   52        0.433546
   53        0.459173
   54        0.470564
   55        0.472506
   56        0.484565
   57        1.056608
   58        1.058266
   59        1.158152
   60        1.760241
   61        2.180724
   62        2.593898
   63        2.594406
   64        2.941490
   65        5.947475
   66        6.068526
   67        6.070553
   68        6.386088
   69        7.443222
   70        7.782113
   71        7.785707
   72        8.215925
   73        8.229348
   74        8.586225
   75        8.589408
   76        9.048687
   77        9.239210
   78       11.632457
   79       11.635646
   80       12.205154
   81       12.395273
   82       12.407927
   83       12.409643
   84       12.743058
 
 -0.2222222E+00  0.1111111E+00  0.0000000E+00  0.6172840E-02
    1      -14.902467
    2      -14.781605
    3      -14.781258
    4      -14.653387
    5      -11.062226
    6      -11.061420
    7      -10.970375
    8      -10.970109
    9      -10.969563
   10      -10.969287
   11      -10.874418
   12      -10.873631
   13       -9.622726
   14       -9.573456
   15       -9.573319
   16       -9.530964
   17       -8.558023
   18       -8.530623
   19       -8.530524
   20       -8.490352
   21       -7.240239
   22       -7.236913
   23       -7.175491
   24       -7.173656
   25       -7.172159
   26       -7.170335
   27       -7.106191
   28       -7.102865
   29       -3.657163
   30       -2.868998
   31       -2.867487
   32       -2.822411
   33       -2.791183
   34       -2.791079
   35       -2.759181
   36       -1.997447
   37       -1.991913
   38       -1.974037
   39       -1.971489
   40       -1.968482
   41       -1.966003
   42       -1.947783
   43       -1.942171
   44       -1.918860
   45        0.640968
   46        0.651128
   47        0.651694
   48        0.661641
   49        0.764556
   50        0.765839
   51        1.006305
   52        1.014150
   53        1.014291
   54        1.022896
   55        1.341719
   56        1.343350
   57        1.343440
   58        1.345218
   59        1.968453
   60        1.970254
   61        2.040056
   62        2.392155
   63        2.392377
   64        2.643864
   65        5.963690
   66        6.062209
   67        6.064596
   68        6.440465
   69        6.866569
   70        6.871985
   71        7.212607
   72        7.216641
   73        7.218197
   74        7.221997
   75        7.721089
   76        7.725975
   77        8.879189
   78       11.315158
   79       11.318315
   80       12.110247
   81       12.116104
   82       12.271314
   83       12.273570
   84       12.278234
 
 -0.1111111E+00  0.1111111E+00  0.0000000E+00  0.6172840E-02
    1      -15.049243
    2      -14.927388
    3      -14.927038
    4      -14.797955
    5      -10.600787
    6      -10.514344
    7      -10.514056
    8      -10.424771
    9      -10.057249
   10      -10.054982
   11       -9.983967
   12       -9.981350
   13       -9.981339
   14       -9.979471
   15       -9.907779
   16       -9.905564
   17       -8.432607
   18       -8.430854
   19       -8.373141
   20       -8.372445
   21       -8.372432
   22       -8.369396
   23       -8.307527
   24       -8.305557
   25       -7.922015
   26       -7.855328
   27       -7.853444
   28       -7.783721
   29       -3.835085
   30       -3.042482
   31       -3.040964
   32       -2.143698
   33       -2.141077
   34       -2.120141
   35       -2.116599
   36       -2.116595
   37       -2.115525
   38       -2.092904
   39       -2.090775
   40       -2.085875
   41       -1.838825
   42       -1.817718
   43       -1.815267
   44       -1.793835
   45        1.165430
   46        1.176770
   47        1.181690
   48        1.189900
   49        1.196152
   50        1.320128
   51        1.328171
   52        1.332106
   53        1.342519
   54        1.660042
   55        1.662478
   56        1.700855
   57        1.703041
   58        2.071489
   59        2.075002
   60        2.075075
   61        2.076176
   62        2.206772
   63        2.421716
   64        2.423714
   65        6.071175
   66        6.073352
   67        6.266707
   68        6.268429
   69        6.268715
   70        6.274031
   71        6.374715
   72        6.671177
   73        6.675588
   74        6.738165
   75        6.741190
   76        7.193224
   77        8.699686
   78       11.155546
   79       11.158716
   80       11.743604
   81       11.904589
   82       11.905569
   83       12.030823
   84       12.034102
 
 -0.1694066E-20  0.2222222E+00  0.0000000E+00  0.6172840E-02
    1      -14.829066
    2      -14.708784
    3      -14.708439
    4      -14.581169
    5      -11.608159
    6      -11.511514
    7      -11.511226
    8      -11.410550
    9      -10.403667
   10      -10.401003
   11      -10.320054
   12      -10.317669
   13      -10.317107
   14      -10.314748
   15      -10.230842
   16      -10.228168
   17       -7.753762
   18       -7.749117
   19       -7.689968
   20       -7.686754
   21       -7.685059
   22       -7.681913
   23       -7.619765
   24       -7.615088
   25       -6.596692
   26       -6.533739
   27       -6.533549
   28       -6.468508
   29       -3.568435
   30       -2.782587
   31       -2.781080
   32       -2.748429
   33       -2.743131
   34       -2.718673
   35       -2.716126
   36       -2.713250
   37       -2.710780
   38       -2.685655
   39       -2.680275
   40       -1.835540
   41       -1.628508
   42       -1.606688
   43       -1.606614
   44       -1.584705
   45        0.183172
   46        0.349399
   47        0.366648
   48        0.366810
   49        0.384348
   50        0.812482
   51        0.813563
   52        0.896665
   53        0.909790
   54        0.909841
   55        0.922886
   56        1.446582
   57        1.449403
   58        1.522751
   59        1.950874
   60        1.953733
   61        1.953840
   62        1.956765
   63        2.457179
   64        2.459927
   65        6.328449
   66        6.334133
   67        6.594835
   68        6.599443
   69        6.601089
   70        6.605476
   71        7.042417
   72        7.048061
   73        7.522944
   74        7.896209
   75        7.898618
   76        8.407807
   77        8.968920
   78       11.393421
   79       11.396574
   80       11.852714
   81       12.008659
   82       12.009037
   83       12.145920
   84       12.851052
 
  0.1111111E+00  0.2222222E+00  0.0000000E+00  0.6172840E-02
    1      -14.609484
    2      -14.490745
    3      -14.490405
    4      -14.364937
    5      -12.026178
    6      -11.926389
    7      -11.926085
    8      -11.821767
    9      -11.402207
   10      -11.307347
   11      -11.307070
   12      -11.207926
   13       -9.671729
   14       -9.600506
   15       -9.599736
   16       -9.528129
   17       -8.089820
   18       -8.035346
   19       -8.032913
   20       -7.973488
   21       -6.455810
   22       -6.396288
   23       -6.394640
   24       -6.333486
   25       -5.858811
   26       -5.800698
   27       -5.800461
   28       -5.740935
   29       -3.723738
   30       -3.686373
   31       -3.684354
   32       -3.646042
   33       -3.303071
   34       -2.524288
   35       -2.523232
   36       -2.522565
   37       -2.494420
   38       -2.492159
   39       -2.462726
   40       -1.710114
   41       -1.686442
   42       -1.686211
   43       -1.662222
   44       -1.587098
   45       -0.306646
   46       -0.289525
   47       -0.287867
   48       -0.272956
   49       -0.265966