mesh: [     9,     9,     4 ]
nqpoint: 50     
reciprocal_lattice:
- [   0.40533564,   0.23404500,   0.00000000 ] # a*
- [   0.00002110,   0.46805346,   0.00000000 ] # b*
- [   0.00000000,   0.00000000,   0.33040550 ] # c*
natom:   4      
lattice:
- [     2.467155442383188,    -0.000111200019553,     0.000000000000000 ] # a
- [    -1.233674023183305,     2.136563688137034,     0.000000000000000 ] # b
- [     0.000000000000000,     0.000000000000000,     3.026584039000000 ] # c
points:
- symbol: C  # 1
  coordinates: [  0.999999697166835,  0.000000349172772,  0.250000000000000 ]
  mass: 12.010700
- symbol: C  # 2
  coordinates: [  0.000000349172772,  0.999999697166835,  0.750000000000000 ]
  mass: 12.010700
- symbol: C  # 3
  coordinates: [  0.333298929956719,  0.666701052703672,  0.250000000000000 ]
  mass: 12.010700
- symbol: C  # 4
  coordinates: [  0.666701052703672,  0.333298929956719,  0.750000000000000 ]
  mass: 12.010700
phonon:
- q-position: [    0.0000000,    0.0000000,    0.1250000 ]
  weight: 2    
  band:
  - # 1
    frequency:   -47.0222110707
  - # 2
    frequency:   -19.8918345747
  - # 3
    frequency:    -5.5566006953
  - # 4
    frequency:    -5.5057561321
  - # 5
    frequency:     2.1854580591
  - # 6
    frequency:     8.9476827939
  - # 7
    frequency:    10.1792732190
  - # 8
    frequency:    20.0424064220
  - # 9
    frequency:    35.4597479053
  - # 10
    frequency:    35.7683225941
  - # 11
    frequency:    37.1224830547
  - # 12
    frequency:    37.2494919772

- q-position: [    0.1111111,    0.0000000,    0.1250000 ]
  weight: 8    
  band:
  - # 1
    frequency:   -45.4844987561
  - # 2
    frequency:   -18.4960269715
  - # 3
    frequency:    -7.1889387088
  - # 4
    frequency:    -1.4433353580
  - # 5
    frequency:     8.9039010797
  - # 6
    frequency:    11.0083841980
  - # 7
    frequency:    12.2703958020
  - # 8
    frequency:    20.0677184624
  - # 9
    frequency:    35.0411813567
  - # 10
    frequency:    35.4639254787
  - # 11
    frequency:    37.5131023234
  - # 12
    frequency:    37.5658755030

- q-position: [    0.2222222,    0.0000000,    0.1250000 ]
  weight: 8    
  band:
  - # 1
    frequency:   -41.2584959956
  - # 2
    frequency:   -14.1038994165
  - # 3
    frequency:    -7.5201673867
  - # 4
    frequency:     7.6312721050
  - # 5
    frequency:    12.7868666318
  - # 6
    frequency:    15.3982612057
  - # 7
    frequency:    18.3635080073
  - # 8
    frequency:    20.3060576128
  - # 9
    frequency:    33.9748128538
  - # 10
    frequency:    35.1184225095
  - # 11
    frequency:    37.8753066623
  - # 12
    frequency:    38.1215437430

- q-position: [    0.3333333,    0.0000000,    0.1250000 ]
  weight: 8    
  band:
  - # 1
    frequency:   -35.6310537935
  - # 2
    frequency:    -5.6630384835
  - # 3
    frequency:    -3.6941591599
  - # 4
    frequency:    10.0515828852
  - # 5
    frequency:    14.4393298664
  - # 6
    frequency:    19.1811474252
  - # 7
    frequency:    20.7595562958
  - # 8
    frequency:    25.3807229895
  - # 9
    frequency:    32.2934881801
  - # 10
    frequency:    34.9720633861
  - # 11
    frequency:    37.4606648287
  - # 12
    frequency:    38.4774808330

- q-position: [    0.4444444,    0.0000000,    0.1250000 ]
  weight: 8    
  band:
  - # 1
    frequency:   -31.1866467371
  - # 2
    frequency:    -1.4379115307
  - # 3
    frequency:    10.3907697723
  - # 4
    frequency:    12.3058852182
  - # 5
    frequency:    15.0145325607
  - # 6
    frequency:    18.7271424394
  - # 7
    frequency:    24.1866173757
  - # 8
    frequency:    28.9756130338
  - # 9
    frequency:    31.5426253687
  - # 10
    frequency:    34.9458269142
  - # 11
    frequency:    35.8729906311
  - # 12
    frequency:    38.6143383964

- q-position: [    0.1111111,    0.1111111,    0.1250000 ]
  weight: 4    
  band:
  - # 1
    frequency:   -42.6453849213
  - # 2
    frequency:   -16.2315625181
  - # 3
    frequency:    -4.1801946374
  - # 4
    frequency:     3.7916436028
  - # 5
    frequency:    11.0990668083
  - # 6
    frequency:    14.6942510533
  - # 7
    frequency:    16.3107677214
  - # 8
    frequency:    20.6458536733
  - # 9
    frequency:    34.1499537325
  - # 10
    frequency:    35.4220441510
  - # 11
    frequency:    37.8559005733
  - # 12
    frequency:    38.3702522093

- q-position: [    0.2222222,    0.1111111,    0.1250000 ]
  weight: 8    
  band:
  - # 1
    frequency:   -37.6838102677
  - # 2
    frequency:   -11.1750831048
  - # 3
    frequency:    -0.5602437777
  - # 4
    frequency:     8.7744688081
  - # 5
    frequency:    12.9756015374
  - # 6
    frequency:    19.2689069799
  - # 7
    frequency:    21.2830603682
  - # 8
    frequency:    22.1085388453
  - # 9
    frequency:    32.7568774209
  - # 10
    frequency:    35.2142950767
  - # 11
    frequency:    38.0089731484
  - # 12
    frequency:    38.7959486663

- q-position: [    0.3333333,    0.1111111,    0.1250000 ]
  weight: 8    
  band:
  - # 1
    frequency:   -32.3858304232
  - # 2
    frequency:     3.7186430337
  - # 3
    frequency:     5.5120482385
  - # 4
    frequency:    11.4404994329
  - # 5
    frequency:    14.8272791183
  - # 6
    frequency:    20.7532825750
  - # 7
    frequency:    23.2544484474
  - # 8
    frequency:    27.3621642575
  - # 9
    frequency:    30.9414833340
  - # 10
    frequency:    34.7428713522
  - # 11
    frequency:    37.4108093623
  - # 12
    frequency:    38.7780217004

- q-position: [   -0.5555556,    0.1111111,    0.1250000 ]
  weight: 8    
  band:
  - # 1
    frequency:   -29.8567312175
  - # 2
    frequency:     6.1764247905
  - # 3
    frequency:     9.9834269546
  - # 4
    frequency:    13.3677681246
  - # 5
    frequency:    15.9571956652
  - # 6
    frequency:    19.0762579100
  - # 7
    frequency:    25.3132044645
  - # 8
    frequency:    28.3783648831
  - # 9
    frequency:    31.8043844054
  - # 10
    frequency:    33.5642834151
  - # 11
    frequency:    36.3866158865
  - # 12
    frequency:    38.6425458009

- q-position: [   -0.4444444,    0.1111111,    0.1250000 ]
  weight: 8    
  band:
  - # 1
    frequency:   -32.2391454747
  - # 2
    frequency:     3.9781060057
  - # 3
    frequency:     9.6397301452
  - # 4
    frequency:    12.7065791031
  - # 5
    frequency:    15.4413956828
  - # 6
    frequency:    17.7758404144
  - # 7
    frequency:    23.1381362052
  - # 8
    frequency:    28.0154274067
  - # 9
    frequency:    31.0502165679
  - # 10
    frequency:    34.3746002943
  - # 11
    frequency:    36.5854649312
  - # 12
    frequency:    38.3903592282

- q-position: [   -0.3333333,    0.1111111,    0.1250000 ]
  weight: 8    
  band:
  - # 1
    frequency:   -37.4955919320
  - # 2
    frequency:    -7.8927454632
  - # 3
    frequency:    -2.0565506588
  - # 4
    frequency:     8.8309018557
  - # 5
    frequency:    13.5335214864
  - # 6
    frequency:    18.3859468016
  - # 7
    frequency:    20.5079470030
  - # 8
    frequency:    22.1980742073
  - # 9
    frequency:    32.8838695503
  - # 10
    frequency:    34.8685129805
  - # 11
    frequency:    37.1302738573
  - # 12
    frequency:    38.1072797970

- q-position: [   -0.2222222,    0.1111111,    0.1250000 ]
  weight: 8    
  band:
  - # 1
    frequency:   -42.5121846233
  - # 2
    frequency:   -14.9653637022
  - # 3
    frequency:    -5.5801632003
  - # 4
    frequency:     2.7292443169
  - # 5
    frequency:    10.9482721331
  - # 6
    frequency:    14.3221209567
  - # 7
    frequency:    17.8192229080
  - # 8
    frequency:    19.3272725283
  - # 9
    frequency:    34.2391263950
  - # 10
    frequency:    35.1743227015
  - # 11
    frequency:    37.1155910641
  - # 12
    frequency:    37.8064991483

- q-position: [   -0.1111111,    0.1111111,    0.1250000 ]
  weight: 4    
  band:
  - # 1
    frequency:   -45.4386154501
  - # 2
    frequency:   -18.1459486993
  - # 3
    frequency:    -4.9876375902
  - # 4
    frequency:    -4.8808056852
  - # 5
    frequency:     5.2142314218
  - # 6
    frequency:    10.7187500027
  - # 7
    frequency:    14.4301436035
  - # 8
    frequency:    19.6481345565
  - # 9
    frequency:    35.1431421033
  - # 10
    frequency:    35.3464548316
  - # 11
    frequency:    37.0304296591
  - # 12
    frequency:    37.4988432339

- q-position: [    0.2222222,    0.2222222,    0.1250000 ]
  weight: 4    
  band:
  - # 1
    frequency:   -32.8666124616
  - # 2
    frequency:    -5.5266413643
  - # 3
    frequency:     9.4304855460
  - # 4
    frequency:    10.4092867970
  - # 5
    frequency:    14.1391972492
  - # 6
    frequency:    21.9566660278
  - # 7
    frequency:    23.9073269360
  - # 8
    frequency:    24.8362241476
  - # 9
    frequency:    30.9685526783
  - # 10
    frequency:    34.6911958768
  - # 11
    frequency:    38.0141602164
  - # 12
    frequency:    38.8842292828

- q-position: [    0.3333333,    0.2222222,    0.1250000 ]
  weight: 8    
  band:
  - # 1
    frequency:   -29.0125102409
  - # 2
    frequency:     6.7999214609
  - # 3
    frequency:    11.5038495300
  - # 4
    frequency:    13.3301817404
  - # 5
    frequency:    15.7864153426
  - # 6
    frequency:    21.3886356379
  - # 7
    frequency:    26.2000315907
  - # 8
    frequency:    27.6350797222
  - # 9
    frequency:    29.6798939010
  - # 10
    frequency:    33.0476641892
  - # 11
    frequency:    37.6166515462
  - # 12
    frequency:    38.6473641087

- q-position: [   -0.5555556,    0.2222222,    0.1250000 ]
  weight: 8    
  band:
  - # 1
    frequency:   -28.9393934710
  - # 2
    frequency:     8.3805282159
  - # 3
    frequency:    12.7014565249
  - # 4
    frequency:    14.3850116737
  - # 5
    frequency:    16.0144897395
  - # 6
    frequency:    18.8231644520
  - # 7
    frequency:    26.2750435830
  - # 8
    frequency:    28.3469208141
  - # 9
    frequency:    29.9633013416
  - # 10
    frequency:    32.2654652648
  - # 11
    frequency:    36.9829249660
  - # 12
    frequency:    38.3443154452

- q-position: [   -0.4444444,    0.2222222,    0.1250000 ]
  weight: 8    
  band:
  - # 1
    frequency:   -32.6578251758
  - # 2
    frequency:     4.5918712923
  - # 3
    frequency:    10.5287987475
  - # 4
    frequency:    13.2035964351
  - # 5
    frequency:    15.2107925064
  - # 6
    frequency:    16.3219594663
  - # 7
    frequency:    24.5172439648
  - # 8
    frequency:    25.5995999643
  - # 9
    frequency:    31.0070638770
  - # 10
    frequency:    34.0154849714
  - # 11
    frequency:    36.6816464070
  - # 12
    frequency:    37.9490683776

- q-position: [   -0.3333333,    0.2222222,    0.1250000 ]
  weight: 8    
  band:
  - # 1
    frequency:   -37.4605829466
  - # 2
    frequency:    -8.9838687817
  - # 3
    frequency:     3.9654552005
  - # 4
    frequency:     9.4507332559
  - # 5
    frequency:    13.6475741029
  - # 6
    frequency:    16.8599346417
  - # 7
    frequency:    19.0147422661
  - # 8
    frequency:    24.0989553447
  - # 9
    frequency:    32.5644243400
  - # 10
    frequency:    34.7974743795
  - # 11
    frequency:    36.7003130038
  - # 12
    frequency:    37.6966129123

- q-position: [   -0.2222222,    0.2222222,    0.1250000 ]
  weight: 4    
  band:
  - # 1
    frequency:   -41.1281475798
  - # 2
    frequency:   -13.5282658528
  - # 3
    frequency:    -4.9018389964
  - # 4
    frequency:     9.1838983835
  - # 5
    frequency:     9.8840914449
  - # 6
    frequency:    13.1049435432
  - # 7
    frequency:    18.5143563201
  - # 8
    frequency:    21.4565759816
  - # 9
    frequency:    33.7154966432
  - # 10
    frequency:    34.9771378300
  - # 11
    frequency:    36.8810596169
  - # 12
    frequency:    37.6151470980

- q-position: [   -0.6666667,    0.3333333,    0.1250000 ]
  weight: 4    
  band:
  - # 1
    frequency:   -27.5310911364
  - # 2
    frequency:     9.3475538960
  - # 3
    frequency:    13.0330993949
  - # 4
    frequency:    14.8876802011
  - # 5
    frequency:    16.6755185712
  - # 6
    frequency:    20.3600920545
  - # 7
    frequency:    27.2484632462
  - # 8
    frequency:    29.2782541893
  - # 9
    frequency:    29.3609895080
  - # 10
    frequency:    30.0865392861
  - # 11
    frequency:    37.5823131169
  - # 12
    frequency:    38.1465199344

- q-position: [   -0.5555556,    0.3333333,    0.1250000 ]
  weight: 8    
  band:
  - # 1
    frequency:   -29.0682644779
  - # 2
    frequency:     9.1336815490
  - # 3
    frequency:    11.7254220160
  - # 4
    frequency:    14.1410261618
  - # 5
    frequency:    17.1128747877
  - # 6
    frequency:    18.1330194228
  - # 7
    frequency:    26.2040695333
  - # 8
    frequency:    28.2014716591
  - # 9
    frequency:    29.5988155999
  - # 10
    frequency:    32.2450402286
  - # 11
    frequency:    36.9841323310
  - # 12
    frequency:    37.5689633075

- q-position: [   -0.4444444,    0.3333333,    0.1250000 ]
  weight: 8    
  band:
  - # 1
    frequency:   -32.3565803461
  - # 2
    frequency:     1.6829118799
  - # 3
    frequency:     7.4996191754
  - # 4
    frequency:    14.3116225912
  - # 5
    frequency:    15.3446445512
  - # 6
    frequency:    17.0734765964
  - # 7
    frequency:    22.3165377894
  - # 8
    frequency:    28.7137288951
  - # 9
    frequency:    30.3900794710
  - # 10
    frequency:    34.1359738237
  - # 11
    frequency:    36.4231418999
  - # 12
    frequency:    37.1318755648

- q-position: [   -0.3333333,    0.3333333,    0.1250000 ]
  weight: 4    
  band:
  - # 1
    frequency:   -35.5572420720
  - # 2
    frequency:    -6.3543881097
  - # 3
    frequency:    -4.9802979495
  - # 4
    frequency:    13.3048462529
  - # 5
    frequency:    14.6969774258
  - # 6
    frequency:    16.4441497381
  - # 7
    frequency:    18.7947829612
  - # 8
    frequency:    27.2191371200
  - # 9
    frequency:    31.6440820269
  - # 10
    frequency:    34.5589655259
  - # 11
    frequency:    36.7395769461
  - # 12
    frequency:    37.0558015250

- q-position: [   -0.5555556,    0.4444444,    0.1250000 ]
  weight: 4    
  band:
  - # 1
    frequency:   -30.1248144176
  - # 2
    frequency:     3.8197392571
  - # 3
    frequency:    11.6843255383
  - # 4
    frequency:    12.1364836360
  - # 5
    frequency:    16.6067051068
  - # 6
    frequency:    18.3436846102
  - # 7
    frequency:    25.0045502494
  - # 8
    frequency:    27.5608574021
  - # 9
    frequency:    32.0169403960
  - # 10
    frequency:    33.0734362228
  - # 11
    frequency:    36.2304079785
  - # 12
    frequency:    36.7709150523

- q-position: [   -0.4444444,    0.4444444,    0.1250000 ]
  weight: 4    
  band:
  - # 1
    frequency:   -31.4165023719
  - # 2
    frequency:    -4.9397984489
  - # 3
    frequency:     8.7713351060
  - # 4
    frequency:    13.6781734494
  - # 5
    frequency:    14.9955772654
  - # 6
    frequency:    18.1470446110
  - # 7
    frequency:    23.4933151033
  - # 8
    frequency:    28.4177419583
  - # 9
    frequency:    31.7931525821
  - # 10
    frequency:    34.3833867524
  - # 11
    frequency:    35.6401574807
  - # 12
    frequency:    36.5942890507

- q-position: [    0.0000000,    0.0000000,    0.3750000 ]
  weight: 2    
  band:
  - # 1
    frequency:   -27.1355601664
  - # 2
    frequency:   -10.7843076647
  - # 3
    frequency:   -10.5381490581
  - # 4
    frequency:   -10.1519963128
  - # 5
    frequency:    -8.1991543075
  - # 6
    frequency:     7.7447008176
  - # 7
    frequency:    16.0457866851
  - # 8
    frequency:    27.3900814295
  - # 9
    frequency:    40.8950711955
  - # 10
    frequency:    41.3212306914
  - # 11
    frequency:    41.5201820562
  - # 12
    frequency:    41.8823988536

- q-position: [    0.1111111,    0.0000000,    0.3750000 ]
  weight: 8    
  band:
  - # 1
    frequency:   -26.0191483311
  - # 2
    frequency:   -10.1714768282
  - # 3
    frequency:    -9.6922239212
  - # 4
    frequency:    -8.5736069705
  - # 5
    frequency:    -5.9129139639
  - # 6
    frequency:     9.7104108314
  - # 7
    frequency:    18.3453703564
  - # 8
    frequency:    27.5152120185
  - # 9
    frequency:    40.5412237547
  - # 10
    frequency:    40.9653617046
  - # 11
    frequency:    41.4446455105
  - # 12
    frequency:    41.7534313333

- q-position: [    0.2222222,    0.0000000,    0.3750000 ]
  weight: 8    
  band:
  - # 1
    frequency:   -22.7857215305
  - # 2
    frequency:    -7.1808397669
  - # 3
    frequency:    -5.7619810451
  - # 4
    frequency:    -2.3212791711
  - # 5
    frequency:     6.5613519830
  - # 6
    frequency:    13.8254637391
  - # 7
    frequency:    22.7913644566
  - # 8
    frequency:    28.0459673917
  - # 9
    frequency:    39.4261477393
  - # 10
    frequency:    40.2860423244
  - # 11
    frequency:    40.8076612516
  - # 12
    frequency:    41.3664161484

- q-position: [    0.3333333,    0.0000000,    0.3750000 ]
  weight: 8    
  band:
  - # 1
    frequency:   -17.8934345437
  - # 2
    frequency:     5.0636577533
  - # 3
    frequency:     5.5246410961
  - # 4
    frequency:     9.8202559190
  - # 5
    frequency:    11.2234026678
  - # 6
    frequency:    17.3889816574
  - # 7
    frequency:    27.0634099760
  - # 8
    frequency:    29.5118606944
  - # 9
    frequency:    37.5519587677
  - # 10
    frequency:    39.3003052711
  - # 11
    frequency:    39.5650539674
  - # 12
    frequency:    40.8109814336

- q-position: [    0.4444444,    0.0000000,    0.3750000 ]
  weight: 8    
  band:
  - # 1
    frequency:   -12.9270958518
  - # 2
    frequency:     7.3955852351
  - # 3
    frequency:     9.3119943689
  - # 4
    frequency:    13.2191637675
  - # 5
    frequency:    13.3406145660
  - # 6
    frequency:    19.2942357856
  - # 7
    frequency:    29.8479063292
  - # 8
    frequency:    32.3334380295
  - # 9
    frequency:    35.4912554848
  - # 10
    frequency:    37.0134735380
  - # 11
    frequency:    39.0268773709
  - # 12
    frequency:    40.3754728485

- q-position: [    0.1111111,    0.1111111,    0.3750000 ]
  weight: 4    
  band:
  - # 1
    frequency:   -24.1061141498
  - # 2
    frequency:    -7.9782744697
  - # 3
    frequency:    -7.6159573387
  - # 4
    frequency:    -5.1161090617
  - # 5
    frequency:     5.1227315298
  - # 6
    frequency:    12.8212536936
  - # 7
    frequency:    21.3893972102
  - # 8
    frequency:    27.8911076198
  - # 9
    frequency:    39.6979315235
  - # 10
    frequency:    40.4671346109
  - # 11
    frequency:    41.2729689923
  - # 12
    frequency:    41.5154034781

- q-position: [    0.2222222,    0.1111111,    0.3750000 ]
  weight: 8    
  band:
  - # 1
    frequency:   -20.2510514612
  - # 2
    frequency:    -3.4402009023
  - # 3
    frequency:     5.7231920913
  - # 4
    frequency:     7.0910676052
  - # 5
    frequency:    11.5279261283
  - # 6
    frequency:    16.0433646799
  - # 7
    frequency:    25.3660122038
  - # 8
    frequency:    28.7942551888
  - # 9
    frequency:    38.1843210474
  - # 10
    frequency:    39.4542406842
  - # 11
    frequency:    40.5829327238
  - # 12
    frequency:    41.0331871942

- q-position: [    0.3333333,    0.1111111,    0.3750000 ]
  weight: 8    
  band:
  - # 1
    frequency:   -15.0924768483
  - # 2
    frequency:     6.0299909894
  - # 3
    frequency:    10.2110995726
  - # 4
    frequency:    11.6029786247
  - # 5
    frequency:    15.3457999933
  - # 6
    frequency:    18.4806936426
  - # 7
    frequency:    28.7266835077
  - # 8
    frequency:    30.6220028454
  - # 9
    frequency:    36.1540020531
  - # 10
    frequency:    37.7211371062
  - # 11
    frequency:    39.6719375026
  - # 12
    frequency:    40.5316593730

- q-position: [   -0.5555556,    0.1111111,    0.3750000 ]
  weight: 8    
  band:
  - # 1
    frequency:   -10.8832045579
  - # 2
    frequency:     5.9477478845
  - # 3
    frequency:    11.5287428021
  - # 4
    frequency:    12.7650305337
  - # 5
    frequency:    16.7109811234
  - # 6
    frequency:    19.4912802379
  - # 7
    frequency:    30.1661754067
  - # 8
    frequency:    32.5691019236
  - # 9
    frequency:    35.1401781201
  - # 10
    frequency:    35.7452390753
  - # 11
    frequency:    39.1979620273
  - # 12
    frequency:    40.2840921627

- q-position: [   -0.4444444,    0.1111111,    0.3750000 ]
  weight: 8    
  band:
  - # 1
    frequency:   -13.3327513843
  - # 2
    frequency:     2.4503446093
  - # 3
    frequency:    10.6181729918
  - # 4
    frequency:    11.2739048805
  - # 5
    frequency:    15.0386697596
  - # 6
    frequency:    18.6825701162
  - # 7
    frequency:    28.7521536522
  - # 8
    frequency:    30.6324583964
  - # 9
    frequency:    36.3507712164
  - # 10
    frequency:    37.4789673500
  - # 11
    frequency:    39.4607774167
  - # 12
    frequency:    40.4308774886

- q-position: [   -0.3333333,    0.1111111,    0.3750000 ]
  weight: 8    
  band:
  - # 1
    frequency:   -18.9248305328
  - # 2
    frequency:    -6.4585296681
  - # 3
    frequency:     6.6010067029
  - # 4
    frequency:     6.9178759873
  - # 5
    frequency:    11.0073544481
  - # 6
    frequency:    16.1571642947
  - # 7
    frequency:    25.6073807440
  - # 8
    frequency:    28.5826944391
  - # 9
    frequency:    38.4303605931
  - # 10
    frequency:    39.3060074180
  - # 11
    frequency:    40.2560147073
  - # 12
    frequency:    40.8444156181

- q-position: [   -0.2222222,    0.1111111,    0.3750000 ]
  weight: 8    
  band:
  - # 1
    frequency:   -23.3381143986
  - # 2
    frequency:    -9.6174758766
  - # 3
    frequency:    -6.7175752574
  - # 4
    frequency:    -5.3566555270
  - # 5
    frequency:     5.8875227415
  - # 6
    frequency:    12.0580481358
  - # 7
    frequency:    21.7868950248
  - # 8
    frequency:    27.7434508818
  - # 9
    frequency:    39.9476801371
  - # 10
    frequency:    40.3579139267
  - # 11
    frequency:    41.0333612556
  - # 12
    frequency:    41.2938031667

- q-position: [   -0.1111111,    0.1111111,    0.3750000 ]
  weight: 4    
  band:
  - # 1
    frequency:   -25.7681721579
  - # 2
    frequency:   -10.6260796707
  - # 3
    frequency:    -9.6506825427
  - # 4
    frequency:    -8.4230406181
  - # 5
    frequency:    -5.2148501906
  - # 6
    frequency:     8.7523350524
  - # 7
    frequency:    18.6577750294
  - # 8
    frequency:    27.4663179223
  - # 9
    frequency:    40.7474707756
  - # 10
    frequency:    40.8169164881
  - # 11
    frequency:    41.3718721596
  - # 12
    frequency:    41.6494651545

- q-position: [    0.2222222,    0.2222222,    0.3750000 ]
  weight: 4    
  band:
  - # 1
    frequency:   -15.9392785457
  - # 2
    frequency:     5.8773015316
  - # 3
    frequency:     8.7628586986
  - # 4
    frequency:    13.4351610187
  - # 5
    frequency:    16.0281713283
  - # 6
    frequency:    17.9619080043
  - # 7
    frequency:    28.0086418741
  - # 8
    frequency:    29.7233679951
  - # 9
    frequency:    36.4647241254
  - # 10
    frequency:    37.7571027629
  - # 11
    frequency:    40.3100162846
  - # 12
    frequency:    40.4391228601

- q-position: [    0.3333333,    0.2222222,    0.3750000 ]
  weight: 8    
  band:
  - # 1
    frequency:   -10.4736545133
  - # 2
    frequency:     7.4916042178
  - # 3
    frequency:     9.9499217216
  - # 4
    frequency:    16.5633811625
  - # 5
    frequency:    18.6832074269
  - # 6
    frequency:    19.6298179540
  - # 7
    frequency:    29.7727570863
  - # 8
    frequency:    30.8273635637
  - # 9
    frequency:    35.0234937073
  - # 10
    frequency:    35.5552875399
  - # 11
    frequency:    39.7626051188
  - # 12
    frequency:    40.1797398993

- q-position: [   -0.5555556,    0.2222222,    0.3750000 ]
  weight: 8    
  band:
  - # 1
    frequency:    -6.7187224277
  - # 2
    frequency:    -1.4543986817
  - # 3
    frequency:    10.4584481441
  - # 4
    frequency:    16.4399006710
  - # 5
    frequency:    18.5164590613
  - # 6
    frequency:    19.7406274817
  - # 7
    frequency:    29.7461987457
  - # 8
    frequency:    30.9750173180
  - # 9
    frequency:    35.1751113670
  - # 10
    frequency:    35.2610428357
  - # 11
    frequency:    39.5752362751
  - # 12
    frequency:    40.1649462356

- q-position: [   -0.4444444,    0.2222222,    0.3750000 ]
  weight: 8    
  band:
  - # 1
    frequency:   -12.8630361836
  - # 2
    frequency:    -6.0314040174
  - # 3
    frequency:     9.9138049647
  - # 4
    frequency:    13.5489494103
  - # 5
    frequency:    14.9034704996
  - # 6
    frequency:    18.4197696887
  - # 7
    frequency:    28.2842434378
  - # 8
    frequency:    29.4967262780
  - # 9
    frequency:    36.7026850565
  - # 10
    frequency:    37.4181416642
  - # 11
    frequency:    39.9740795832
  - # 12
    frequency:    40.2999865298

- q-position: [   -0.3333333,    0.2222222,    0.3750000 ]
  weight: 8    
  band:
  - # 1
    frequency:   -18.3593635998
  - # 2
    frequency:    -8.6771303579
  - # 3
    frequency:     6.1031119134
  - # 4
    frequency:     8.0300607121
  - # 5
    frequency:    11.3238594504
  - # 6
    frequency:    15.7840386959
  - # 7
    frequency:    25.7261302343
  - # 8
    frequency:    28.5953475278
  - # 9
    frequency:    38.2957359172
  - # 10
    frequency:    39.3484016365
  - # 11
    frequency:    40.4481662001
  - # 12
    frequency:    40.6116471158

- q-position: [   -0.2222222,    0.2222222,    0.3750000 ]
  weight: 4    
  band:
  - # 1
    frequency:   -21.8595893270
  - # 2
    frequency:   -10.0507719072
  - # 3
    frequency:    -6.0125200399
  - # 4
    frequency:     3.8889450081
  - # 5
    frequency:     7.6998852365
  - # 6
    frequency:    12.7904295299
  - # 7
    frequency:    23.2416606968
  - # 8
    frequency:    27.9280465851
  - # 9
    frequency:    39.4458265141
  - # 10
    frequency:    40.3257020405
  - # 11
    frequency:    40.7851380390
  - # 12
    frequency:    41.0012683148

- q-position: [   -0.6666667,    0.3333333,    0.3750000 ]
  weight: 4    
  band:
  - # 1
    frequency:    -4.7687123498
  - # 2
    frequency:     7.9110854093
  - # 3
    frequency:     8.4501591664
  - # 4
    frequency:    18.4704477206
  - # 5
    frequency:    20.1382993005
  - # 6
    frequency:    20.3447492050
  - # 7
    frequency:    30.2648136706
  - # 8
    frequency:    30.3373538044
  - # 9
    frequency:    34.1401128001
  - # 10
    frequency:    34.7987400267
  - # 11
    frequency:    39.8239446951
  - # 12
    frequency:    39.9332629529

- q-position: [   -0.5555556,    0.3333333,    0.3750000 ]
  weight: 8    
  band:
  - # 1
    frequency:    -7.9160573845
  - # 2
    frequency:     4.7656525115
  - # 3
    frequency:    10.0403275113
  - # 4
    frequency:    16.4156224973
  - # 5
    frequency:    18.4882747603
  - # 6
    frequency:    19.6535957998
  - # 7
    frequency:    29.6818780633
  - # 8
    frequency:    30.9411801306
  - # 9
    frequency:    34.9864332924
  - # 10
    frequency:    35.4022643911
  - # 11
    frequency:    39.7992951322
  - # 12
    frequency:    39.9876290320

- q-position: [   -0.4444444,    0.3333333,    0.3750000 ]
  weight: 8    
  band:
  - # 1
    frequency:   -12.9660752699
  - # 2
    frequency:    -4.4488656166
  - # 3
    frequency:    10.9555712514
  - # 4
    frequency:    11.0787107163
  - # 5
    frequency:    15.2391199751
  - # 6
    frequency:    18.3954279819
  - # 7
    frequency:    28.6161190320
  - # 8
    frequency:    30.7671365853
  - # 9
    frequency:    36.0754627308
  - # 10
    frequency:    37.5326372754
  - # 11
    frequency:    39.7896473144
  - # 12
    frequency:    40.2372976327

- q-position: [   -0.3333333,    0.3333333,    0.3750000 ]
  weight: 4    
  band:
  - # 1
    frequency:   -16.3816507552
  - # 2
    frequency:    -7.4764740410
  - # 3
    frequency:     5.8064496139
  - # 4
    frequency:    10.6748413836
  - # 5
    frequency:    11.9393212232
  - # 6
    frequency:    16.9363408739
  - # 7
    frequency:    27.1178348188
  - # 8
    frequency:    29.6072442903
  - # 9
    frequency:    37.3695273211
  - # 10
    frequency:    39.1638581543
  - # 11
    frequency:    39.8025041616
  - # 12
    frequency:    40.5390233826

- q-position: [   -0.5555556,    0.4444444,    0.3750000 ]
  weight: 4    
  band:
  - # 1
    frequency:   -11.2242489935
  - # 2
    frequency:     6.6741982392
  - # 3
    frequency:    11.3076875736
  - # 4
    frequency:    12.5875206939
  - # 5
    frequency:    16.6292073757
  - # 6
    frequency:    19.2978419413
  - # 7
    frequency:    29.9859943402
  - # 8
    frequency:    32.5682075866
  - # 9
    frequency:    34.9920256334
  - # 10
    frequency:    35.6983638963
  - # 11
    frequency:    39.5838877711
  - # 12
    frequency:    40.0555621220

- q-position: [   -0.4444444,    0.4444444,    0.3750000 ]
  weight: 4    
  band:
  - # 1
    frequency:   -12.8257902308
  - # 2
    frequency:     5.9193661425
  - # 3
    frequency:     9.1612774805
  - # 4
    frequency:    13.3323857862
  - # 5
    frequency:    13.4684316460
  - # 6
    frequency:    19.0363478335
  - # 7
    frequency:    29.6447997122
  - # 8
    frequency:    32.4542836706
  - # 9
    frequency:    35.2363816181
  - # 10
    frequency:    36.9066513100
  - # 11
    frequency:    39.4738218308
  - # 12
    frequency:    40.1696027004

