# Thermal properties / unit cell (natom)

unit:
  temperature:   K
  free_energy:   kJ/mol
  entropy:       J/K/mol
  heat_capacity: J/K/mol

natom:     4
num_modes: 3888
num_integrated_modes: 3218

zero_point_energy:      49.6791241
high_T_entropy:        200.0982692

thermal_properties:
- temperature:         0.0000000
  free_energy:        49.6791241
  entropy:             0.0000000
  heat_capacity:       0.0000000
  energy:             49.6791241

- temperature:        10.0000000
  free_energy:        49.6791235
  entropy:             0.0006221
  heat_capacity:       0.0046178
  energy:             49.6791297

- temperature:        20.0000000
  free_energy:        49.6790264
  entropy:             0.0274314
  heat_capacity:       0.1101533
  energy:             49.6795750

- temperature:        30.0000000
  free_energy:        49.6783683
  entropy:             0.1152902
  heat_capacity:       0.3653456
  energy:             49.6818271

- temperature:        40.0000000
  free_energy:        49.6764871
  entropy:             0.2731166
  heat_capacity:       0.7788823
  energy:             49.6874118

- temperature:        50.0000000
  free_energy:        49.6726563
  entropy:             0.5057150
  heat_capacity:       1.3531202
  energy:             49.6979420

- temperature:        60.0000000
  free_energy:        49.6661198
  entropy:             0.8141524
  heat_capacity:       2.0757131
  energy:             49.7149689

- temperature:        70.0000000
  free_energy:        49.6561258
  entropy:             1.1967662
  heat_capacity:       2.9312200
  energy:             49.7398995

- temperature:        80.0000000
  free_energy:        49.6419475
  entropy:             1.6504218
  heat_capacity:       3.9030560
  energy:             49.7739813

- temperature:        90.0000000
  free_energy:        49.6228941
  entropy:             2.1710403
  heat_capacity:       4.9730053
  energy:             49.8182877

- temperature:       100.0000000
  free_energy:        49.5983194
  entropy:             2.7538519
  heat_capacity:       6.1219252
  energy:             49.8737045

- temperature:       110.0000000
  free_energy:        49.5676272
  entropy:             3.3936357
  heat_capacity:       7.3311543
  energy:             49.9409271

- temperature:       120.0000000
  free_energy:        49.5302748
  entropy:             4.0849778
  heat_capacity:       8.5838219
  energy:             50.0204721

- temperature:       130.0000000
  free_energy:        49.4857736
  entropy:             4.8225146
  heat_capacity:       9.8656972
  energy:             50.1127005

- temperature:       140.0000000
  free_energy:        49.4336876
  entropy:             5.6011284
  heat_capacity:      11.1655271
  energy:             50.2178456

- temperature:       150.0000000
  free_energy:        49.3736300
  entropy:             6.4160853
  heat_capacity:      12.4749536
  energy:             50.3360428

- temperature:       160.0000000
  free_energy:        49.3052591
  entropy:             7.2631122
  heat_capacity:      13.7881520
  energy:             50.4673570

- temperature:       170.0000000
  free_energy:        49.2282735
  entropy:             8.1384239
  heat_capacity:      15.1013261
  energy:             50.6118056

- temperature:       180.0000000
  free_energy:        49.1424074
  entropy:             9.0387127
  heat_capacity:      16.4121715
  energy:             50.7693757

- temperature:       190.0000000
  free_energy:        49.0474256
  entropy:             9.9611117
  heat_capacity:      17.7193793
  energy:             50.9400368

- temperature:       200.0000000
  free_energy:        48.9431197
  entropy:            10.9031447
  heat_capacity:      19.0222222
  energy:             51.1237487

- temperature:       210.0000000
  free_energy:        48.8293044
  entropy:            11.8626702
  heat_capacity:      20.3202375
  energy:             51.3204652

- temperature:       220.0000000
  free_energy:        48.7058143
  entropy:            12.8378258
  heat_capacity:      21.6130044
  energy:             51.5301359

- temperature:       230.0000000
  free_energy:        48.5725013
  entropy:            13.8269773
  heat_capacity:      22.9000048
  energy:             51.7527061

- temperature:       240.0000000
  free_energy:        48.4292329
  entropy:            14.8286735
  heat_capacity:      24.1805495
  energy:             51.9881145

- temperature:       250.0000000
  free_energy:        48.2758904
  entropy:            15.8416090
  heat_capacity:      25.4537545
  energy:             52.2362926

- temperature:       260.0000000
  free_energy:        48.1123672
  entropy:            16.8645937
  heat_capacity:      26.7185501
  energy:             52.4971616

- temperature:       270.0000000
  free_energy:        47.9385687
  entropy:            17.8965291
  heat_capacity:      27.9737122
  energy:             52.7706315

- temperature:       280.0000000
  free_energy:        47.7544103
  entropy:            18.9363894
  heat_capacity:      29.2179039
  energy:             53.0565993

- temperature:       290.0000000
  free_energy:        47.5598177
  entropy:            19.9832092
  heat_capacity:      30.4497211
  energy:             53.3549483

- temperature:       300.0000000
  free_energy:        47.3547259
  entropy:            21.0360726
  heat_capacity:      31.6677373
  energy:             53.6655477

- temperature:       310.0000000
  free_energy:        47.1390790
  entropy:            22.0941077
  heat_capacity:      32.8705438
  energy:             53.9882524

- temperature:       320.0000000
  free_energy:        46.9128293
  entropy:            23.1564814
  heat_capacity:      34.0567841
  energy:             54.3229034

- temperature:       330.0000000
  free_energy:        46.6759376
  entropy:            24.2223970
  heat_capacity:      35.2251819
  energy:             54.6693286

- temperature:       340.0000000
  free_energy:        46.4283721
  entropy:            25.2910926
  heat_capacity:      36.3745617
  energy:             55.0273436

- temperature:       350.0000000
  free_energy:        46.1701089
  entropy:            26.3618400
  heat_capacity:      37.5038645
  energy:             55.3967529

- temperature:       360.0000000
  free_energy:        45.9011308
  entropy:            27.4339445
  heat_capacity:      38.6121565
  energy:             55.7773508

- temperature:       370.0000000
  free_energy:        45.6214277
  entropy:            28.5067449
  heat_capacity:      39.6986342
  energy:             56.1689233

- temperature:       380.0000000
  free_energy:        45.3309957
  entropy:            29.5796128
  heat_capacity:      40.7626251
  energy:             56.5712485

- temperature:       390.0000000
  free_energy:        45.0298372
  entropy:            30.6519534
  heat_capacity:      41.8035853
  energy:             56.9840990

- temperature:       400.0000000
  free_energy:        44.7179602
  entropy:            31.7232046
  heat_capacity:      42.8210947
  energy:             57.4072421

- temperature:       410.0000000
  free_energy:        44.3953785
  entropy:            32.7928371
  heat_capacity:      43.8148506
  energy:             57.8404417

- temperature:       420.0000000
  free_energy:        44.0621106
  entropy:            33.8603540
  heat_capacity:      44.7846599
  energy:             58.2834592

- temperature:       430.0000000
  free_energy:        43.7181800
  entropy:            34.9252901
  heat_capacity:      45.7304307
  energy:             58.7360547

- temperature:       440.0000000
  free_energy:        43.3636148
  entropy:            35.9872112
  heat_capacity:      46.6521631
  energy:             59.1979877

- temperature:       450.0000000
  free_energy:        42.9984472
  entropy:            37.0457133
  heat_capacity:      47.5499407
  energy:             59.6690182

- temperature:       460.0000000
  free_energy:        42.6227132
  entropy:            38.1004218
  heat_capacity:      48.4239211
  energy:             60.1489072

- temperature:       470.0000000
  free_energy:        42.2364525
  entropy:            39.1509903
  heat_capacity:      49.2743277
  energy:             60.6374180

- temperature:       480.0000000
  free_energy:        41.8397082
  entropy:            40.1970997
  heat_capacity:      50.1014411
  energy:             61.1343161

- temperature:       490.0000000
  free_energy:        41.4325264
  entropy:            41.2384569
  heat_capacity:      50.9055916
  energy:             61.6393703

- temperature:       500.0000000
  free_energy:        41.0149558
  entropy:            42.2747936
  heat_capacity:      51.6871520
  energy:             62.1523526

- temperature:       510.0000000
  free_energy:        40.5870481
  entropy:            43.3058653
  heat_capacity:      52.4465306
  energy:             62.6730394

- temperature:       520.0000000
  free_energy:        40.1488568
  entropy:            44.3314499
  heat_capacity:      53.1841654
  energy:             63.2012108

- temperature:       530.0000000
  free_energy:        39.7004380
  entropy:            45.3513466
  heat_capacity:      53.9005184
  energy:             63.7366517

- temperature:       540.0000000
  free_energy:        39.2418495
  entropy:            46.3653747
  heat_capacity:      54.5960706
  energy:             64.2791518

- temperature:       550.0000000
  free_energy:        38.7731506
  entropy:            47.3733724
  heat_capacity:      55.2713177
  energy:             64.8285055

- temperature:       560.0000000
  free_energy:        38.2944026
  entropy:            48.3751956
  heat_capacity:      55.9267659
  energy:             65.3845122

- temperature:       570.0000000
  free_energy:        37.8056677
  entropy:            49.3707171
  heat_capacity:      56.5629283
  energy:             65.9469765

- temperature:       580.0000000
  free_energy:        37.3070096
  entropy:            50.3598250
  heat_capacity:      57.1803220
  energy:             66.5157082

- temperature:       590.0000000
  free_energy:        36.7984929
  entropy:            51.3424223
  heat_capacity:      57.7794653
  energy:             67.0905221

- temperature:       600.0000000
  free_energy:        36.2801832
  entropy:            52.3184253
  heat_capacity:      58.3608753
  energy:             67.6712384

- temperature:       610.0000000
  free_energy:        35.7521467
  entropy:            53.2877632
  heat_capacity:      58.9250659
  energy:             68.2576822

- temperature:       620.0000000
  free_energy:        35.2144503
  entropy:            54.2503768
  heat_capacity:      59.4725461
  energy:             68.8496840

- temperature:       630.0000000
  free_energy:        34.6671617
  entropy:            55.2062181
  heat_capacity:      60.0038182
  energy:             69.4470791

- temperature:       640.0000000
  free_energy:        34.1103487
  entropy:            56.1552489
  heat_capacity:      60.5193770
  energy:             70.0497080

- temperature:       650.0000000
  free_energy:        33.5440795
  entropy:            57.0974406
  heat_capacity:      61.0197086
  energy:             70.6574159

- temperature:       660.0000000
  free_energy:        32.9684227
  entropy:            58.0327731
  heat_capacity:      61.5052894
  energy:             71.2700530

- temperature:       670.0000000
  free_energy:        32.3834470
  entropy:            58.9612345
  heat_capacity:      61.9765855
  energy:             71.8874741

- temperature:       680.0000000
  free_energy:        31.7892210
  entropy:            59.8828200
  heat_capacity:      62.4340523
  energy:             72.5095386

- temperature:       690.0000000
  free_energy:        31.1858135
  entropy:            60.7975319
  heat_capacity:      62.8781339
  energy:             73.1361105

- temperature:       700.0000000
  free_energy:        30.5732932
  entropy:            61.7053784
  heat_capacity:      63.3092629
  energy:             73.7670581

- temperature:       710.0000000
  free_energy:        29.9517287
  entropy:            62.6063736
  heat_capacity:      63.7278600
  energy:             74.4022540

- temperature:       720.0000000
  free_energy:        29.3211885
  entropy:            63.5005366
  heat_capacity:      64.1343342
  energy:             75.0415749

- temperature:       730.0000000
  free_energy:        28.6817407
  entropy:            64.3878916
  heat_capacity:      64.5290826
  energy:             75.6849016

- temperature:       740.0000000
  free_energy:        28.0334533
  entropy:            65.2684668
  heat_capacity:      64.9124903
  energy:             76.3321187

- temperature:       750.0000000
  free_energy:        27.3763939
  entropy:            66.1422946
  heat_capacity:      65.2849308
  energy:             76.9831148

- temperature:       760.0000000
  free_energy:        26.7106298
  entropy:            67.0094108
  heat_capacity:      65.6467655
  energy:             77.6377820

- temperature:       770.0000000
  free_energy:        26.0362279
  entropy:            67.8698546
  heat_capacity:      65.9983447
  energy:             78.2960159

- temperature:       780.0000000
  free_energy:        25.3532548
  entropy:            68.7236680
  heat_capacity:      66.3400069
  energy:             78.9577158

- temperature:       790.0000000
  free_energy:        24.6617765
  entropy:            69.5708957
  heat_capacity:      66.6720798
  energy:             79.6227841

- temperature:       800.0000000
  free_energy:        23.9618586
  entropy:            70.4115848
  heat_capacity:      66.9948799
  energy:             80.2911265

- temperature:       810.0000000
  free_energy:        23.2535664
  entropy:            71.2457845
  heat_capacity:      67.3087131
  energy:             80.9626518

- temperature:       820.0000000
  free_energy:        22.5369644
  entropy:            72.0735457
  heat_capacity:      67.6138750
  energy:             81.6372719

- temperature:       830.0000000
  free_energy:        21.8121168
  entropy:            72.8949212
  heat_capacity:      67.9106508
  energy:             82.3149014

- temperature:       840.0000000
  free_energy:        21.0790871
  entropy:            73.7099652
  heat_capacity:      68.1993160
  energy:             82.9954579

- temperature:       850.0000000
  free_energy:        20.3379384
  entropy:            74.5187331
  heat_capacity:      68.4801363
  energy:             83.6788615

- temperature:       860.0000000
  free_energy:        19.5887332
  entropy:            75.3212815
  heat_capacity:      68.7533685
  energy:             84.3650353

- temperature:       870.0000000
  free_energy:        18.8315333
  entropy:            76.1176680
  heat_capacity:      69.0192599
  energy:             85.0539044

- temperature:       880.0000000
  free_energy:        18.0664002
  entropy:            76.9079508
  heat_capacity:      69.2780493
  energy:             85.7453968

- temperature:       890.0000000
  free_energy:        17.2933944
  entropy:            77.6921889
  heat_capacity:      69.5299670
  energy:             86.4394425

- temperature:       900.0000000
  free_energy:        16.5125763
  entropy:            78.4704418
  heat_capacity:      69.7752351
  energy:             87.1359740

- temperature:       910.0000000
  free_energy:        15.7240054
  entropy:            79.2427697
  heat_capacity:      70.0140678
  energy:             87.8349258

- temperature:       920.0000000
  free_energy:        14.9277405
  entropy:            80.0092327
  heat_capacity:      70.2466717
  energy:             88.5362346

- temperature:       930.0000000
  free_energy:        14.1238400
  entropy:            80.7698915
  heat_capacity:      70.4732459
  energy:             89.2398391

- temperature:       940.0000000
  free_energy:        13.3123618
  entropy:            81.5248066
  heat_capacity:      70.6939826
  energy:             89.9456800

- temperature:       950.0000000
  free_energy:        12.4933629
  entropy:            82.2740390
  heat_capacity:      70.9090670
  energy:             90.6536999

- temperature:       960.0000000
  free_energy:        11.6668998
  entropy:            83.0176494
  heat_capacity:      71.1186776
  energy:             91.3638431

- temperature:       970.0000000
  free_energy:        10.8330284
  entropy:            83.7556983
  heat_capacity:      71.3229868
  energy:             92.0760558

- temperature:       980.0000000
  free_energy:         9.9918041
  entropy:            84.4882466
  heat_capacity:      71.5221605
  energy:             92.7902858

- temperature:       990.0000000
  free_energy:         9.1432816
  entropy:            85.2153544
  heat_capacity:      71.7163591
  energy:             93.5064824

- temperature:      1000.0000000
  free_energy:         8.2875150
  entropy:            85.9370819
  heat_capacity:      71.9057369
  energy:             94.2245969
