  32  32   0   0
  0.8992511E+01  0.4932875E-09  0.4932875E-09  0.1366141E-08  0.5000000E-15
  1.000000000000000E-004
  CAR 
 graphite                                
     15.30135404    -17.09246619  301      4.52028575      1.00000000
    -17.092  0.0000E+00  0.0000E+00
    -16.984  0.0000E+00  0.0000E+00
    -16.877  0.0000E+00  0.0000E+00
    -16.769  0.0000E+00  0.0000E+00
    -16.661  0.0000E+00  0.0000E+00
    -16.553  0.0000E+00  0.0000E+00
    -16.445  0.0000E+00  0.0000E+00
    -16.337  0.0000E+00  0.0000E+00
    -16.229  0.0000E+00  0.0000E+00
    -16.121  0.0000E+00  0.0000E+00
    -16.013  0.0000E+00  0.0000E+00
    -15.905  0.0000E+00  0.0000E+00
    -15.797  0.0000E+00  0.0000E+00
    -15.689  0.0000E+00  0.0000E+00
    -15.581  0.0000E+00  0.0000E+00
    -15.473  0.0000E+00  0.0000E+00
    -15.365  0.0000E+00  0.0000E+00
    -15.257  0.0000E+00  0.0000E+00
    -15.149  0.0000E+00  0.0000E+00
    -15.041  0.1078E+01  0.2146E-01
    -14.933  0.2558E+01  0.2313E+00
    -14.825  0.4408E+01  0.5975E+00
    -14.717  0.4824E+01  0.1119E+01
    -14.609  0.4998E+01  0.1654E+01
    -14.501  0.4916E+01  0.2186E+01
    -14.393  0.4950E+01  0.2719E+01
    -14.285  0.4906E+01  0.3251E+01
    -14.177  0.4986E+01  0.3785E+01
    -14.069  0.4983E+01  0.4323E+01
    -13.961  0.4992E+01  0.4862E+01
    -13.853  0.5622E+01  0.5429E+01
    -13.745  0.5911E+01  0.6055E+01
    -13.637  0.6782E+01  0.6762E+01
    -13.529  0.4623E+01  0.7359E+01
    -13.421  0.1770E+01  0.7722E+01
    -13.313  0.3305E+01  0.7965E+01
    -13.205  0.4295E+01  0.8412E+01
    -13.097  0.4580E+01  0.8895E+01
    -12.989  0.6004E+01  0.9634E+01
    -12.881  0.6752E+01  0.1034E+02
    -12.773  0.4346E+01  0.1089E+02
    -12.665  0.4513E+01  0.1137E+02
    -12.557  0.4643E+01  0.1186E+02
    -12.449  0.4757E+01  0.1237E+02
    -12.341  0.5142E+01  0.1290E+02
    -12.233  0.5517E+01  0.1347E+02
    -12.125  0.5654E+01  0.1411E+02
    -12.017  0.5517E+01  0.1470E+02
    -11.909  0.5148E+01  0.1527E+02
    -11.801  0.4938E+01  0.1582E+02
    -11.693  0.4912E+01  0.1635E+02
    -11.586  0.5009E+01  0.1688E+02
    -11.478  0.5068E+01  0.1743E+02
    -11.370  0.5141E+01  0.1798E+02
    -11.262  0.5479E+01  0.1855E+02
    -11.154  0.5896E+01  0.1916E+02
    -11.046  0.5782E+01  0.1979E+02
    -10.938  0.5723E+01  0.2041E+02
    -10.830  0.5775E+01  0.2103E+02
    -10.722  0.5431E+01  0.2166E+02
    -10.614  0.4553E+01  0.2218E+02
    -10.506  0.5148E+01  0.2271E+02
    -10.398  0.5341E+01  0.2328E+02
    -10.290  0.5428E+01  0.2386E+02
    -10.182  0.5620E+01  0.2445E+02
    -10.074  0.5865E+01  0.2507E+02
     -9.966  0.7168E+01  0.2576E+02
     -9.858  0.1078E+02  0.2668E+02
     -9.750  0.7382E+01  0.2766E+02
     -9.642  0.5442E+01  0.2832E+02
     -9.534  0.5864E+01  0.2903E+02
     -9.426  0.3663E+01  0.2958E+02
     -9.318  0.3294E+01  0.2996E+02
     -9.210  0.2925E+01  0.3029E+02
     -9.102  0.2556E+01  0.3059E+02
     -8.994  0.2315E+01  0.3085E+02
     -8.886  0.3496E+01  0.3115E+02
     -8.778  0.2158E+01  0.3145E+02
     -8.670  0.1485E+01  0.3161E+02
     -8.562  0.2356E+01  0.3182E+02
     -8.454  0.5374E+01  0.3218E+02
     -8.346  0.5053E+01  0.3295E+02
     -8.238  0.3852E+01  0.3340E+02
     -8.130  0.4178E+01  0.3383E+02
     -8.022  0.7560E+01  0.3440E+02
     -7.914  0.6052E+01  0.3519E+02
     -7.806  0.7119E+01  0.3591E+02
     -7.698  0.8206E+01  0.3673E+02
     -7.590  0.8645E+01  0.3768E+02
     -7.482  0.6344E+01  0.3847E+02
     -7.374  0.6084E+01  0.3914E+02
     -7.266  0.5825E+01  0.3979E+02
     -7.158  0.5586E+01  0.4040E+02
     -7.050  0.5389E+01  0.4099E+02
     -6.942  0.5209E+01  0.4157E+02
     -6.834  0.5019E+01  0.4212E+02
     -6.726  0.4860E+01  0.4265E+02
     -6.618  0.4827E+01  0.4317E+02
     -6.510  0.4798E+01  0.4369E+02
     -6.403  0.4688E+01  0.4421E+02
     -6.295  0.4452E+01  0.4470E+02
     -6.187  0.4383E+01  0.4518E+02
     -6.079  0.3791E+01  0.4560E+02
     -5.971  0.4159E+01  0.4603E+02
     -5.863  0.4787E+01  0.4652E+02
     -5.755  0.5556E+01  0.4707E+02
     -5.647  0.6363E+01  0.4772E+02
     -5.539  0.9438E+01  0.4854E+02
     -5.431  0.9163E+01  0.4962E+02
     -5.323  0.6886E+01  0.5049E+02
     -5.215  0.4608E+01  0.5111E+02
     -5.107  0.2699E+01  0.5149E+02
     -4.999  0.2819E+01  0.5178E+02
     -4.891  0.3954E+01  0.5214E+02
     -4.783  0.5280E+01  0.5264E+02
     -4.675  0.6751E+01  0.5328E+02
     -4.567  0.8139E+01  0.5410E+02
     -4.459  0.7143E+01  0.5494E+02
     -4.351  0.5952E+01  0.5564E+02
     -4.243  0.5976E+01  0.5626E+02
     -4.135  0.7420E+01  0.5705E+02
     -4.027  0.6903E+01  0.5783E+02
     -3.919  0.6386E+01  0.5854E+02
     -3.811  0.6476E+01  0.5923E+02
     -3.703  0.6200E+01  0.5991E+02
     -3.595  0.1182E+02  0.6090E+02
     -3.487  0.8872E+01  0.6206E+02
     -3.379  0.8127E+01  0.6300E+02
     -3.271  0.7296E+01  0.6383E+02
     -3.163  0.6734E+01  0.6458E+02
     -3.055  0.7354E+01  0.6533E+02
     -2.947  0.8375E+01  0.6618E+02
     -2.839  0.9777E+01  0.6715E+02
     -2.731  0.1392E+02  0.6840E+02
     -2.623  0.1443E+02  0.6996E+02
     -2.515  0.1170E+02  0.7126E+02
     -2.407  0.1298E+02  0.7259E+02
     -2.299  0.1299E+02  0.7394E+02
     -2.191  0.1424E+02  0.7550E+02
     -2.083  0.1365E+02  0.7695E+02
     -1.975  0.1460E+02  0.7880E+02
     -1.867  0.1208E+02  0.8007E+02
     -1.759  0.1802E+02  0.8205E+02
     -1.651  0.1869E+02  0.8395E+02
     -1.543  0.1545E+02  0.8587E+02
     -1.435  0.1262E+02  0.8740E+02
     -1.327  0.1056E+02  0.8863E+02
     -1.219  0.9472E+01  0.8972E+02
     -1.112  0.7388E+01  0.9069E+02
     -1.004  0.1008E+02  0.9161E+02
     -0.896  0.1343E+02  0.9289E+02
     -0.788  0.1349E+02  0.9431E+02
     -0.680  0.1081E+02  0.9588E+02
     -0.572  0.9599E+01  0.9691E+02
     -0.464  0.1085E+02  0.9801E+02
     -0.356  0.1030E+02  0.9914E+02
     -0.248  0.1098E+02  0.1003E+03
     -0.140  0.9623E+01  0.1014E+03
     -0.032  0.9226E+01  0.1024E+03
      0.076  0.9580E+01  0.1035E+03
      0.184  0.9746E+01  0.1046E+03
      0.292  0.9372E+01  0.1056E+03
      0.400  0.9196E+01  0.1066E+03
      0.508  0.9391E+01  0.1076E+03
      0.616  0.9430E+01  0.1086E+03
      0.724  0.9294E+01  0.1096E+03
      0.832  0.9416E+01  0.1106E+03
      0.940  0.9039E+01  0.1116E+03
      1.048  0.9432E+01  0.1126E+03
      1.156  0.9593E+01  0.1136E+03
      1.264  0.1005E+02  0.1147E+03
      1.372  0.9993E+01  0.1157E+03
      1.480  0.8217E+01  0.1168E+03
      1.588  0.6669E+01  0.1175E+03
      1.696  0.6113E+01  0.1182E+03
      1.804  0.5144E+01  0.1188E+03
      1.912  0.3963E+01  0.1193E+03
      2.020  0.3917E+01  0.1197E+03
      2.128  0.5770E+01  0.1202E+03
      2.236  0.8333E+01  0.1210E+03
      2.344  0.6908E+01  0.1220E+03
      2.452  0.1019E+02  0.1227E+03
      2.560  0.7150E+01  0.1236E+03
      2.668  0.5445E+01  0.1243E+03
      2.776  0.4563E+01  0.1248E+03
      2.884  0.3863E+01  0.1253E+03
      2.992  0.3333E+01  0.1257E+03
      3.100  0.3161E+01  0.1260E+03
      3.208  0.2961E+01  0.1264E+03
      3.316  0.2532E+01  0.1267E+03
      3.424  0.2153E+01  0.1269E+03
      3.532  0.1896E+01  0.1271E+03
      3.640  0.1662E+01  0.1273E+03
      3.748  0.1423E+01  0.1275E+03
      3.856  0.1188E+01  0.1276E+03
      3.964  0.9623E+00  0.1277E+03
      4.071  0.7544E+00  0.1278E+03
      4.179  0.5509E+00  0.1279E+03
      4.287  0.3619E+00  0.1280E+03
      4.395  0.1853E+00  0.1280E+03
      4.503  0.1919E-01  0.1280E+03
      4.611  0.9113E-01  0.1280E+03
      4.719  0.2216E+00  0.1280E+03
      4.827  0.3650E+00  0.1281E+03
      4.935  0.5252E+00  0.1281E+03
      5.043  0.7063E+00  0.1282E+03
      5.151  0.9250E+00  0.1283E+03
      5.259  0.1268E+01  0.1284E+03
      5.367  0.1636E+01  0.1285E+03
      5.475  0.1988E+01  0.1287E+03
      5.583  0.2352E+01  0.1290E+03
      5.691  0.2979E+01  0.1292E+03
      5.799  0.3108E+01  0.1296E+03
      5.907  0.4054E+01  0.1300E+03
      6.015  0.6108E+01  0.1305E+03
      6.123  0.9710E+01  0.1315E+03
      6.231  0.8444E+01  0.1324E+03
      6.339  0.7846E+01  0.1333E+03
      6.447  0.8533E+01  0.1342E+03
      6.555  0.6464E+01  0.1349E+03
      6.663  0.6102E+01  0.1356E+03
      6.771  0.5867E+01  0.1363E+03
      6.879  0.5165E+01  0.1369E+03
      6.987  0.4617E+01  0.1374E+03
      7.095  0.3810E+01  0.1378E+03
      7.203  0.3560E+01  0.1382E+03
      7.311  0.3711E+01  0.1386E+03
      7.419  0.4238E+01  0.1391E+03
      7.527  0.4592E+01  0.1395E+03
      7.635  0.4734E+01  0.1401E+03
      7.743  0.4566E+01  0.1406E+03
      7.851  0.4417E+01  0.1410E+03
      7.959  0.4258E+01  0.1415E+03
      8.067  0.4101E+01  0.1420E+03
      8.175  0.3921E+01  0.1424E+03
      8.283  0.3770E+01  0.1428E+03
      8.391  0.3631E+01  0.1432E+03
      8.499  0.3539E+01  0.1436E+03
      8.607  0.3472E+01  0.1440E+03
      8.715  0.3393E+01  0.1443E+03
      8.823  0.3614E+01  0.1447E+03
      8.931  0.3784E+01  0.1451E+03
      9.039  0.3924E+01  0.1455E+03
      9.147  0.4092E+01  0.1460E+03
      9.255  0.4172E+01  0.1464E+03
      9.362  0.4268E+01  0.1469E+03
      9.470  0.4026E+01  0.1473E+03
      9.578  0.3983E+01  0.1477E+03
      9.686  0.3961E+01  0.1482E+03
      9.794  0.3968E+01  0.1486E+03
      9.902  0.3985E+01  0.1490E+03
     10.010  0.4054E+01  0.1495E+03
     10.118  0.4142E+01  0.1499E+03
     10.226  0.4298E+01  0.1504E+03
     10.334  0.4349E+01  0.1508E+03
     10.442  0.4826E+01  0.1513E+03
     10.550  0.5927E+01  0.1519E+03
     10.658  0.5261E+01  0.1525E+03
     10.766  0.4577E+01  0.1530E+03
     10.874  0.4654E+01  0.1535E+03
     10.982  0.4449E+01  0.1541E+03
     11.090  0.3433E+01  0.1545E+03
     11.198  0.3845E+01  0.1549E+03
     11.306  0.3963E+01  0.1553E+03
     11.414  0.3456E+01  0.1557E+03
     11.522  0.2366E+01  0.1560E+03
     11.630  0.2935E+01  0.1563E+03
     11.738  0.4260E+01  0.1567E+03
     11.846  0.6056E+01  0.1573E+03
     11.954  0.7485E+01  0.1580E+03
     12.062  0.9385E+01  0.1589E+03
     12.170  0.1132E+02  0.1600E+03
     12.278  0.1070E+02  0.1612E+03
     12.386  0.8882E+01  0.1623E+03
     12.494  0.5490E+01  0.1631E+03
     12.602  0.2821E+01  0.1635E+03
     12.710  0.1409E+01  0.1637E+03
     12.818  0.8868E+00  0.1639E+03
     12.926  0.5089E+00  0.1639E+03
     13.034  0.2400E+00  0.1640E+03
     13.142  0.7698E-01  0.1640E+03
     13.250  0.3555E-02  0.1640E+03
     13.358  0.0000E+00  0.1640E+03
     13.466  0.0000E+00  0.1640E+03
     13.574  0.0000E+00  0.1640E+03
     13.682  0.0000E+00  0.1640E+03
     13.790  0.0000E+00  0.1640E+03
     13.898  0.0000E+00  0.1640E+03
     14.006  0.0000E+00  0.1640E+03
     14.114  0.0000E+00  0.1640E+03
     14.222  0.0000E+00  0.1640E+03
     14.330  0.0000E+00  0.1640E+03
     14.438  0.0000E+00  0.1640E+03
     14.545  0.0000E+00  0.1640E+03
     14.653  0.0000E+00  0.1640E+03
     14.761  0.0000E+00  0.1640E+03
     14.869  0.0000E+00  0.1640E+03
     14.977  0.0000E+00  0.1640E+03
     15.085  0.0000E+00  0.1640E+03
     15.193  0.0000E+00  0.1640E+03
     15.301  0.0000E+00  0.1640E+03
