  32  32   0   0
  0.8992511E+01  0.4932875E-09  0.4932875E-09  0.1366141E-08  0.5000000E-15
  1.000000000000000E-004
  CAR 
 graphite                                
     15.33751099    -17.09238789  301      4.52036621      1.00000000
    -17.092  0.0000E+00  0.0000E+00
    -16.984  0.0000E+00  0.0000E+00
    -16.876  0.0000E+00  0.0000E+00
    -16.768  0.0000E+00  0.0000E+00
    -16.660  0.0000E+00  0.0000E+00
    -16.552  0.0000E+00  0.0000E+00
    -16.444  0.0000E+00  0.0000E+00
    -16.336  0.0000E+00  0.0000E+00
    -16.228  0.0000E+00  0.0000E+00
    -16.119  0.0000E+00  0.0000E+00
    -16.011  0.0000E+00  0.0000E+00
    -15.903  0.0000E+00  0.0000E+00
    -15.795  0.0000E+00  0.0000E+00
    -15.687  0.0000E+00  0.0000E+00
    -15.579  0.0000E+00  0.0000E+00
    -15.471  0.0000E+00  0.0000E+00
    -15.363  0.0000E+00  0.0000E+00
    -15.255  0.0000E+00  0.0000E+00
    -15.147  0.0000E+00  0.0000E+00
    -15.038  0.1153E+01  0.2400E-01
    -14.930  0.2591E+01  0.2375E+00
    -14.822  0.4471E+01  0.6087E+00
    -14.714  0.4832E+01  0.1132E+01
    -14.606  0.4993E+01  0.1668E+01
    -14.498  0.4918E+01  0.2200E+01
    -14.390  0.4950E+01  0.2734E+01
    -14.282  0.4908E+01  0.3266E+01
    -14.174  0.4987E+01  0.3801E+01
    -14.066  0.4984E+01  0.4340E+01
    -13.957  0.4991E+01  0.4880E+01
    -13.849  0.5640E+01  0.5449E+01
    -13.741  0.5919E+01  0.6077E+01
    -13.633  0.6732E+01  0.6788E+01
    -13.525  0.4632E+01  0.7377E+01
    -13.417  0.1768E+01  0.7729E+01
    -13.309  0.3430E+01  0.7979E+01
    -13.201  0.4307E+01  0.8430E+01
    -13.093  0.4596E+01  0.8915E+01
    -12.985  0.6014E+01  0.9661E+01
    -12.877  0.6663E+01  0.1037E+02
    -12.768  0.4353E+01  0.1091E+02
    -12.660  0.4520E+01  0.1139E+02
    -12.552  0.4648E+01  0.1188E+02
    -12.444  0.4763E+01  0.1239E+02
    -12.336  0.5163E+01  0.1293E+02
    -12.228  0.5567E+01  0.1350E+02
    -12.120  0.5623E+01  0.1414E+02
    -12.012  0.5532E+01  0.1473E+02
    -11.904  0.5139E+01  0.1530E+02
    -11.796  0.4923E+01  0.1585E+02
    -11.687  0.4918E+01  0.1637E+02
    -11.579  0.5013E+01  0.1691E+02
    -11.471  0.5071E+01  0.1746E+02
    -11.363  0.5185E+01  0.1801E+02
    -11.255  0.5494E+01  0.1859E+02
    -11.147  0.5889E+01  0.1920E+02
    -11.039  0.5775E+01  0.1983E+02
    -10.931  0.5723E+01  0.2045E+02
    -10.823  0.5785E+01  0.2107E+02
    -10.715  0.5351E+01  0.2169E+02
    -10.606  0.4570E+01  0.2221E+02
    -10.498  0.5178E+01  0.2274E+02
    -10.390  0.5341E+01  0.2332E+02
    -10.282  0.5439E+01  0.2390E+02
    -10.174  0.5638E+01  0.2450E+02
    -10.066  0.5883E+01  0.2512E+02
     -9.958  0.7288E+01  0.2581E+02
     -9.850  0.1053E+02  0.2676E+02
     -9.742  0.7143E+01  0.2772E+02
     -9.634  0.5927E+01  0.2837E+02
     -9.525  0.6104E+01  0.2908E+02
     -9.417  0.3634E+01  0.2961E+02
     -9.309  0.3265E+01  0.2999E+02
     -9.201  0.2895E+01  0.3032E+02
     -9.093  0.2526E+01  0.3061E+02
     -8.985  0.2362E+01  0.3087E+02
     -8.877  0.3230E+01  0.3119E+02
     -8.769  0.2035E+01  0.3147E+02
     -8.661  0.1545E+01  0.3163E+02
     -8.553  0.2436E+01  0.3184E+02
     -8.444  0.6072E+01  0.3223E+02
     -8.336  0.4477E+01  0.3299E+02
     -8.228  0.3882E+01  0.3344E+02
     -8.120  0.4208E+01  0.3387E+02
     -8.012  0.6899E+01  0.3448E+02
     -7.904  0.6153E+01  0.3526E+02
     -7.796  0.7221E+01  0.3598E+02
     -7.688  0.8313E+01  0.3682E+02
     -7.580  0.8385E+01  0.3777E+02
     -7.472  0.6318E+01  0.3854E+02
     -7.363  0.6058E+01  0.3921E+02
     -7.255  0.5800E+01  0.3985E+02
     -7.147  0.5564E+01  0.4046E+02
     -7.039  0.5370E+01  0.4105E+02
     -6.931  0.5190E+01  0.4163E+02
     -6.823  0.4998E+01  0.4218E+02
     -6.715  0.4853E+01  0.4271E+02
     -6.607  0.4825E+01  0.4323E+02
     -6.499  0.4795E+01  0.4375E+02
     -6.391  0.4659E+01  0.4426E+02
     -6.282  0.4430E+01  0.4476E+02
     -6.174  0.4377E+01  0.4523E+02
     -6.066  0.4034E+01  0.4564E+02
     -5.958  0.4231E+01  0.4608E+02
     -5.850  0.4859E+01  0.4658E+02
     -5.742  0.5651E+01  0.4714E+02
     -5.634  0.6442E+01  0.4780E+02
     -5.526  0.9901E+01  0.4866E+02
     -5.418  0.8889E+01  0.4974E+02
     -5.310  0.6609E+01  0.5058E+02
     -5.201  0.4330E+01  0.5117E+02
     -5.093  0.2646E+01  0.5152E+02
     -4.985  0.2924E+01  0.5182E+02
     -4.877  0.4120E+01  0.5219E+02
     -4.769  0.5448E+01  0.5271E+02
     -4.661  0.6984E+01  0.5338E+02
     -4.553  0.8124E+01  0.5422E+02
     -4.445  0.6983E+01  0.5504E+02
     -4.337  0.5743E+01  0.5573E+02
     -4.229  0.6637E+01  0.5635E+02
     -4.120  0.7351E+01  0.5716E+02
     -4.012  0.6834E+01  0.5793E+02
     -3.904  0.6316E+01  0.5864E+02
     -3.796  0.6446E+01  0.5932E+02
     -3.688  0.6818E+01  0.6000E+02
     -3.580  0.1232E+02  0.6108E+02
     -3.472  0.8916E+01  0.6220E+02
     -3.364  0.7974E+01  0.6312E+02
     -3.256  0.7237E+01  0.6394E+02
     -3.148  0.6779E+01  0.6468E+02
     -3.039  0.7486E+01  0.6545E+02
     -2.931  0.8546E+01  0.6631E+02
     -2.823  0.1018E+02  0.6731E+02
     -2.715  0.1432E+02  0.6863E+02
     -2.607  0.1274E+02  0.7017E+02
     -2.499  0.1169E+02  0.7145E+02
     -2.391  0.1279E+02  0.7280E+02
     -2.283  0.1388E+02  0.7416E+02
     -2.175  0.1393E+02  0.7573E+02
     -2.067  0.1498E+02  0.7718E+02
     -1.958  0.1296E+02  0.7903E+02
     -1.850  0.1313E+02  0.8028E+02
     -1.742  0.1624E+02  0.8234E+02
     -1.634  0.1843E+02  0.8426E+02
     -1.526  0.1511E+02  0.8614E+02
     -1.418  0.1212E+02  0.8762E+02
     -1.310  0.1038E+02  0.8882E+02
     -1.202  0.9115E+01  0.8989E+02
     -1.094  0.7637E+01  0.9082E+02
     -0.986  0.1066E+02  0.9179E+02
     -0.877  0.1319E+02  0.9313E+02
     -0.769  0.1549E+02  0.9456E+02
     -0.661  0.9360E+01  0.9607E+02
     -0.553  0.9702E+01  0.9709E+02
     -0.445  0.1086E+02  0.9821E+02
     -0.337  0.1040E+02  0.9933E+02
     -0.229  0.1111E+02  0.1005E+03
     -0.121  0.9487E+01  0.1016E+03
     -0.013  0.9238E+01  0.1026E+03
      0.095  0.9594E+01  0.1037E+03
      0.204  0.9715E+01  0.1047E+03
      0.312  0.9302E+01  0.1058E+03
      0.420  0.9213E+01  0.1068E+03
      0.528  0.9481E+01  0.1078E+03
      0.636  0.9418E+01  0.1088E+03
      0.744  0.9272E+01  0.1098E+03
      0.852  0.9323E+01  0.1108E+03
      0.960  0.9071E+01  0.1118E+03
      1.068  0.9464E+01  0.1128E+03
      1.176  0.9622E+01  0.1138E+03
      1.285  0.9856E+01  0.1149E+03
      1.393  0.1020E+02  0.1159E+03
      1.501  0.7570E+01  0.1169E+03
      1.609  0.6665E+01  0.1177E+03
      1.717  0.6128E+01  0.1183E+03
      1.825  0.4933E+01  0.1189E+03
      1.933  0.3818E+01  0.1194E+03
      2.041  0.3961E+01  0.1198E+03
      2.149  0.6511E+01  0.1204E+03
      2.257  0.8592E+01  0.1212E+03
      2.366  0.5527E+01  0.1221E+03
      2.474  0.9068E+01  0.1229E+03
      2.582  0.6725E+01  0.1238E+03
      2.690  0.5224E+01  0.1244E+03
      2.798  0.4406E+01  0.1249E+03
      2.906  0.3746E+01  0.1254E+03
      3.014  0.3284E+01  0.1258E+03
      3.122  0.3131E+01  0.1261E+03
      3.230  0.2852E+01  0.1264E+03
      3.338  0.2448E+01  0.1267E+03
      3.447  0.2083E+01  0.1270E+03
      3.555  0.1847E+01  0.1272E+03
      3.663  0.1611E+01  0.1274E+03
      3.771  0.1371E+01  0.1275E+03
      3.879  0.1137E+01  0.1277E+03
      3.987  0.9279E+00  0.1278E+03
      4.095  0.7083E+00  0.1279E+03
      4.203  0.5082E+00  0.1279E+03
      4.311  0.3220E+00  0.1280E+03
      4.419  0.1475E+00  0.1280E+03
      4.528  0.8914E-03  0.1280E+03
      4.636  0.1194E+00  0.1280E+03
      4.744  0.2526E+00  0.1280E+03
      4.852  0.3998E+00  0.1281E+03
      4.960  0.5641E+00  0.1281E+03
      5.068  0.7523E+00  0.1282E+03
      5.176  0.9865E+00  0.1283E+03
      5.284  0.1349E+01  0.1284E+03
      5.392  0.1726E+01  0.1286E+03
      5.500  0.2067E+01  0.1288E+03
      5.609  0.2446E+01  0.1290E+03
      5.717  0.3112E+01  0.1293E+03
      5.825  0.3332E+01  0.1296E+03
      5.933  0.4278E+01  0.1301E+03
      6.041  0.6515E+01  0.1307E+03
      6.149  0.8051E+01  0.1317E+03
      6.257  0.8375E+01  0.1326E+03
      6.365  0.8015E+01  0.1335E+03
      6.473  0.7667E+01  0.1344E+03
      6.581  0.6384E+01  0.1351E+03
      6.690  0.6119E+01  0.1358E+03
      6.798  0.5626E+01  0.1364E+03
      6.906  0.4990E+01  0.1370E+03
      7.014  0.4457E+01  0.1375E+03
      7.122  0.3703E+01  0.1379E+03
      7.230  0.3573E+01  0.1383E+03
      7.338  0.3849E+01  0.1387E+03
      7.446  0.4372E+01  0.1392E+03
      7.554  0.4651E+01  0.1397E+03
      7.662  0.4689E+01  0.1402E+03
      7.771  0.4527E+01  0.1407E+03
      7.879  0.4375E+01  0.1412E+03
      7.987  0.4218E+01  0.1416E+03
      8.095  0.4055E+01  0.1421E+03
      8.203  0.3874E+01  0.1425E+03
      8.311  0.3726E+01  0.1429E+03
      8.419  0.3604E+01  0.1433E+03
      8.527  0.3522E+01  0.1437E+03
      8.635  0.3447E+01  0.1441E+03
      8.743  0.3438E+01  0.1444E+03
      8.852  0.3674E+01  0.1448E+03
      8.960  0.3797E+01  0.1452E+03
      9.068  0.3964E+01  0.1456E+03
      9.176  0.4108E+01  0.1461E+03
      9.284  0.4199E+01  0.1465E+03
      9.392  0.4149E+01  0.1470E+03
      9.500  0.4002E+01  0.1474E+03
      9.608  0.3983E+01  0.1479E+03
      9.716  0.3956E+01  0.1483E+03
      9.824  0.3976E+01  0.1487E+03
      9.933  0.4002E+01  0.1492E+03
     10.041  0.4078E+01  0.1496E+03
     10.149  0.4193E+01  0.1500E+03
     10.257  0.4326E+01  0.1505E+03
     10.365  0.4349E+01  0.1510E+03
     10.473  0.5253E+01  0.1515E+03
     10.581  0.5592E+01  0.1521E+03
     10.689  0.5598E+01  0.1527E+03
     10.797  0.4577E+01  0.1532E+03
     10.905  0.4431E+01  0.1537E+03
     11.014  0.4228E+01  0.1542E+03
     11.122  0.3555E+01  0.1546E+03
     11.230  0.3970E+01  0.1550E+03
     11.338  0.4134E+01  0.1555E+03
     11.446  0.3071E+01  0.1559E+03
     11.554  0.2665E+01  0.1561E+03
     11.662  0.3474E+01  0.1565E+03
     11.770  0.5548E+01  0.1569E+03
     11.878  0.6622E+01  0.1576E+03
     11.986  0.1001E+02  0.1585E+03
     12.095  0.1248E+02  0.1597E+03
     12.203  0.1375E+02  0.1612E+03
     12.311  0.1374E+02  0.1627E+03
     12.419  0.1093E+02  0.1640E+03
     12.527  0.8354E+01  0.1651E+03
     12.635  0.6567E+01  0.1659E+03
     12.743  0.5506E+01  0.1665E+03
     12.851  0.5269E+01  0.1671E+03
     12.959  0.3021E+01  0.1676E+03
     13.067  0.1766E+01  0.1678E+03
     13.176  0.7194E+00  0.1680E+03
     13.284  0.5389E-01  0.1680E+03
     13.392  0.0000E+00  0.1680E+03
     13.500  0.0000E+00  0.1680E+03
     13.608  0.0000E+00  0.1680E+03
     13.716  0.0000E+00  0.1680E+03
     13.824  0.0000E+00  0.1680E+03
     13.932  0.0000E+00  0.1680E+03
     14.040  0.0000E+00  0.1680E+03
     14.148  0.0000E+00  0.1680E+03
     14.257  0.0000E+00  0.1680E+03
     14.365  0.0000E+00  0.1680E+03
     14.473  0.0000E+00  0.1680E+03
     14.581  0.0000E+00  0.1680E+03
     14.689  0.0000E+00  0.1680E+03
     14.797  0.0000E+00  0.1680E+03
     14.905  0.0000E+00  0.1680E+03
     15.013  0.0000E+00  0.1680E+03
     15.121  0.0000E+00  0.1680E+03
     15.229  0.0000E+00  0.1680E+03
     15.338  0.0000E+00  0.1680E+03
