   32   32    1    1
  0.8817899E+01  0.4932875E-09  0.4932875E-09  0.1339614E-08  0.5000000E-15
  1.000000000000000E-004
  CAR 
 graphite                                
    128    163     82
 
  0.0000000E+00  0.0000000E+00  0.0000000E+00  0.3086420E-02
    1      -14.940324
    2      -14.793607
    3      -14.793150
    4      -14.636117
    5       -9.616553
    6       -9.606071
    7       -9.603725
    8       -9.556197
    9       -9.554377
   10       -9.544220
   11       -9.542665
   12       -9.542621
   13       -9.538843
   14       -9.504458
   15       -9.491652
   16       -9.488420
   17       -8.537567
   18       -8.535787
   19       -8.534143
   20       -8.505545
   21       -8.504607
   22       -8.502635
   23       -8.502053
   24       -8.501999
   25       -8.499539
   26       -8.450927
   27       -8.450488
   28       -8.448498
   29       -3.814916
   30       -2.921460
   31       -2.919764
   32       -1.831807
   33       -1.709827
   34       -1.707500
   35       -1.691943
   36       -1.681931
   37       -1.680910
   38       -1.680902
   39       -1.677035
   40       -1.664374
   41       -1.662224
   42       -1.652864
   43       -1.650090
   44       -1.634784
   45        1.687847
   46        1.695022
   47        1.696153
   48        1.701402
   49        1.707288
   50        1.712256
   51        1.713410
   52        1.720361
   53        1.926599
   54        1.929093
   55        1.930616
   56        2.331971
   57        2.335398
   58        2.342228
   59        2.342662
   60        2.342909
   61        2.347354
   62        2.608304
   63        2.626539
   64        2.629176
   65        6.205576
   66        6.208765
   67        6.215374
   68        6.345859
   69        6.347829
   70        6.350152
   71        6.352379
   72        6.352592
   73        6.355166
   74        6.880179
   75        6.887405
   76        6.889893
   77        9.012178
   78       11.661209
   79       11.665103
   80       11.893513
   81       12.053061
   82       12.087938
 
  0.1111111E+00 -0.1387779E-16  0.0000000E+00  0.6172840E-02
    1      -14.866659
    2      -14.720493
    3      -14.720038
    4      -14.563746
    5      -10.403783
    6      -10.299049
    7      -10.298559
    8      -10.189660
    9       -9.865373
   10       -9.856533
   11       -9.775578
   12       -9.774528
   13       -9.765774
   14       -9.765010
   15       -9.684138
   16       -9.673993
   17       -8.234932
   18       -8.230929
   19       -8.164294
   20       -8.162196
   21       -8.158864
   22       -8.158003
   23       -8.082879
   24       -8.078093
   25       -7.720600
   26       -7.639041
   27       -7.637363
   28       -7.551421
   29       -3.725436
   30       -2.834375
   31       -2.832682
   32       -1.936130
   33       -1.919114
   34       -1.904713
   35       -1.904591
   36       -1.888454
   37       -1.886363
   38       -1.872803
   39       -1.855661
   40       -1.748187
   41       -1.635435
   42       -1.608572
   43       -1.605800
   44       -1.578847
   45        1.335855
   46        1.392920
   47        1.405684
   48        1.409869
   49        1.421470
   50        1.533474
   51        1.543933
   52        1.548417
   53        1.560388
   54        1.808639
   55        1.812520
   56        1.915554
   57        1.918394
   58        2.280526
   59        2.283835
   60        2.290163
   61        2.291663
   62        2.487200
   63        2.664280
   64        2.680329
   65        6.282345
   66        6.287404
   67        6.477773
   68        6.481064
   69        6.483355
   70        6.486168
   71        6.567606
   72        6.889787
   73        6.893665
   74        7.015899
   75        7.023918
   76        7.487596
   77        9.100879
   78       11.737440
   79       11.741274
   80       11.931553
   81       12.132395
   82       12.251136
 
  0.2222222E+00 -0.2775558E-16  0.0000000E+00  0.6172840E-02
    1      -14.645881
    2      -14.501591
    3      -14.501146
    4      -14.346990
    5      -11.415940
    6      -11.299206
    7      -11.298838
    8      -11.176215
    9      -10.212601
   10      -10.206672
   11      -10.110181
   12      -10.109520
   13      -10.103874
   14      -10.103021
   15      -10.002741
   16       -9.996343
   17       -7.555279
   18       -7.547998
   19       -7.476639
   20       -7.474678
   21       -7.468434
   22       -7.467713
   23       -7.391585
   24       -7.384107
   25       -6.394497
   26       -6.318240
   27       -6.316648
   28       -6.237443
   29       -3.457864
   30       -2.574214
   31       -2.572530
   32       -2.543510
   33       -2.527451
   34       -2.505094
   35       -2.504935
   36       -2.489787
   37       -2.487761
   38       -2.465320
   39       -2.449184
   40       -1.498536
   41       -1.420172
   42       -1.394001
   43       -1.391146
   44       -1.364760
   45        0.313734
   46        0.566709
   47        0.587209
   48        0.591343
   49        0.611743
   50        1.025655
   51        1.027872
   52        1.112773
   53        1.127716
   54        1.132247
   55        1.147935
   56        1.585721
   57        1.589876
   58        1.834403
   59        2.159691
   60        2.162830
   61        2.167627
   62        2.169013
   63        2.727301
   64        2.738736
   65        6.524522
   66        6.526736
   67        6.812397
   68        6.815206
   69        6.818060
   70        6.820927
   71        7.323977
   72        7.329467
   73        7.693083
   74        8.113339
   75        8.116507
   76        8.699877
   77        9.367691
   78       11.964831
   79       11.968347
   80       12.048525
   81       12.234534
   82       12.343037
 
  0.3333333E+00  0.2775558E-16  0.0000000E+00  0.6172840E-02
    1      -14.279154
    2      -14.137970
    3      -14.137541
    4      -13.986940
    5      -12.329452
    6      -12.204780
    7      -12.204404
    8      -12.072346
    9      -10.469026
   10      -10.465341
   11      -10.361920
   12      -10.361234
   13      -10.358016
   14      -10.356942
   15      -10.249073
   16      -10.245202
   17       -6.746849
   18       -6.737861
   19       -6.674449
   20       -6.672394
   21       -6.664818
   22       -6.663796
   23       -6.597136
   24       -6.588253
   25       -4.960131
   26       -4.894185
   27       -4.892352
   28       -4.824254
   29       -3.359808
   30       -3.345841
   31       -3.314783
   32       -3.314265
   33       -3.301391
   34       -3.299260
   35       -3.267425
   36       -3.253290
   37       -3.014762
   38       -2.144125
   39       -2.142448
   40       -1.086915
   41       -1.070915
   42       -1.045956
   43       -1.042932
   44       -1.017306
   45       -0.709247
   46       -0.618767
   47       -0.587499
   48       -0.584167
   49       -0.552794
   50        0.071787
   51        0.073688
   52        0.549193
   53        0.567948
   54        0.572123
   55        0.591492
   56        0.993892
   57        1.393212
   58        1.396471
   59        2.036076
   60        2.039180
   61        2.042060
   62        2.043302
   63        2.738137
   64        2.745109
   65        6.877755
   66        6.880692
   67        7.204275
   68        7.206369
   69        7.208957
   70        7.212304
   71        7.630050
   72        7.633447
   73        9.199542
   74        9.591818
   75        9.594878
   76        9.812842
   77       10.106576
   78       12.070002
   79       12.316493
   80       12.320632
   81       12.383953
   82       12.402268
 
  0.4444444E+00 -0.5551115E-16  0.0000000E+00  0.6172840E-02
    1      -13.768443
    2      -13.631575
    3      -13.631170
    4      -13.485488
    5      -13.116811
    6      -12.985438
    7      -12.985034
    8      -12.845564
    9      -10.600998
   10      -10.598981
   11      -10.492419
   12      -10.491332
   13      -10.490280
   14      -10.488715
   15      -10.377173
   16      -10.375076
   17       -5.994875
   18       -5.988031
   19       -5.942616
   20       -5.940342
   21       -5.935855
   22       -5.933438
   23       -5.888180
   24       -5.882007
   25       -4.107961
   26       -4.100277
   27       -4.071639
   28       -4.069810
   29       -4.063725
   30       -4.061256
   31       -4.028800
   32       -4.020362
   33       -3.478587
   34       -3.424257
   35       -3.422042
   36       -3.366022
   37       -2.401256
   38       -2.005689
   39       -1.963515
   40       -1.960706
   41       -1.916567
   42       -1.626797
   43       -1.549586
   44       -1.547764
   45       -0.803954
   46       -0.802179
   47       -0.604428
   48       -0.580610
   49       -0.577346
   50       -0.553171
   51       -0.521195
   52       -0.048550
   53       -0.026775
   54       -0.022979
   55       -0.000769
   56        0.182923
   57        1.286979
   58        1.289159
   59        1.961839
   60        1.965245
   61        1.966259
   62        1.967484
   63        2.728442
   64        2.731690
   65        7.161168
   66        7.163920
   67        7.472325
   68        7.473502
   69        7.474688
   70        7.479068
   71        7.799013
   72        7.801820
   73       10.433058
   74       10.825176
   75       11.131051
   76       11.134849
   77       11.220413
   78       11.560784
   79       12.424374
   80       12.471770
   81       12.518027
   82       12.601469
 
 -0.6776264E-20  0.1111111E+00  0.0000000E+00  0.6172840E-02
    1      -14.866657
    2      -14.720492
    3      -14.720036
    4      -14.563744
    5      -10.403887
    6      -10.299095
    7      -10.298762
    8      -10.189809
    9       -9.865381
   10       -9.856202
   11       -9.775515
   12       -9.774532
   13       -9.765767
   14       -9.764314
   15       -9.684100
   16       -9.673604
   17       -8.235281
   18       -8.231969
   19       -8.164317
   20       -8.163745
   21       -8.159012
   22       -8.158750
   23       -8.083186
   24       -8.078885
   25       -7.719573
   26       -7.637415
   27       -7.637035
   28       -7.550483
   29       -3.725440
   30       -2.834380
   31       -2.832688
   32       -1.934914
   33       -1.919004
   34       -1.904683
   35       -1.902106
   36       -1.888585
   37       -1.886363
   38       -1.871534
   39       -1.855740
   40       -1.748194
   41       -1.636532
   42       -1.608580
   43       -1.608255
   44       -1.580262
   45        1.335168
   46        1.396863
   47        1.409870
   48        1.410228
   49        1.423164
   50        1.531829
   51        1.543916
   52        1.543998
   53        1.556068
   54        1.808754
   55        1.813429
   56        1.915141
   57        1.916845
   58        2.280944
   59        2.283789
   60        2.290360
   61        2.293630
   62        2.485919
   63        2.664377
   64        2.681706
   65        6.280341
   66        6.287191
   67        6.477423
   68        6.479445
   69        6.482724
   70        6.484538
   71        6.569709
   72        6.892580
   73        6.894393
   74        7.015701
   75        7.022101
   76        7.489237
   77        9.100873
   78       11.737408
   79       11.741238
   80       11.931013
   81       12.128263
   82       12.255860
 
  0.1111111E+00  0.1111111E+00  0.0000000E+00  0.6172840E-02
    1      -14.719330
    2      -14.574396
    3      -14.573948
    4      -14.419069
    5      -10.869696
    6      -10.866687
    7      -10.759818
    8      -10.757028
    9      -10.757002
   10      -10.753745
   11      -10.641632
   12      -10.638548
   13       -9.427287
   14       -9.367642
   15       -9.366368
   16       -9.317262
   17       -8.350862
   18       -8.321754
   19       -8.318301
   20       -8.270037
   21       -7.037221
   22       -7.033893
   23       -6.958834
   24       -6.954971
   25       -6.954947
   26       -6.952319
   27       -6.873000
   28       -6.869769
   29       -3.546805
   30       -2.660680
   31       -2.658990
   32       -2.602891
   33       -2.564806
   34       -2.562696
   35       -2.523886
   36       -1.791387
   37       -1.788951
   38       -1.761088
   39       -1.759830
   40       -1.759822
   41       -1.755779
   42       -1.729190
   43       -1.726188
   44       -1.581489
   45        0.862736
   46        0.875869
   47        0.880907
   48        0.891355
   49        0.900587
   50        0.901655
   51        1.219514
   52        1.228013
   53        1.232552
   54        1.243980
   55        1.554993
   56        1.556905
   57        1.556949
   58        1.560626
   59        2.193727
   60        2.267100
   61        2.269640
   62        2.598562
   63        2.601502
   64        2.869415
   65        6.198303
   66        6.273926
   67        6.278671
   68        6.704645
   69        7.046466
   70        7.049353
   71        7.432001
   72        7.436308
   73        7.436579
   74        7.438149
   75        8.014478
   76        8.017060
   77        9.278974
   78       11.890861
   79       11.894743
   80       12.303966
   81       12.424376
   82       12.501200
 
  0.2222222E+00  0.1111111E+00  0.0000000E+00  0.6172840E-02
    1      -14.425480
    2      -14.283026
    3      -14.282592
    4      -14.130580
    5      -11.835702
    6      -11.715388
    7      -11.715020
    8      -11.588090
    9      -11.210770
   10      -11.096145
   11      -11.095708
   12      -10.974989
   13       -9.479264
   14       -9.392669
   15       -9.392037
   16       -9.305068
   17       -7.887499
   18       -7.821939
   19       -7.819082
   20       -7.745959
   21       -6.250467
   22       -6.177072
   23       -6.176537
   24       -6.100393
   25       -5.653381
   26       -5.582907
   27       -5.581315
   28       -5.508409
   29       -3.511717
   30       -3.465302
   31       -3.463254
   32       -3.415397
   33       -3.191327
   34       -2.318449
   35       -2.315308
   36       -2.313612
   37       -2.281191
   38       -2.280997
   39       -2.242972
   40       -1.503133
   41       -1.474444
   42       -1.471658
   43       -1.442592
   44       -1.250606
   45       -0.144557
   46       -0.090964
   47       -0.069824
   48       -0.065359
   49       -0.045187
   50        0.563078
   51        0.605053
   52        0.606990
   53        0.674695
   54        0.688490
   55        0.693658
   56        0.709285
   57        1.268125
   58        1.269749
   59        1.477145
   60        2.068890
   61        2.328292
   62        2.800951
   63        2.803784
   64        3.183205
   65        6.168944
   66        6.282673
   67        6.287147
   68        6.648997
   69        7.621706
   70        8.006246
   71        8.008153
   72        8.398541
   73        8.502331
   74        8.804927
   75        8.807664
   76        9.335070
   77        9.636050
   78       12.194558
   79       12.197938
   80       12.431155
   81       12.637051
   82       12.671301
 
  0.3333333E+00  0.1111111E+00  0.0000000E+00  0.6172840E-02
    1      -13.986645
    2      -13.847919
    3      -13.847504
    4      -13.699731
    5      -12.686798
    6      -12.559005
    7      -12.558613
    8      -12.423299
    9      -11.419842
   10      -11.303092
   11      -11.302645
   12      -11.179851
   13       -9.623472
   14       -9.526459
   15       -9.526161
   16       -9.425442
   17       -7.121968
   18       -7.055693
   19       -7.053011
   20       -6.983876
   21       -5.449502
   22       -5.389229
   23       -5.387991
   24       -5.326266
   25       -4.450339
   26       -4.402218
   27       -4.399989
   28       -4.348962
   29       -4.202921
   30       -4.143631
   31       -4.141804
   32       -4.080992
   33       -3.017948
   34       -2.978401
   35       -2.977417
   36       -2.935474
   37       -2.662656
   38       -1.803205
   39       -1.801578
   40       -1.338119
   41       -1.303656
   42       -1.299822
   43       -1.266308
   44       -1.120458
   45       -1.086507
   46       -1.059365
   47       -1.056463
   48       -1.029038
   49       -0.761335
   50       -0.318724
   51       -0.316936
   52        0.049094
   53        0.069050
   54        0.073579
   55        0.094393
   56        0.352773
   57        0.636498
   58        1.083883
   59        1.085520
   60        1.932370
   61        2.324917
   62        2.891590
   63        2.894019
   64        3.460861
   65        6.151364
   66        6.402185
   67        6.405952
   68        6.749624
   69        8.130488
   70        8.461492
   71        8.463668
   72        8.827831
   73        9.965302
   74       10.170410
   75       10.312199
   76       10.314655
   77       10.754806
   78       11.743705
   79       12.591352
   80       12.599466
   81       12.710506
   82       12.816224
 
  0.4444444E+00  0.1111111E+00  0.0000000E+00  0.6172840E-02
    1      -13.407351
    2      -13.404368
    3      -13.274616
    4      -13.272356
    5      -13.271405
    6      -13.268839
    7      -13.130879
    8      -13.127841
    9      -11.490409
   10      -11.373202
   11      -11.372746
   12      -11.249237
   13       -9.678326
   14       -9.579283
   15       -9.578973
   16       -9.475768
   17       -6.610800
   18       -6.568328
   19       -6.565832
   20       -6.525534
   21       -4.974302
   22       -4.971039
   23       -4.946406
   24       -4.944206
   25       -4.939020
   26       -4.935902
   27       -4.911729
   28       -4.902717
   29       -3.432821
   30       -3.409962
   31       -3.407101
   32       -3.379241
   33       -2.743843
   34       -2.739675
   35       -2.698146
   36       -2.693418
   37       -2.691635
   38       -2.691421
   39       -2.646042
   40       -2.642504
   41       -1.969494
   42       -1.967004
   43       -1.133855
   44       -1.131819
   45       -1.131042
   46       -1.127940
   47       -0.560026
   48       -0.555613
   49       -0.534602
   50       -0.534172
   51       -0.531969
   52       -0.525237
   53       -0.507642
   54       -0.500391
   55       -0.126626
   56       -0.123789
   57        0.280708
   58        1.020041
   59        1.021724
   60        1.883270
   61        2.313003
   62        2.915328
   63        2.917323
   64        3.565603
   65        6.156100
   66        6.469737
   67        6.472636
   68        6.804580
   69        8.350232
   70        8.638849
   71        8.641461
   72        8.928904
   73       10.877237
   74       10.878950
   75       11.560098
   76       11.563717
   77       11.802854
   78       11.808015
   79       11.808966
   80       11.811992
   81       12.166947
   82       12.170539
 
 -0.4444444E+00  0.1111111E+00  0.0000000E+00  0.6172840E-02
    1      -13.987388
    2      -13.848665
    3      -13.848241
    4      -13.700470
    5      -12.685616
    6      -12.557826
    7      -12.557443
    8      -12.422114
    9      -11.421607
   10      -11.304903
   11      -11.304452
   12      -11.181644
   13       -9.620561
   14       -9.523339
   15       -9.523001
   16       -9.422119
   17       -7.115419
   18       -7.048231
   19       -7.047296
   20       -6.977392
   21       -5.459376
   22       -5.399605
   23       -5.396851
   24       -5.335577
   25       -4.460823
   26       -4.412092
   27       -4.411552
   28       -4.359839
   29       -4.205467
   30       -4.146377
   31       -4.144191
   32       -4.083581
   33       -3.005323
   34       -2.966435
   35       -2.963644
   36       -2.922427
   37       -2.663464
   38       -1.803997
   39       -1.802386
   40       -1.336625
   41       -1.301633
   42       -1.299185
   43       -1.265090
   44       -1.119261
   45       -1.083911
   46       -1.057080
   47       -1.053723
   48       -1.026496
   49       -0.762132
   50       -0.317581
   51       -0.315740
   52        0.047599
   53        0.068042
   54        0.071099
   55        0.092179
   56        0.351040
   57        0.637620
   58        1.081712
   59        1.083477
   60        1.929571
   61        2.326455
   62        2.895565
   63        2.897293
   64        3.468779
   65        6.149644
   66        6.404005
   67        6.406185
   68        6.749930
   69        8.126473
   70        8.457475
   71        8.460540
   72        8.826366
   73        9.965298
   74       10.169312
   75       10.311073
   76       10.313838
   77       10.752997
   78       11.745333
   79       12.592152
   80       12.594630
   81       12.705684
   82       12.813997
 
 -0.3333333E+00  0.1111111E+00  0.0000000E+00  0.6172840E-02
    1      -14.426001
    2      -14.283558
    3      -14.283117
    4      -14.131101
    5      -11.834309
    6      -11.713993
    7      -11.713628
    8      -11.586698
    9      -11.214344
   10      -11.099761
   11      -11.099334
   12      -10.978634
   13       -9.472801
   14       -9.385434
   15       -9.385107
   16       -9.297210
   17       -7.883346
   18       -7.816015
   19       -7.815592
   20       -7.740864
   21       -6.260318
   22       -6.187699
   23       -6.185428
   24       -6.110030
   25       -5.655870
   26       -5.585505
   27       -5.583714
   28       -5.510932
   29       -3.525479
   30       -3.478192
   31       -3.478022
   32       -3.429268
   33       -3.191914
   34       -2.315903
   35       -2.314236
   36       -2.302377
   37       -2.266276
   38       -2.263828
   39       -2.226825
   40       -1.501176
   41       -1.472600
   42       -1.469606
   43       -1.440651
   44       -1.251189
   45       -0.143270
   46       -0.091820
   47       -0.070011
   48       -0.068266
   49       -0.047056
   50        0.559788
   51        0.606269
   52        0.608244
   53        0.676699
   54        0.691120
   55        0.693707
   56        0.709071
   57        1.263863
   58        1.265747
   59        1.478273
   60        2.063171
   61        2.330352
   62        2.808260
   63        2.809942
   64        3.197860
   65        6.163890
   66        6.285546
   67        6.287424
   68        6.652209
   69        7.617235
   70        7.999992
   71        8.003417
   72        8.398073
   73        8.498315
   74        8.803487
   75        8.806609
   76        9.333126
   77        9.635244
   78       12.193604
   79       12.196858
   80       12.429422
   81       12.636225
   82       12.639139
 
 -0.2222222E+00  0.1111111E+00  0.0000000E+00  0.6172840E-02
    1      -14.719622
    2      -14.574722
    3      -14.574269
    4      -14.419393
    5      -10.873596
    6      -10.866570
    7      -10.762623
    8      -10.762254
    9      -10.755513
   10      -10.755124
   11      -10.645778
   12      -10.638573
   13       -9.416410
   14       -9.355023
   15       -9.354753
   16       -9.303810
   17       -8.351154
   18       -8.319656
   19       -8.319398
   20       -8.268781
   21       -7.043132
   22       -7.038186
   23       -6.963925
   24       -6.961805
   25       -6.958749
   26       -6.957120
   27       -6.879052
   28       -6.874185
   29       -3.547159
   30       -2.661033
   31       -2.659347
   32       -2.618365
   33       -2.579413
   34       -2.579148
   35       -2.539450
   36       -1.788250
   37       -1.773560
   38       -1.758629
   39       -1.755831
   40       -1.743740
   41       -1.741375
   42       -1.725883
   43       -1.711295
   44       -1.581805
   45        0.857201
   46        0.870284
   47        0.870990
   48        0.883200
   49        0.896162
   50        0.902778
   51        1.227852
   52        1.237814
   53        1.237914
   54        1.248901
   55        1.549799
   56        1.551871
   57        1.557766
   58        1.560265
   59        2.195763
   60        2.258986
   61        2.269766
   62        2.607735
   63        2.609475
   64        2.887691
   65        6.191237
   66        6.277497
   67        6.279366
   68        6.711147
   69        7.046292
   70        7.046569
   71        7.428798
   72        7.432170
   73        7.432577
   74        7.435739
   75        8.010749
   76        8.013144
   77        9.278473
   78       11.890228
   79       11.893900
   80       12.310372
   81       12.493404
   82       12.511646
 
 -0.1111111E+00  0.1111111E+00  0.0000000E+00  0.6172840E-02
    1      -14.866763
    2      -14.720598
    3      -14.720140
    4      -14.563848
    5      -10.411438
    6      -10.306805
    7      -10.306499
    8      -10.197765
    9       -9.856124
   10       -9.854002
   11       -9.766095
   12       -9.764378
   13       -9.764335
   14       -9.761491
   15       -9.673874
   16       -9.671389
   17       -8.234355
   18       -8.232314
   19       -8.163321
   20       -8.160499
   21       -8.160464
   22       -8.159559
   23       -8.081364
   24       -8.079609
   25       -7.725245
   26       -7.644044
   27       -7.641814
   28       -7.556311
   29       -3.725559
   30       -2.834498
   31       -2.832807
   32       -1.936201
   33       -1.934005
   34       -1.905251
   35       -1.904288
   36       -1.904279
   37       -1.900429
   38       -1.873107
   39       -1.870380
   40       -1.748313
   41       -1.619384
   42       -1.592283
   43       -1.589988
   44       -1.562937
   45        1.329983
   46        1.386157
   47        1.397774
   48        1.402534
   49        1.415514
   50        1.539641
   51        1.551733
   52        1.556059
   53        1.566478
   54        1.812785
   55        1.814538
   56        1.907115
   57        1.909451
   58        2.289909
   59        2.290900
   60        2.291142
   61        2.295422
   62        2.473591
   63        2.679754
   64        2.682404
   65        6.279969
   66        6.283202
   67        6.478145
   68        6.483242
   69        6.483462
   70        6.484735
   71        6.570400
   72        6.886734
   73        6.890851
   74        7.020417
   75        7.022950
   76        7.482742
   77        9.100702
   78       11.737183
   79       11.741018
   80       11.964272
   81       12.228120
   82       12.270391
 
 -0.1355253E-19  0.2222222E+00  0.0000000E+00  0.6172840E-02
    1      -14.645874
    2      -14.501587
    3      -14.501136
    4      -14.346983
    5      -11.415921
    6      -11.299197
    7      -11.298816
    8      -11.176204
    9      -10.212779
   10      -10.206443
   11      -10.110609
   12      -10.109540
   13      -10.103866
   14      -10.102348
   15      -10.002846
   16       -9.996060
   17       -7.555651
   18       -7.548861
   19       -7.476656
   20       -7.475984
   21       -7.468657
   22       -7.468347
   23       -7.391874
   24       -7.384781
   25       -6.393556
   26       -6.316700
   27       -6.316357
   28       -6.236548
   29       -3.457883
   30       -2.574233
   31       -2.572551
   32       -2.542348
   33       -2.527340
   34       -2.504969
   35       -2.502634
   36       -2.489676
   37       -2.487760
   38       -2.464034
   39       -2.449138
   40       -1.498564
   41       -1.421329
   42       -1.394011
   43       -1.393740
   44       -1.366261
   45        0.313286
   46        0.569609
   47        0.591335
   48        0.591548
   49        0.613522
   50        1.025354
   51        1.027026
   52        1.111063
   53        1.127704
   54        1.127865
   55        1.144545
   56        1.585779
   57        1.590761
   58        1.833620
   59        2.160091
   60        2.162767
   61        2.167787
   62        2.170849
   63        2.727472
   64        2.739993
   65        6.522874
   66        6.526227
   67        6.811754
   68        6.813393
   69        6.817854
   70        6.819399
   71        7.323149
   72        7.328142
   73        7.694666
   74        8.115364
   75        8.117145
   76        8.701133
   77        9.367675
   78       11.964480
   79       11.968444
   80       12.047530
   81       12.233476
   82       12.361518
 
  0.1111111E+00  0.2222222E+00  0.0000000E+00  0.6172840E-02
    1      -14.425475
    2      -14.283023
    3      -14.282584
    4      -14.130574
    5      -11.835662
    6      -11.715366
    7      -11.714964
    8      -11.588052
    9      -11.210799
   10      -11.096155
   11      -11.095751
   12      -10.975012
   13       -9.479253
   14       -9.392647
   15       -9.392036
   16       -9.305056
   17       -7.887564
   18       -7.821940
   19       -7.819247
   20       -7.746062
   21       -6.251496
   22       -6.178588
   23       -6.177041
   24       -6.101390
   25       -5.652355
   26       -5.581347
   27       -5.580865
   28       -5.507419
   29       -3.511622
   30       -3.465144
   31       -3.463254
   32       -3.415330
   33       -3.191342
   34       -2.317208
   35       -2.315315
   36       -2.313634
   37       -2.281017
   38       -2.278530
   39       -2.241554
   40       -1.504390
   41       -1.474485
   42       -1.474382
   43       -1.444141
   44       -1.250628
   45       -0.144895
   46       -0.089308
   47       -0.067818
   48       -0.065357
   49       -0.044517
   50        0.563571
   51        0.604722
   52        0.606383
   53        0.674143
   54        0.688488
   55        0.691768
   56        0.707032
   57        1.268547
   58        1.270557
   59        1.476522
   60        2.069710
   61        2.328476
   62        2.801234
   63        2.803817
   64        3.183286
   65        6.169007
   66        6.282650
   67        6.286655
   68        6.648469
   69        7.620105
   70        8.004443
   71        8.007069
   72        8.399972
   73        8.500904
   74        8.806622
   75        8.808480
   76        9.336309
   77        9.636044
   78       12.194494
   79       12.197690