   32   32    1    1
  0.8992511E+01  0.4932875E-09  0.4932875E-09  0.1366141E-08  0.5000000E-15
  1.000000000000000E-004
  CAR 
 graphite                                
    128    163     82
 
  0.0000000E+00  0.0000000E+00  0.0000000E+00  0.3086420E-02
    1      -15.092466
    2      -14.966057
    3      -14.965704
    4      -14.831509
    5       -9.780308
    6       -9.769637
    7       -9.767304
    8       -9.729821
    9       -9.727892
   10       -9.717916
   11       -9.716201
   12       -9.716160
   13       -9.712644
   14       -9.684799
   15       -9.672216
   16       -9.669042
   17       -8.707433
   18       -8.705858
   19       -8.704229
   20       -8.679148
   21       -8.678106
   22       -8.676299
   23       -8.675540
   24       -8.675501
   25       -8.673277
   26       -8.633309
   27       -8.632898
   28       -8.630894
   29       -3.905059
   30       -3.093268
   31       -3.091724
   32       -2.111583
   33       -1.879807
   34       -1.877597
   35       -1.862146
   36       -1.856756
   37       -1.855767
   38       -1.855759
   39       -1.852161
   40       -1.839494
   41       -1.837070
   42       -1.832758
   43       -1.829964
   44       -1.814868
   45        1.514271
   46        1.520755
   47        1.521036
   48        1.525735
   49        1.532373
   50        1.537158
   51        1.537455
   52        1.543563
   53        1.804252
   54        1.807206
   55        1.808786
   56        2.161328
   57        2.164707
   58        2.171480
   59        2.171913
   60        2.172183
   61        2.176350
   62        2.417732
   63        2.434844
   64        2.437417
   65        6.029076
   66        6.032154
   67        6.037722
   68        6.178200
   69        6.179982
   70        6.182257
   71        6.184591
   72        6.184779
   73        6.187111
   74        6.656661
   75        6.663655
   76        6.666144
   77        8.682975
   78       11.180766
   79       11.184296
   80       11.745679
   81       11.907913
   82       11.921544
 
  0.1111111E+00  0.0000000E+00  0.0000000E+00  0.6172840E-02
    1      -15.018903
    2      -14.892992
    3      -14.892641
    4      -14.759062
    5      -10.561875
    6      -10.472346
    7      -10.472016
    8      -10.379442
    9      -10.025460
   10      -10.016569
   11       -9.949178
   12       -9.947998
   13       -9.939246
   14       -9.938677
   15       -9.871117
   16       -9.861115
   17       -8.398540
   18       -8.394421
   19       -8.337857
   20       -8.335965
   21       -8.332414
   22       -8.331761
   23       -8.269061
   24       -8.264303
   25       -7.882055
   26       -7.812787
   27       -7.810973
   28       -7.738660
   29       -3.815723
   30       -3.006276
   31       -3.004735
   32       -2.105622
   33       -2.088695
   34       -2.079634
   35       -2.079552
   36       -2.063564
   37       -2.061258
   38       -2.053131
   39       -2.036029
   40       -2.027713
   41       -1.805530
   42       -1.783403
   43       -1.780887
   44       -1.758663
   45        1.216847
   46        1.226279
   47        1.232308
   48        1.234782
   49        1.244077
   50        1.360303
   51        1.368843
   52        1.372751
   53        1.383422
   54        1.690528
   55        1.694754
   56        1.745013
   57        1.747630
   58        2.109851
   59        2.113112
   60        2.119496
   61        2.120814
   62        2.263660
   63        2.462424
   64        2.477492
   65        6.115056
   66        6.119264
   67        6.309872
   68        6.312967
   69        6.315438
   70        6.317961
   71        6.418713
   72        6.721768
   73        6.725660
   74        6.791639
   75        6.799574
   76        7.257315
   77        8.772470
   78       11.260008
   79       11.263486
   80       11.784956
   81       11.973504
   82       12.104700
 
  0.2222222E+00  0.0000000E+00  0.0000000E+00  0.6172840E-02
    1      -14.798414
    2      -14.674126
    3      -14.673780
    4      -14.542065
    5      -11.572309
    6      -11.472327
    7      -11.472039
    8      -11.367738
    9      -10.370984
   10      -10.365048
   11      -10.283715
   12      -10.282931
   13      -10.277274
   14      -10.276616
   15      -10.192244
   16      -10.185903
   17       -7.717253
   18       -7.709926
   19       -7.650472
   20       -7.648722
   21       -7.642259
   22       -7.641736
   23       -7.578418
   24       -7.570959
   25       -6.556693
   26       -6.492239
   27       -6.490505
   28       -6.423810
   29       -3.548540
   30       -2.745972
   31       -2.744441
   32       -2.711877
   33       -2.695831
   34       -2.679836
   35       -2.679577
   36       -2.664572
   37       -2.662374
   38       -2.646620
   39       -2.630479
   40       -1.777111
   41       -1.590561
   42       -1.568921
   43       -1.566324
   44       -1.544486
   45        0.211843
   46        0.395515
   47        0.412254
   48        0.416436
   49        0.433025
   50        0.855084
   51        0.857081
   52        0.940496
   53        0.952715
   54        0.956796
   55        0.969991
   56        1.474373
   57        1.478719
   58        1.583073
   59        1.989108
   60        1.992190
   61        1.997033
   62        1.998254
   63        2.504199
   64        2.514922
   65        6.374119
   66        6.376197
   67        6.644092
   68        6.646711
   69        6.649722
   70        6.652309
   71        7.102021
   72        7.107617
   73        7.563291
   74        7.945091
   75        7.948274
   76        8.470023
   77        9.041610
   78       11.496810
   79       11.500118
   80       11.899283
   81       12.060328
   82       12.160835
 
  0.3333333E+00  0.0000000E+00  0.0000000E+00  0.6172840E-02
    1      -14.432148
    2      -14.310605
    3      -14.310266
    4      -14.181642
    5      -12.484741
    6      -12.377759
    7      -12.377450
    8      -12.265056
    9      -10.626751
   10      -10.623081
   11      -10.535397
   12      -10.534589
   13      -10.531358
   14      -10.530485
   15      -10.439369
   16      -10.435528
   17       -6.909783
   18       -6.900784
   19       -6.848307
   20       -6.846465
   21       -6.838669
   22       -6.837857
   23       -6.782905
   24       -6.774038
   25       -5.123900
   26       -5.068358
   27       -5.066383
   28       -5.009307
   29       -3.527055
   30       -3.513049
   31       -3.489272
   32       -3.488610
   33       -3.475878
   34       -3.473594
   35       -3.449660
   36       -3.435504
   37       -3.106257
   38       -2.315633
   39       -2.314114
   40       -1.363782
   41       -1.241298
   42       -1.220791
   43       -1.218032
   44       -1.196924
   45       -0.807285
   46       -0.787622
   47       -0.762091
   48       -0.758883
   49       -0.733082
   50       -0.098978
   51       -0.097280
   52        0.377637
   53        0.392978
   54        0.396795
   55        0.412774
   56        0.730080
   57        1.286596
   58        1.289930
   59        1.865640
   60        1.868675
   61        1.871581
   62        1.872674
   63        2.498422
   64        2.504965
   65        6.738882
   66        6.741990
   67        7.035508
   68        7.037418
   69        7.040139
   70        7.043204
   71        7.416094
   72        7.419606
   73        9.071611
   74        9.422726
   75        9.426253
   76        9.491191
   77        9.883151
   78       11.812232
   79       11.876653
   80       11.879295
   81       12.144841
   82       12.225245
 
  0.4444444E+00  0.0000000E+00  0.0000000E+00  0.6172840E-02
    1      -13.922083
    2      -13.804294
    3      -13.803962
    4      -13.679638
    5      -13.271183
    6      -13.158265
    7      -13.157945
    8      -13.039000
    9      -10.758491
   10      -10.756502
   11      -10.665936
   12      -10.664716
   13      -10.663660
   14      -10.662299
   15      -10.567687
   16      -10.565615
   17       -6.160712
   18       -6.153910
   19       -6.116626
   20       -6.114572
   21       -6.109863
   22       -6.107697
   23       -6.070538
   24       -6.064304
   25       -4.276544
   26       -4.268801
   27       -4.245926
   28       -4.243968
   29       -4.238017
   30       -4.235410
   31       -4.209953
   32       -4.201550
   33       -3.644248
   34       -3.598668
   35       -3.596314
   36       -3.549553
   37       -2.493977
   38       -2.173351
   39       -2.138017
   40       -2.135082
   41       -2.098636
   42       -1.722463
   43       -1.720586
   44       -1.718584
   45       -0.974969
   46       -0.973383
   47       -0.795600
   48       -0.775046
   49       -0.755498
   50       -0.752513
   51       -0.732635
   52       -0.219571
   53       -0.201827
   54       -0.198339
   55       -0.179916
   56       -0.087419
   57        1.182654
   58        1.184831
   59        1.791412
   60        1.794753
   61        1.795750
   62        1.796835
   63        2.480567
   64        2.483682
   65        7.026327
   66        7.029087
   67        7.303206
   68        7.304232
   69        7.305472
   70        7.309592
   71        7.593721
   72        7.596479
   73       10.116508
   74       10.692391
   75       10.910985
   76       10.962379
   77       10.965453
   78       11.346023
   79       12.209389
   80       12.213180
   81       12.317288
   82       12.391279
 
  0.6776264E-20  0.1111111E+00  0.0000000E+00  0.6172840E-02
    1      -15.018901
    2      -14.892991
    3      -14.892639
    4      -14.759060
    5      -10.561978
    6      -10.472434
    7      -10.472170
    8      -10.379584
    9      -10.025464
   10      -10.016246
   11       -9.949119
   12       -9.948001
   13       -9.939238
   14       -9.937999
   15       -9.871085
   16       -9.860736
   17       -8.398874
   18       -8.395446
   19       -8.337880
   20       -8.337447
   21       -8.332721
   22       -8.332364
   23       -8.269350
   24       -8.265088
   25       -7.881056
   26       -7.811040
   27       -7.810806
   28       -7.737737
   29       -3.815727
   30       -3.006281
   31       -3.004740
   32       -2.104462
   33       -2.088486
   34       -2.079585
   35       -2.077236
   36       -2.063639
   37       -2.061258
   38       -2.051900
   39       -2.036109
   40       -2.027719
   41       -1.806562
   42       -1.783416
   43       -1.783279
   44       -1.760111
   45        1.220590
   46        1.226112
   47        1.234785
   48        1.236197
   49        1.245932
   50        1.358877
   51        1.368687
   52        1.368842
   53        1.378681
   54        1.690625
   55        1.695675
   56        1.744601
   57        1.746123
   58        2.110248
   59        2.113072
   60        2.119714
   61        2.122730
   62        2.262432
   63        2.462522
   64        2.478834
   65        6.113129
   66        6.119016
   67        6.309553
   68        6.311408
   69        6.314659
   70        6.316463
   71        6.420742
   72        6.724611
   73        6.726262
   74        6.791471
   75        6.797773
   76        7.258941
   77        8.772464
   78       11.259985
   79       11.263465
   80       11.784033
   81       11.951446
   82       11.991542
 
  0.1111111E+00  0.1111111E+00  0.0000000E+00  0.6172840E-02
    1      -14.871736
    2      -14.746908
    3      -14.746560
    4      -14.614222
    5      -11.026903
    6      -11.023958
    7      -10.933125
    8      -10.930219
    9      -10.930192
   10      -10.927167
   11      -10.832359
   12      -10.829321
   13       -9.591243
   14       -9.541297
   15       -9.539883
   16       -9.497670
   17       -8.521480
   18       -8.495204
   19       -8.492000
   20       -8.452138
   21       -7.198942
   22       -7.195677
   23       -7.132781
   24       -7.128816
   25       -7.128792
   26       -7.126389
   27       -7.059783
   28       -7.056604
   29       -3.637343
   30       -2.832465
   31       -2.830929
   32       -2.771063
   33       -2.739533
   34       -2.737279
   35       -2.705229
   36       -1.960928
   37       -1.958614
   38       -1.936071
   39       -1.934645
   40       -1.934638
   41       -1.930887
   42       -1.909422
   43       -1.906363
   44       -1.860315
   45        0.690542
   46        0.701521
   47        0.705972
   48        0.714695
   49        0.793823
   50        0.795467
   51        1.045941
   52        1.052965
   53        1.056874
   54        1.067268
   55        1.384429
   56        1.386302
   57        1.386353
   58        1.389799
   59        2.026806
   60        2.029309
   61        2.071412
   62        2.427918
   63        2.430844
   64        2.679529
   65        6.015733
   66        6.105801
   67        6.110265
   68        6.491834
   69        6.909914
   70        6.912727
   71        7.263835
   72        7.268142
   73        7.268344
   74        7.269782
   75        7.785529
   76        7.788076
   77        8.952105
   78       11.419176
   79       11.422554
   80       12.159821
   81       12.223874
   82       12.326661
 
  0.2222222E+00  0.1111111E+00  0.0000000E+00  0.6172840E-02
    1      -14.578318
    2      -14.455637
    3      -14.455295
    4      -14.325411
    5      -11.991598
    6      -11.888443
    7      -11.888144
    8      -11.780172
    9      -11.367459
   10      -11.269306
   11      -11.269002
   12      -11.166347
   13       -9.639823
   14       -9.566326
   15       -9.565558
   16       -9.491662
   17       -8.051605
   18       -7.995532
   19       -7.992910
   20       -7.931416
   21       -6.413346
   22       -6.350989
   23       -6.350636
   24       -6.286517
   25       -5.816463
   26       -5.757027
   27       -5.755290
   28       -5.694230
   29       -3.678572
   30       -3.639837
   31       -3.637648
   32       -3.597909
   33       -3.282435
   34       -2.487275
   35       -2.486839
   36       -2.485387
   37       -2.456056
   38       -2.455707
   39       -2.424216
   40       -1.672925
   41       -1.649275
   42       -1.646741
   43       -1.622671
   44       -1.528204
   45       -0.263084
   46       -0.247607
   47       -0.240251
   48       -0.240124
   49       -0.223568
   50        0.434389
   51        0.436053
   52        0.460636
   53        0.502212
   54        0.513465
   55        0.518182
   56        0.531700
   57        1.097585
   58        1.099068
   59        1.218680
   60        1.818080
   61        2.210374
   62        2.630415
   63        2.633237
   64        2.981825
   65        5.996480
   66        6.114017
   67        6.118225
   68        6.441021
   69        7.489645
   70        7.837786
   71        7.839482
   72        8.270113
   73        8.281604
   74        8.636469
   75        8.639223
   76        9.110446
   77        9.312203
   78       11.735315
   79       11.738439
   80       12.260679
   81       12.461248
   82       12.461937
 
  0.3333333E+00  0.1111111E+00  0.0000000E+00  0.6172840E-02
    1      -14.140006
    2      -14.020602
    3      -14.020268
    4      -13.894115
    5      -12.841626
    6      -12.731948
    7      -12.731635
    8      -12.616341
    9      -11.576239
   10      -11.476343
   11      -11.476031
   12      -11.371400
   13       -9.782656
   14       -9.700049
   15       -9.699696
   16       -9.614268
   17       -7.285762
   18       -7.229504
   19       -7.227056
   20       -7.168775
   21       -5.614394
   22       -5.563300
   23       -5.562270
   24       -5.510260
   25       -4.616917
   26       -4.576442
   27       -4.574078
   28       -4.531614
   29       -4.367813
   30       -4.318064
   31       -4.316092
   32       -4.265124
   33       -3.186043
   34       -3.152966
   35       -3.151820
   36       -3.117213
   37       -2.754831
   38       -1.974530
   39       -1.973059
   40       -1.506954
   41       -1.478463
   42       -1.474547
   43       -1.446909
   44       -1.256591
   45       -1.234314
   46       -1.231671
   47       -1.216326
   48       -1.208988
   49       -1.036824
   50       -0.489616
   51       -0.488019
   52       -0.122256
   53       -0.105830
   54       -0.101662
   55       -0.084380
   56        0.252233
   57        0.369323
   58        0.913266
   59        0.914782
   60        1.675888
   61        2.213090
   62        2.721220
   63        2.723631
   64        3.236648
   65        6.004474
   66        6.232949
   67        6.236459
   68        6.541245
   69        7.996990
   70        8.292740
   71        8.294677
   72        8.619408
   73        9.832993
   74        9.852774
   75       10.143147
   76       10.145714
   77       10.538351
   78       11.442411
   79       12.174600
   80       12.177790
   81       12.626696
   82       12.650526
 
  0.4444444E+00  0.1111111E+00  0.0000000E+00  0.6172840E-02
    1      -13.561369
    2      -13.558441
    3      -13.447451
    4      -13.445079
    5      -13.444117
    6      -13.441780
    7      -13.324597
    8      -13.321603
    9      -11.646808
   10      -11.546398
   11      -11.546080
   12      -11.440847
   13       -9.837202
   14       -9.752799
   15       -9.752540
   16       -9.664934
   17       -6.778026
   18       -6.742288
   19       -6.740029
   20       -6.706130
   21       -5.142839
   22       -5.141420
   23       -5.120553
   24       -5.118213
   25       -5.113372
   26       -5.110507
   27       -5.091528
   28       -5.082356
   29       -3.603634
   30       -3.584500
   31       -3.581519
   32       -3.558481
   33       -2.910699
   34       -2.906537
   35       -2.872586
   36       -2.867795
   37       -2.866180
   38       -2.865793
   39       -2.828530
   40       -2.825064
   41       -2.063103
   42       -2.060666
   43       -1.305056
   44       -1.303041
   45       -1.302247
   46       -1.299377
   47       -0.730534
   48       -0.726388
   49       -0.709663
   50       -0.709062
   51       -0.706865
   52       -0.700760
   53       -0.687231
   54       -0.679609
   55       -0.398893
   56       -0.396117
   57        0.180800
   58        0.849376
   59        0.850961
   60        1.625127
   61        2.203524
   62        2.744996
   63        2.746949
   64        3.330145
   65        6.021574
   66        6.300290
   67        6.302941
   68        6.596640
   69        8.214632
   70        8.469985
   71        8.472343
   72        8.727339
   73       10.564449
   74       10.566095
   75       11.422909
   76       11.426459
   77       11.629811
   78       11.635207
   79       11.636218
   80       11.639480
   81       11.959489
   82       11.963026
 
 -0.4444444E+00  0.1111111E+00  0.0000000E+00  0.6172840E-02
    1      -14.140750
    2      -14.021337
    3      -14.021003
    4      -13.894854
    5      -12.840449
    6      -12.730774
    7      -12.730459
    8      -12.615169
    9      -11.578006
   10      -11.478056
   11      -11.477742
   12      -11.373188
   13       -9.779724
   14       -9.696845
   15       -9.696601
   16       -9.610990
   17       -7.279161
   18       -7.222034
   19       -7.221298
   20       -7.162272
   21       -5.624268
   22       -5.573677
   23       -5.571161
   24       -5.519618
   25       -4.627447
   26       -4.586338
   27       -4.585638
   28       -4.542498
   29       -4.370362
   30       -4.320800
   31       -4.318477
   32       -4.267699
   33       -3.173379
   34       -3.140938
   35       -3.138019
   36       -3.104154
   37       -2.755639
   38       -1.975300
   39       -1.973840
   40       -1.505454
   41       -1.476477
   42       -1.473913
   43       -1.445725
   44       -1.254110
   45       -1.232032
   46       -1.228951
   47       -1.215131
   48       -1.206432
   49       -1.037620
   50       -0.488471
   51       -0.486828
   52       -0.123688
   53       -0.106829
   54       -0.104045
   55       -0.086671
   56        0.250474
   57        0.370438
   58        0.911093
   59        0.912777
   60        1.673202
   61        2.214804
   62        2.725225
   63        2.726858
   64        3.243934
   65        6.003251
   66        6.234774
   67        6.236717
   68        6.541708
   69        7.992961
   70        8.288727
   71        8.291538
   72        8.617695
   73        9.832778
   74        9.851783
   75       10.142010
   76       10.144937
   77       10.536693
   78       11.444046
   79       12.173719
   80       12.176720
   81       12.550633
   82       12.642666
 
 -0.3333333E+00  0.1111111E+00  0.0000000E+00  0.6172840E-02
    1      -14.578853
    2      -14.456160
    3      -14.455817
    4      -14.325950
    5      -11.990204
    6      -11.887118
    7      -11.886817
    8      -11.778777
    9      -11.371037
   10      -11.272908
   11      -11.272609
   12      -11.169984
   13       -9.633291
   14       -9.558985
   15       -9.558766
   16       -9.483950
   17       -8.047290
   18       -7.989602
   19       -7.989347
   20       -7.926358
   21       -6.423226
   22       -6.361617
   23       -6.359570
   24       -6.296178
   25       -5.819018
   26       -5.759642
   27       -5.757710
   28       -5.696584
   29       -3.692365
   30       -3.652679
   31       -3.652518
   32       -3.611807
   33       -3.283022
   34       -2.487549
   35       -2.486034
   36       -2.470996
   37       -2.441050
   38       -2.438464
   39       -2.408033
   40       -1.670980
   41       -1.647435
   42       -1.644699
   43       -1.620727
   44       -1.528785
   45       -0.263573
   46       -0.247823
   47       -0.243144
   48       -0.239382
   49       -0.225445
   50        0.435629
   51        0.437401
   52        0.457155
   53        0.504272
   54        0.516118
   55        0.518516
   56        0.531210
   57        1.093296
   58        1.095116
   59        1.219810
   60        1.812610
   61        2.212828
   62        2.637779
   63        2.639307
   64        2.995471
   65        5.992248
   66        6.116880
   67        6.118549
   68        6.444314
   69        7.485027
   70        7.831544
   71        7.834716
   72        8.269632
   73        8.277220
   74        8.635035
   75        8.638182
   76        9.108627
   77        9.311405
   78       11.734464
   79       11.737582
   80       12.258406
   81       12.456651
   82       12.461729
 
 -0.2222222E+00  0.1111111E+00  0.0000000E+00  0.6172840E-02
    1      -14.872057
    2      -14.747232
    3      -14.746882
    4      -14.614546
    5      -11.030838
    6      -11.023803
    7      -10.935850
    8      -10.935574
    9      -10.928745
   10      -10.928466
   11      -10.836513
   12      -10.829330
   13       -9.580217
   14       -9.528615
   15       -9.528466
   16       -9.484454
   17       -8.521524
   18       -8.493127
   19       -8.493017
   20       -8.450998
   21       -7.204922
   22       -7.199919
   23       -7.137776
   24       -7.135877
   25       -7.132738
   26       -7.130969
   27       -7.065899
   28       -7.060991
   29       -3.637698
   30       -2.832818
   31       -2.831285
   32       -2.786567
   33       -2.754045
   34       -2.753932
   35       -2.720824
   36       -1.957878
   37       -1.943095
   38       -1.933450
   39       -1.930904
   40       -1.918690
   41       -1.916184
   42       -1.906095
   43       -1.891497
   44       -1.860668
   45        0.684870
   46        0.695796
   47        0.696040
   48        0.706561
   49        0.789573
   50        0.796277
   51        1.054519
   52        1.062676
   53        1.062794
   54        1.071752
   55        1.379208
   56        1.381229
   57        1.387205
   58        1.389476
   59        2.019096
   60        2.029439
   61        2.074046
   62        2.437158
   63        2.438706
   64        2.696673
   65        6.009663
   66        6.109351
   67        6.111046
   68        6.498204
   69        6.909324
   70        6.909889
   71        7.260689
   72        7.263911
   73        7.264228
   74        7.267480
   75        7.781572
   76        7.784294
   77        8.951610
   78       11.418605
   79       11.421982
   80       12.161493
   81       12.246347
   82       12.339044
 
 -0.1111111E+00  0.1111111E+00  0.0000000E+00  0.6172840E-02
    1      -15.019007
    2      -14.893092
    3      -14.892740
    4      -14.759165
    5      -10.569536
    6      -10.480187
    7      -10.479850
    8      -10.387492
    9      -10.016144
   10      -10.014053
   11       -9.939709
   12       -9.937844
   13       -9.937807
   14       -9.935191
   15       -9.860957
   16       -9.858525
   17       -8.397710
   18       -8.395723
   19       -8.336972
   20       -8.334028
   21       -8.333996
   22       -8.333279
   23       -8.267543
   24       -8.265810
   25       -7.886786
   26       -7.817660
   27       -7.815653
   28       -7.743536
   29       -3.815847
   30       -3.006398
   31       -3.004858
   32       -2.105777
   33       -2.103692
   34       -2.080318
   35       -2.079184
   36       -2.079176
   37       -2.075611
   38       -2.053469
   39       -2.050693
   40       -2.027837
   41       -1.789382
   42       -1.767251
   43       -1.764813
   44       -1.742748
   45        1.212565
   46        1.217725
   47        1.222693
   48        1.227663
   49        1.239187
   50        1.366511
   51        1.376777
   52        1.381010
   53        1.389208
   54        1.695020
   55        1.696790
   56        1.736534
   57        1.738806
   58        2.119249
   59        2.120206
   60        2.120471
   61        2.124480
   62        2.250768
   63        2.476989
   64        2.479568
   65        6.112665
   66        6.115815
   67        6.310213
   68        6.315281
   69        6.315488
   70        6.316615
   71        6.420866
   72        6.718801
   73        6.722656
   74        6.796171
   75        6.798690
   76        7.252347
   77        8.772297
   78       11.259786
   79       11.263265
   80       11.817434
   81       12.007676
   82       12.075645
 
  0.1355253E-19  0.2222222E+00  0.0000000E+00  0.6172840E-02
    1      -14.798407
    2      -14.674120
    3      -14.673772
    4      -14.542057
    5      -11.572290
    6      -11.472311
    7      -11.472023
    8      -11.367725
    9      -10.371157
   10      -10.364831
   11      -10.284142
   12      -10.282942
   13      -10.277265
   14      -10.275963
   15      -10.192346
   16      -10.185624
   17       -7.717616
   18       -7.710784
   19       -7.650489
   20       -7.649975
   21       -7.642650
   22       -7.642210
   23       -7.578688
   24       -7.571619
   25       -6.555772
   26       -6.490579
   27       -6.490370
   28       -6.422930
   29       -3.548558
   30       -2.745992
   31       -2.744461
   32       -2.710762
   33       -2.695705
   34       -2.679587
   35       -2.677465
   36       -2.664460
   37       -2.662373
   38       -2.645333
   39       -2.630434
   40       -1.777137
   41       -1.591649
   42       -1.568941
   43       -1.568844
   44       -1.546022
   45        0.211398
   46        0.398422
   47        0.416411
   48        0.416488
   49        0.434753
   50        0.854770
   51        0.856267
   52        0.938966
   53        0.952648
   54        0.952722
   55        0.966338
   56        1.474436
   57        1.479598
   58        1.582330
   59        1.989487
   60        1.992137
   61        1.997220
   62        2.000034
   63        2.504366
   64        2.516138
   65        6.372648
   66        6.375549
   67        6.643463
   68        6.644948
   69        6.649450
   70        6.650850
   71        7.101249
   72        7.106283
   73        7.564822
   74        7.947171
   75        7.948811
   76        8.471263
   77        9.041596
   78       11.496728
   79       11.500037
   80       11.898634
   81       12.059603
   82       12.194684
 
  0.1111111E+00  0.2222222E+00  0.0000000E+00  0.6172840E-02
    1      -14.578313
    2      -14.455632
    3      -14.455290
    4      -14.325406
    5      -11.991558
    6      -11.888404
    7      -11.888106
    8      -11.780133
    9      -11.367488
   10      -11.269325
   11      -11.269036
   12      -11.166371
   13       -9.639812
   14       -9.566306
   15       -9.565557
   16       -9.491651
   17       -8.051668
   18       -7.995532
   19       -7.993071
   20       -7.931516
   21       -6.414353
   22       -6.352648
   23       -6.350958
   24       -6.287496
   25       -5.815459
   26       -5.755324
   27       -5.755020
   28       -5.693258
   29       -3.678479
   30       -3.639682
   31       -3.637647
   32       -3.597843
   33       -3.282449
   34       -2.487043
   35       -2.485981
   36       -2.485320
   37       -2.455713
   38       -2.453463
   39       -2.422788
   40       -1.674114
   41       -1.649452
   42       -1.649267
   43       -1.624249
   44       -1.528226
   45       -0.261226
   46       -0.247026
   47       -0.240240
   48       -0.239336
   49       -0.222887
   50        0.434019
   51        0.435513
   52        0.461096
   53        0.501758
   54        0.513463
   55        0.516526
   56        0.529218
   57        1.098037
   58        1.099827
   59        1.218084
   60        1.818866
   61        2.210554
   62        2.630700
   63        2.633263
   64        2.981915
   65        5.996503
   66        6.113996
   67        6.117740
   68        6.440532
   69        7.488089
   70        7.835901
   71        7.838529
   72        8.271474
   73        8.280232
   74        8.638235
   75        8.639924
   76        9.111661
   77        9.312200
   78       11.735261
   79       11.738387