   32   32    1    1
  0.8992511E+01  0.4932875E-09  0.4932875E-09  0.1366141E-08  0.5000000E-15
  1.000000000000000E-004
  CAR 
 graphite                                
    128    163     84
 
  0.0000000E+00  0.0000000E+00  0.0000000E+00  0.3086420E-02
    1      -15.092388
    2      -14.965978
    3      -14.965627
    4      -14.831431
    5       -9.780237
    6       -9.769564
    7       -9.767213
    8       -9.729751
    9       -9.727806
   10       -9.717844
   11       -9.716116
   12       -9.716074
   13       -9.712563
   14       -9.684715
   15       -9.672131
   16       -9.668978
   17       -8.707372
   18       -8.705765
   19       -8.704126
   20       -8.679059
   21       -8.678014
   22       -8.676220
   23       -8.675448
   24       -8.675410
   25       -8.673201
   26       -8.633228
   27       -8.632807
   28       -8.630817
   29       -3.905009
   30       -3.093221
   31       -3.091682
   32       -2.111548
   33       -1.879728
   34       -1.877478
   35       -1.862079
   36       -1.856662
   37       -1.855673
   38       -1.855665
   39       -1.852059
   40       -1.839396
   41       -1.836976
   42       -1.832661
   43       -1.829908
   44       -1.814762
   45        1.514415
   46        1.520735
   47        1.521129
   48        1.525889
   49        1.532534
   50        1.537252
   51        1.537434
   52        1.543703
   53        1.804291
   54        1.807245
   55        1.808828
   56        2.161358
   57        2.164756
   58        2.171515
   59        2.171956
   60        2.172234
   61        2.176384
   62        2.417774
   63        2.434885
   64        2.437456
   65        6.029130
   66        6.032213
   67        6.037785
   68        6.178256
   69        6.180030
   70        6.182299
   71        6.184646
   72        6.184840
   73        6.187156
   74        6.656698
   75        6.663693
   76        6.666181
   77        8.683133
   78       11.180916
   79       11.184470
   80       11.742259
   81       11.747666
   82       11.778316
   83       11.915538
   84       11.920196
 
  0.1111111E+00  0.0000000E+00  0.0000000E+00  0.6172840E-02
    1      -15.018825
    2      -14.892913
    3      -14.892564
    4      -14.758984
    5      -10.561794
    6      -10.472262
    7      -10.471939
    8      -10.379362
    9      -10.025383
   10      -10.016488
   11       -9.949106
   12       -9.947912
   13       -9.939160
   14       -9.938603
   15       -9.871036
   16       -9.861037
   17       -8.398448
   18       -8.394334
   19       -8.337766
   20       -8.335885
   21       -8.332323
   22       -8.331682
   23       -8.268981
   24       -8.264221
   25       -7.881976
   26       -7.812710
   27       -7.810883
   28       -7.738573
   29       -3.815673
   30       -3.006229
   31       -3.004693
   32       -2.105532
   33       -2.088624
   34       -2.079541
   35       -2.079458
   36       -2.063470
   37       -2.061164
   38       -2.053043
   39       -2.035925
   40       -2.027678
   41       -1.805417
   42       -1.783309
   43       -1.780791
   44       -1.758596
   45        1.216818
   46        1.226392
   47        1.232402
   48        1.234875
   49        1.244218
   50        1.360459
   51        1.368937
   52        1.372908
   53        1.383392
   54        1.690569
   55        1.694795
   56        1.745064
   57        1.747662
   58        2.109882
   59        2.113161
   60        2.119540
   61        2.120850
   62        2.263698
   63        2.462465
   64        2.477532
   65        6.115113
   66        6.119324
   67        6.309932
   68        6.313008
   69        6.315493
   70        6.318006
   71        6.418766
   72        6.721808
   73        6.725721
   74        6.791677
   75        6.799612
   76        7.257356
   77        8.772627
   78       11.260157
   79       11.263661
   80       11.784704
   81       11.951525
   82       11.952172
   83       12.095806
   84       12.124125
 
  0.2222222E+00  0.0000000E+00  0.0000000E+00  0.6172840E-02
    1      -14.798335
    2      -14.674047
    3      -14.673702
    4      -14.541986
    5      -11.572229
    6      -11.472248
    7      -11.471958
    8      -11.367658
    9      -10.370906
   10      -10.364966
   11      -10.283642
   12      -10.282844
   13      -10.277187
   14      -10.276543
   15      -10.192162
   16      -10.185824
   17       -7.717163
   18       -7.709840
   19       -7.650382
   20       -7.648641
   21       -7.642169
   22       -7.641657
   23       -7.578337
   24       -7.570877
   25       -6.556613
   26       -6.492161
   27       -6.490415
   28       -6.423721
   29       -3.548490
   30       -2.745924
   31       -2.744400
   32       -2.711788
   33       -2.695756
   34       -2.679746
   35       -2.679483
   36       -2.664483
   37       -2.662280
   38       -2.646530
   39       -2.630378
   40       -1.777076
   41       -1.590448
   42       -1.568827
   43       -1.566228
   44       -1.544421
   45        0.211889
   46        0.395550
   47        0.412363
   48        0.416529
   49        0.433151
   50        0.855135
   51        0.857114
   52        0.940638
   53        0.952809
   54        0.956928
   55        0.969999
   56        1.474416
   57        1.478763
   58        1.583109
   59        1.989140
   60        1.992240
   61        1.997078
   62        1.998291
   63        2.504237
   64        2.514960
   65        6.374172
   66        6.376252
   67        6.644149
   68        6.646750
   69        6.649777
   70        6.652351
   71        7.102061
   72        7.107657
   73        7.563343
   74        7.945131
   75        7.948333
   76        8.470066
   77        9.041767
   78       11.496956
   79       11.500289
   80       11.899345
   81       12.059724
   82       12.061040
   83       12.202673
   84       12.919090
 
  0.3333333E+00  0.0000000E+00  0.0000000E+00  0.6172840E-02
    1      -14.432069
    2      -14.310526
    3      -14.310188
    4      -14.181564
    5      -12.484661
    6      -12.377680
    7      -12.377370
    8      -12.264976
    9      -10.626672
   10      -10.622999
   11      -10.535324
   12      -10.534502
   13      -10.531271
   14      -10.530411
   15      -10.439287
   16      -10.435449
   17       -6.909692
   18       -6.900698
   19       -6.848217
   20       -6.846384
   21       -6.838579
   22       -6.837777
   23       -6.782825
   24       -6.773956
   25       -5.123822
   26       -5.068278
   27       -5.066293
   28       -5.009216
   29       -3.526969
   30       -3.512972
   31       -3.489186
   32       -3.488516
   33       -3.475792
   34       -3.473501
   35       -3.449568
   36       -3.435406
   37       -3.106207
   38       -2.315585
   39       -2.314073
   40       -1.363747
   41       -1.241182
   42       -1.220697
   43       -1.217935
   44       -1.196861
   45       -0.807242
   46       -0.787553
   47       -0.762000
   48       -0.758790
   49       -0.732972
   50       -0.098928
   51       -0.097244
   52        0.377769
   53        0.393072
   54        0.396909
   55        0.412808
   56        0.730116
   57        1.286641
   58        1.289975
   59        1.865673
   60        1.868725
   61        1.871627
   62        1.872712
   63        2.498459
   64        2.505002
   65        6.738931
   66        6.742040
   67        7.035562
   68        7.037455
   69        7.040193
   70        7.043242
   71        7.416136
   72        7.419647
   73        9.071662
   74        9.422768
   75        9.426312
   76        9.491345
   77        9.883197
   78       11.812348
   79       11.876564
   80       11.879451
   81       12.140077
   82       12.225045
   83       12.226708
   84       12.488834
 
  0.4444444E+00  0.0000000E+00  0.0000000E+00  0.6172840E-02
    1      -13.922004
    2      -13.804215
    3      -13.803882
    4      -13.679559
    5      -13.271103
    6      -13.158186
    7      -13.157866
    8      -13.038921
    9      -10.758413
   10      -10.756419
   11      -10.665862
   12      -10.664629
   13      -10.663573
   14      -10.662226
   15      -10.567604
   16      -10.565537
   17       -6.160618
   18       -6.153817
   19       -6.116538
   20       -6.114490
   21       -6.109774
   22       -6.107614
   23       -6.070462
   24       -6.064231
   25       -4.276468
   26       -4.268728
   27       -4.245839
   28       -4.243874
   29       -4.237931
   30       -4.235316
   31       -4.209855
   32       -4.201450
   33       -3.644171
   34       -3.598586
   35       -3.596223
   36       -3.549458
   37       -2.493928
   38       -2.173279
   39       -2.137931
   40       -2.134991
   41       -2.098535
   42       -1.722419
   43       -1.720533
   44       -1.718545
   45       -0.974920
   46       -0.973345
   47       -0.795565
   48       -0.774928
   49       -0.755405
   50       -0.752413
   51       -0.732577
   52       -0.219446
   53       -0.201733
   54       -0.198234
   55       -0.179868
   56       -0.087383
   57        1.182699
   58        1.184877
   59        1.791447
   60        1.794804
   61        1.795797
   62        1.796871
   63        2.480604
   64        2.483719
   65        7.026370
   66        7.029132
   67        7.303254
   68        7.304273
   69        7.305523
   70        7.309627
   71        7.593766
   72        7.596522
   73       10.116660
   74       10.692441
   75       10.911130
   76       10.962433
   77       10.965507
   78       11.346071
   79       12.201375
   80       12.210297
   81       12.282234
   82       12.351344
   83       12.406672
   84       12.409854
 
  0.6776264E-20  0.1111111E+00  0.0000000E+00  0.6172840E-02
    1      -15.018823
    2      -14.892911
    3      -14.892562
    4      -14.758982
    5      -10.561898
    6      -10.472354
    7      -10.472089
    8      -10.379504
    9      -10.025387
   10      -10.016163
   11       -9.949047
   12       -9.947914
   13       -9.939151
   14       -9.937924
   15       -9.871003
   16       -9.860658
   17       -8.398787
   18       -8.395363
   19       -8.337790
   20       -8.337367
   21       -8.332641
   22       -8.332275
   23       -8.269266
   24       -8.265004
   25       -7.880971
   26       -7.810953
   27       -7.810724
   28       -7.737653
   29       -3.815677
   30       -3.006234
   31       -3.004698
   32       -2.104353
   33       -2.088414
   34       -2.079491
   35       -2.077142
   36       -2.063548
   37       -2.061164
   38       -2.051828
   39       -2.036003
   40       -2.027684
   41       -1.806469
   42       -1.783323
   43       -1.783189
   44       -1.760021
   45        1.220611
   46        1.226244
   47        1.234879
   48        1.236291
   49        1.246006
   50        1.358970
   51        1.368779
   52        1.368936
   53        1.378774
   54        1.690666
   55        1.695717
   56        1.744645
   57        1.746162
   58        2.110278
   59        2.113122
   60        2.119764
   61        2.122762
   62        2.262470
   63        2.462562
   64        2.478873
   65        6.113183
   66        6.119076
   67        6.309608
   68        6.311453
   69        6.314703
   70        6.316520
   71        6.420798
   72        6.724660
   73        6.726315
   74        6.791509
   75        6.797812
   76        7.258981
   77        8.772622
   78       11.260135
   79       11.263638
   80       11.784062
   81       11.950520
   82       11.951194
   83       12.084912
   84       12.118915
 
  0.1111111E+00  0.1111111E+00  0.0000000E+00  0.6172840E-02
    1      -14.871657
    2      -14.746829
    3      -14.746483
    4      -14.614144
    5      -11.026828
    6      -11.023871
    7      -10.933052
    8      -10.930132
    9      -10.930105
   10      -10.927093
   11      -10.832273
   12      -10.829246
   13       -9.591169
   14       -9.541227
   15       -9.539797
   16       -9.497586
   17       -8.521374
   18       -8.495113
   19       -8.491921
   20       -8.452067
   21       -7.198869
   22       -7.195586
   23       -7.132702
   24       -7.128726
   25       -7.128701
   26       -7.126310
   27       -7.059689
   28       -7.056527
   29       -3.637293
   30       -2.832417
   31       -2.830887
   32       -2.770987
   33       -2.739445
   34       -2.737185
   35       -2.705127
   36       -1.960848
   37       -1.958496
   38       -1.935982
   39       -1.934552
   40       -1.934544
   41       -1.930788
   42       -1.909322
   43       -1.906305
   44       -1.860280
   45        0.690516
   46        0.701669
   47        0.706065
   48        0.714844
   49        0.793867
   50        0.795513
   51        1.046103
   52        1.053058
   53        1.057036
   54        1.067226
   55        1.384465
   56        1.386347
   57        1.386405
   58        1.389832
   59        2.026843
   60        2.029346
   61        2.071452
   62        2.427948
   63        2.430894
   64        2.679571
   65        6.015795
   66        6.105859
   67        6.110301
   68        6.491870
   69        6.909966
   70        6.912781
   71        7.263876
   72        7.268202
   73        7.268398
   74        7.269825
   75        7.785571
   76        7.788117
   77        8.952262
   78       11.419324
   79       11.422726
   80       12.155865
   81       12.159945
   82       12.323235
   83       12.324129
   84       12.327364
 
  0.2222222E+00  0.1111111E+00  0.0000000E+00  0.6172840E-02
    1      -14.578240
    2      -14.455558
    3      -14.455217
    4      -14.325333
    5      -11.991518
    6      -11.888364
    7      -11.888063
    8      -11.780092
    9      -11.367379
   10      -11.269223
   11      -11.268924
   12      -11.166267
   13       -9.639744
   14       -9.566254
   15       -9.565471
   16       -9.491581
   17       -8.051511
   18       -7.995441
   19       -7.992829
   20       -7.931339
   21       -6.413260
   22       -6.350900
   23       -6.350556
   24       -6.286433
   25       -5.816384
   26       -5.756948
   27       -5.755200
   28       -5.694141
   29       -3.678493
   30       -3.639752
   31       -3.637554
   32       -3.597811
   33       -3.282385
   34       -2.487206
   35       -2.486775
   36       -2.485343
   37       -2.455969
   38       -2.455614
   39       -2.424124
   40       -1.672814
   41       -1.649181
   42       -1.646647
   43       -1.622602
   44       -1.528169
   45       -0.263067
   46       -0.247496
   47       -0.240162
   48       -0.240058
   49       -0.223445
   50        0.434439
   51        0.436089
   52        0.460681
   53        0.502361
   54        0.513558
   55        0.518322
   56        0.531693
   57        1.097628
   58        1.099110
   59        1.218716
   60        1.818117
   61        2.210416
   62        2.630446
   63        2.633287
   64        2.981865
   65        5.996536
   66        6.114073
   67        6.118260
   68        6.441060
   69        7.489696
   70        7.837838
   71        7.839527
   72        8.270164
   73        8.281647
   74        8.636509
   75        8.639280
   76        9.110490
   77        9.312359
   78       11.735460
   79       11.738609
   80       12.259289
   81       12.454803
   82       12.461962
   83       12.463296
   84       12.808824
 
  0.3333333E+00  0.1111111E+00  0.0000000E+00  0.6172840E-02
    1      -14.139927
    2      -14.020524
    3      -14.020189
    4      -13.894037
    5      -12.841546
    6      -12.731869
    7      -12.731555
    8      -12.616262
    9      -11.576159
   10      -11.476261
   11      -11.475954
   12      -11.371320
   13       -9.782576
   14       -9.699974
   15       -9.699611
   16       -9.614188
   17       -7.285670
   18       -7.229415
   19       -7.226976
   20       -7.168699
   21       -5.614305
   22       -5.563210
   23       -5.562189
   24       -5.510179
   25       -4.616839
   26       -4.576358
   27       -4.573984
   28       -4.531517
   29       -4.367735
   30       -4.317983
   31       -4.316001
   32       -4.265032
   33       -3.185959
   34       -3.152880
   35       -3.151727
   36       -3.117119
   37       -2.754781
   38       -1.974482
   39       -1.973019
   40       -1.506894
   41       -1.478374
   42       -1.474455
   43       -1.446799
   44       -1.256479
   45       -1.234220
   46       -1.231576
   47       -1.216277
   48       -1.208922
   49       -1.036789
   50       -0.489567
   51       -0.487982
   52       -0.122124
   53       -0.105737
   54       -0.101549
   55       -0.084346
   56        0.252280
   57        0.369359
   58        0.913307
   59        0.914826
   60        1.675924
   61        2.213133
   62        2.721252
   63        2.723681
   64        3.236686
   65        6.004521
   66        6.233002
   67        6.236493
   68        6.541287
   69        7.997037
   70        8.292792
   71        8.294716
   72        8.619452
   73        9.833050
   74        9.852921
   75       10.143191
   76       10.145770
   77       10.538397
   78       11.442555
   79       12.174599
   80       12.177664
   81       12.551910
   82       12.631146
   83       12.632825
   84       12.865641
 
  0.4444444E+00  0.1111111E+00  0.0000000E+00  0.6172840E-02
    1      -13.561294
    2      -13.558358
    3      -13.447379
    4      -13.444993
    5      -13.444030
    6      -13.441709
    7      -13.324514
    8      -13.321528
    9      -11.646728
   10      -11.546315
   11      -11.546003
   12      -11.440768
   13       -9.837122
   14       -9.752720
   15       -9.752458
   16       -9.664853
   17       -6.777931
   18       -6.742200
   19       -6.739946
   20       -6.706060
   21       -5.142752
   22       -5.141336
   23       -5.120464
   24       -5.118118
   25       -5.113283
   26       -5.110420
   27       -5.091426
   28       -5.082292
   29       -3.603575
   30       -3.584406
   31       -3.581425
   32       -3.558373
   33       -2.910640
   34       -2.906449
   35       -2.872496
   36       -2.867704
   37       -2.866097
   38       -2.865702
   39       -2.828424
   40       -2.824977
   41       -2.063055
   42       -2.060616
   43       -1.305019
   44       -1.302990
   45       -1.302194
   46       -1.299343
   47       -0.730450
   48       -0.726250
   49       -0.709570
   50       -0.708968
   51       -0.706771
   52       -0.700628
   53       -0.687129
   54       -0.679606
   55       -0.398857
   56       -0.396082
   57        0.180847
   58        0.849416
   59        0.851006
   60        1.625164
   61        2.203568
   62        2.745031
   63        2.746997
   64        3.330183
   65        6.021617
   66        6.300342
   67        6.302974
   68        6.596684
   69        8.214677
   70        8.470038
   71        8.472380
   72        8.727384
   73       10.564600
   74       10.566246
   75       11.422956
   76       11.426511
   77       11.629861
   78       11.635262
   79       11.636278
   80       11.639532
   81       11.959487
   82       11.962992
   83       12.677401
   84       12.682511
 
 -0.4444444E+00  0.1111111E+00  0.0000000E+00  0.6172840E-02
    1      -14.140671
    2      -14.021258
    3      -14.020925
    4      -13.894775
    5      -12.840370
    6      -12.730696
    7      -12.730379
    8      -12.615090
    9      -11.577926
   10      -11.477973
   11      -11.477665
   12      -11.373108
   13       -9.779644
   14       -9.696765
   15       -9.696521
   16       -9.610909
   17       -7.279074
   18       -7.221945
   19       -7.221219
   20       -7.162191
   21       -5.624173
   22       -5.573587
   23       -5.571078
   24       -5.519542
   25       -4.627361
   26       -4.586254
   27       -4.585544
   28       -4.542407
   29       -4.370285
   30       -4.320718
   31       -4.318386
   32       -4.267606
   33       -3.173307
   34       -3.140850
   35       -3.137925
   36       -3.104051
   37       -2.755589
   38       -1.975253
   39       -1.973799
   40       -1.505383
   41       -1.476389
   42       -1.473822
   43       -1.445622
   44       -1.253994
   45       -1.231938
   46       -1.228853
   47       -1.215083
   48       -1.206371
   49       -1.037584
   50       -0.488421
   51       -0.486790
   52       -0.123568
   53       -0.106736
   54       -0.103944
   55       -0.086616
   56        0.250521
   57        0.370474
   58        0.911131
   59        0.912824
   60        1.673238
   61        2.214847
   62        2.725262
   63        2.726904
   64        3.243973
   65        6.003296
   66        6.234825
   67        6.236754
   68        6.541751
   69        7.993009
   70        8.288781
   71        8.291575
   72        8.617739
   73        9.832836
   74        9.851929
   75       10.142053
   76       10.144994
   77       10.536739
   78       11.444190
   79       12.173828
   80       12.176871
   81       12.549272
   82       12.628674
   83       12.631108
   84       12.862257
 
 -0.3333333E+00  0.1111111E+00  0.0000000E+00  0.6172840E-02
    1      -14.578775
    2      -14.456080
    3      -14.455739
    4      -14.325871
    5      -11.990124
    6      -11.887039
    7      -11.886736
    8      -11.778697
    9      -11.370956
   10      -11.272825
   11      -11.272531
   12      -11.169904
   13       -9.633211
   14       -9.558905
   15       -9.558687
   16       -9.483870
   17       -8.047205
   18       -7.989513
   19       -7.989267
   20       -7.926274
   21       -6.423135
   22       -6.361527
   23       -6.359489
   24       -6.296098
   25       -5.818939
   26       -5.759563
   27       -5.757620
   28       -5.696494
   29       -3.692275
   30       -3.652593
   31       -3.652426
   32       -3.611717
   33       -3.282972
   34       -2.487502
   35       -2.485992
   36       -2.470922
   37       -2.440961
   38       -2.438370
   39       -2.407930
   40       -1.670868
   41       -1.647341
   42       -1.644604
   43       -1.620659
   44       -1.528750
   45       -0.263517
   46       -0.247731
   47       -0.243052
   48       -0.239315
   49       -0.225346
   50        0.435680
   51        0.437436
   52        0.457200
   53        0.504399
   54        0.516211
   55        0.518622
   56        0.531257
   57        1.093333
   58        1.095164
   59        1.219847
   60        1.812647
   61        2.212870
   62        2.637818
   63        2.639348
   64        2.995510
   65        5.992300
   66        6.116929
   67        6.118593
   68        6.444353
   69        7.485079
   70        7.831600
   71        7.834755
   72        8.269682
   73        8.277263
   74        8.635075
   75        8.638241
   76        9.108671
   77        9.311560
   78       11.734607
   79       11.737751
   80       12.258182
   81       12.454707
   82       12.459875
   83       12.461781
   84       12.807649
 
 -0.2222222E+00  0.1111111E+00  0.0000000E+00  0.6172840E-02
    1      -14.871979
    2      -14.747152
    3      -14.746805
    4      -14.614468
    5      -11.030758
    6      -11.023723
    7      -10.935769
    8      -10.935495
    9      -10.928664
   10      -10.928387
   11      -10.836433
   12      -10.829250
   13       -9.580137
   14       -9.528535
   15       -9.528388
   16       -9.484375
   17       -8.521437
   18       -8.493039
   19       -8.492934
   20       -8.450914
   21       -7.204832
   22       -7.199840
   23       -7.137686
   24       -7.135797
   25       -7.132660
   26       -7.130879
   27       -7.065819
   28       -7.060903
   29       -3.637648
   30       -2.832771
   31       -2.831243
   32       -2.786475
   33       -2.753954
   34       -2.753842
   35       -2.720734
   36       -1.957768
   37       -1.943024
   38       -1.933356
   39       -1.930810
   40       -1.918599
   41       -1.916090
   42       -1.906025
   43       -1.891390
   44       -1.860633
   45        0.684961
   46        0.695886
   47        0.696133
   48        0.706655
   49        0.789618
   50        0.796322
   51        1.054614
   52        1.062767
   53        1.062888
   54        1.071844
   55        1.379243
   56        1.381277
   57        1.387256
   58        1.389509
   59        2.019134
   60        2.029476
   61        2.074086
   62        2.437198
   63        2.438746
   64        2.696714
   65        6.009720
   66        6.109399
   67        6.111097
   68        6.498241
   69        6.909379
   70        6.909942
   71        7.260746
   72        7.263952
   73        7.264269
   74        7.267538
   75        7.781613
   76        7.784336
   77        8.951768
   78       11.418753
   79       11.422154
   80       12.157622
   81       12.192036
   82       12.324036
   83       12.342355
   84       12.357901
 
 -0.1111111E+00  0.1111111E+00  0.0000000E+00  0.6172840E-02
    1      -15.018929
    2      -14.893013
    3      -14.892663
    4      -14.759087
    5      -10.569456
    6      -10.480112
    7      -10.479766
    8      -10.387412
    9      -10.016069
   10      -10.013966
   11       -9.939636
   12       -9.937758
   13       -9.937720
   14       -9.935115
   15       -9.860873
   16       -9.858451
   17       -8.397635
   18       -8.395636
   19       -8.336894
   20       -8.333938
   21       -8.333905
   22       -8.333201
   23       -8.267452
   24       -8.265728
   25       -7.886695
   26       -7.817570
   27       -7.815573
   28       -7.743456
   29       -3.815796
   30       -3.006351
   31       -3.004816
   32       -2.105694
   33       -2.103576
   34       -2.080230
   35       -2.079091
   36       -2.079082
   37       -2.075513
   38       -2.053370
   39       -2.050633
   40       -2.027803
   41       -1.789312
   42       -1.767159
   43       -1.764719
   44       -1.742640
   45        1.212686
   46        1.217798
   47        1.222786
   48        1.227825
   49        1.239156
   50        1.366479
   51        1.376934
   52        1.381103
   53        1.389361
   54        1.695061
   55        1.696833
   56        1.736566
   57        1.738855
   58        2.119285
   59        2.120248
   60        2.120522
   61        2.124513
   62        2.250806
   63        2.477029
   64        2.479607
   65        6.112719
   66        6.115872
   67        6.310256
   68        6.315333
   69        6.315548
   70        6.316663
   71        6.420923
   72        6.718860
   73        6.722697
   74        6.796211
   75        6.798728
   76        7.252386
   77        8.772455
   78       11.259935
   79       11.263439
   80       11.817439
   81       11.983770
   82       11.985616
   83       12.076662
   84       12.091510
 
  0.1355253E-19  0.2222222E+00  0.0000000E+00  0.6172840E-02
    1      -14.798328
    2      -14.674040
    3      -14.673695
    4      -14.541979
    5      -11.572210
    6      -11.472230
    7      -11.471944
    8      -11.367645
    9      -10.371080
   10      -10.364748
   11      -10.284068
   12      -10.282855
   13      -10.277178
   14      -10.275889
   15      -10.192264
   16      -10.185546
   17       -7.717529
   18       -7.710702
   19       -7.650400
   20       -7.649894
   21       -7.642571
   22       -7.642121
   23       -7.578605
   24       -7.571535
   25       -6.555687
   26       -6.490493
   27       -6.490287
   28       -6.422846
   29       -3.548508
   30       -2.745945
   31       -2.744419
   32       -2.710659
   33       -2.695629
   34       -2.679494
   35       -2.677374
   36       -2.664371
   37       -2.662280
   38       -2.645256
   39       -2.630334
   40       -1.777103
   41       -1.591556
   42       -1.568848
   43       -1.568754
   44       -1.545932
   45        0.211444
   46        0.398516
   47        0.416502
   48        0.416579
   49        0.434843
   50        0.854816
   51        0.856306
   52        0.939061
   53        0.952740
   54        0.952817
   55        0.966429
   56        1.474479
   57        1.479643
   58        1.582367
   59        1.989519
   60        1.992186
   61        1.997271
   62        2.000066
   63        2.504404
   64        2.516176
   65        6.372699
   66        6.375604
   67        6.643511
   68        6.644996
   69        6.649498
   70        6.650899
   71        7.101289
   72        7.106323
   73        7.564876
   74        7.947219
   75        7.948863
   76        8.471305
   77        9.041753
   78       11.496874
   79       11.500209
   80       11.898683
   81       12.059430
   82       12.059976
   83       12.201991
   84       12.904436
 
  0.1111111E+00  0.2222222E+00  0.0000000E+00  0.6172840E-02
    1      -14.578234
    2      -14.455553
    3      -14.455212
    4      -14.325327
    5      -11.991478
    6      -11.888323
    7      -11.888027
    8      -11.780054
    9      -11.367408
   10      -11.269244
   11      -11.268957
   12      -11.166291
   13       -9.639734
   14       -9.566233
   15       -9.565471
   16       -9.491570
   17       -8.051575
   18       -7.995442
   19       -7.992991
   20       -7.931438
   21       -6.414273
   22       -6.352569
   23       -6.350868
   24       -6.287407
   25       -5.815373
   26       -5.755235
   27       -5.754939
   28       -5.693173
   29       -3.678399
   30       -3.639597
   31       -3.637554
   32       -3.597745
   33       -3.282399
   34       -2.486995
   35       -2.485894
   36       -2.485261
   37       -2.455620
   38       -2.453373
   39       -2.422712
   40       -1.674023
   41       -1.649363
   42       -1.649174
   43       -1.624157
   44       -1.528191
   45       -0.261181
   46       -0.246934
   47       -0.240148
   48       -0.239267
   49       -0.222779