       N       E                     dE             d eps       ncg     rms          rms(c)
DAV:   1     0.660832441772E+03    0.66083E+03   -0.70097E+04 27384   0.157E+03
DAV:   2    -0.254302106286E+03   -0.91513E+03   -0.88352E+03 34512   0.314E+02
DAV:   3    -0.313529109413E+03   -0.59227E+02   -0.58709E+02 33264   0.811E+01
DAV:   4    -0.314746065714E+03   -0.12170E+01   -0.12148E+01 35556   0.127E+01
DAV:   5    -0.314781035497E+03   -0.34970E-01   -0.34955E-01 35808   0.199E+00    0.221E+01
DAV:   6    -0.299945846198E+03    0.14835E+02   -0.15013E+01 31296   0.107E+01    0.116E+01
DAV:   7    -0.295018946688E+03    0.49269E+01   -0.16792E+01 30792   0.112E+01    0.202E+00
DAV:   8    -0.295093398881E+03   -0.74452E-01   -0.50120E-01 31440   0.202E+00    0.688E-01
DAV:   9    -0.295103686126E+03   -0.10287E-01   -0.35955E-02 32160   0.620E-01    0.229E-01
DAV:  10    -0.295105236459E+03   -0.15503E-02   -0.43558E-02 42324   0.378E-01    0.183E-01
DAV:  11    -0.295104118139E+03    0.11183E-02   -0.44523E-03 30780   0.237E-01    0.990E-02
DAV:  12    -0.295104855276E+03   -0.73714E-03   -0.90890E-03 33924   0.143E-01    0.148E-01
DAV:  13    -0.295105101788E+03   -0.24651E-03   -0.16451E-03 31056   0.990E-02    0.119E-01
DAV:  14    -0.295105290018E+03   -0.18823E-03   -0.10803E-02 44088   0.154E-01    0.137E-01
DAV:  15    -0.295105220038E+03    0.69980E-04   -0.10908E-02 48084   0.152E-01    0.131E-01
DAV:  16    -0.295104919167E+03    0.30087E-03   -0.99001E-04 32856   0.620E-02    0.104E-01
DAV:  17    -0.295104818747E+03    0.10042E-03   -0.13836E-04 32664   0.300E-02    0.760E-02
DAV:  18    -0.295104836545E+03   -0.17798E-04   -0.15999E-03 39084   0.438E-02    0.805E-02
DAV:  19    -0.295104790475E+03    0.46070E-04   -0.31980E-04 31104   0.274E-02    0.336E-02
DAV:  20    -0.295104791940E+03   -0.14645E-05   -0.37566E-06 27708   0.773E-03    0.333E-02
DAV:  21    -0.295104792126E+03   -0.18603E-06   -0.78677E-07 18948   0.179E-03
   1 F= -.29759128E+03 E0= -.29759128E+03  d E =0.000000E+00
