   4   4   0   0
  0.8951641E+01  0.2467155E-09  0.2467155E-09  0.6793000E-09  0.5000000E-15
  1.000000000000000E-004
  CAR 
 graphite                                
     18.33608605    -17.04651786  301      4.55846924      1.00000000
    -17.047  0.0000E+00  0.0000E+00
    -16.929  0.0000E+00  0.0000E+00
    -16.811  0.0000E+00  0.0000E+00
    -16.693  0.0000E+00  0.0000E+00
    -16.575  0.0000E+00  0.0000E+00
    -16.457  0.0000E+00  0.0000E+00
    -16.339  0.0000E+00  0.0000E+00
    -16.221  0.0000E+00  0.0000E+00
    -16.103  0.0000E+00  0.0000E+00
    -15.985  0.0000E+00  0.0000E+00
    -15.867  0.0000E+00  0.0000E+00
    -15.749  0.0000E+00  0.0000E+00
    -15.631  0.0000E+00  0.0000E+00
    -15.513  0.0000E+00  0.0000E+00
    -15.395  0.0000E+00  0.0000E+00
    -15.277  0.0000E+00  0.0000E+00
    -15.159  0.0000E+00  0.0000E+00
    -15.042  0.1108E-04  0.1851E-07
    -14.924  0.1281E-02  0.8914E-04
    -14.806  0.2288E-02  0.2965E-03
    -14.688  0.2962E-02  0.6332E-03
    -14.570  0.3144E-02  0.9953E-03
    -14.452  0.3068E-02  0.1359E-02
    -14.334  0.3097E-02  0.1723E-02
    -14.216  0.3079E-02  0.2087E-02
    -14.098  0.3112E-02  0.2453E-02
    -13.980  0.3115E-02  0.2820E-02
    -13.862  0.3072E-02  0.3186E-02
    -13.744  0.3107E-02  0.3549E-02
    -13.626  0.3142E-02  0.3919E-02
    -13.508  0.3136E-02  0.4289E-02
    -13.390  0.3104E-02  0.4658E-02
    -13.272  0.3109E-02  0.5024E-02
    -13.154  0.3145E-02  0.5392E-02
    -13.036  0.3174E-02  0.5766E-02
    -12.919  0.3167E-02  0.6139E-02
    -12.801  0.3140E-02  0.6512E-02
    -12.683  0.3144E-02  0.6882E-02
    -12.565  0.3164E-02  0.7254E-02
    -12.447  0.3194E-02  0.7629E-02
    -12.329  0.3212E-02  0.8007E-02
    -12.211  0.3206E-02  0.8386E-02
    -12.093  0.3192E-02  0.8763E-02
    -11.975  0.3198E-02  0.9139E-02
    -11.857  0.3215E-02  0.9518E-02
    -11.739  0.3238E-02  0.9898E-02
    -11.621  0.3267E-02  0.1028E-01
    -11.503  0.3276E-02  0.1067E-01
    -11.385  0.3276E-02  0.1105E-01
    -11.267  0.3277E-02  0.1144E-01
    -11.149  0.3296E-02  0.1183E-01
    -11.031  0.3321E-02  0.1222E-01
    -10.914  0.3350E-02  0.1261E-01
    -10.796  0.3386E-02  0.1301E-01
    -10.678  0.3426E-02  0.1341E-01
    -10.560  0.3457E-02  0.1382E-01
    -10.442  0.3502E-02  0.1423E-01
    -10.324  0.3587E-02  0.1464E-01
    -10.206  0.3733E-02  0.1508E-01
    -10.088  0.3939E-02  0.1553E-01
     -9.970  0.4458E-02  0.1601E-01
     -9.852  0.5287E-02  0.1660E-01
     -9.734  0.4427E-02  0.1721E-01
     -9.616  0.3258E-02  0.1765E-01
     -9.498  0.3653E-02  0.1811E-01
     -9.380  0.2295E-02  0.1849E-01
     -9.262  0.2042E-02  0.1874E-01
     -9.144  0.1789E-02  0.1897E-01
     -9.026  0.1536E-02  0.1917E-01
     -8.909  0.1652E-02  0.1934E-01
     -8.791  0.1684E-02  0.1957E-01
     -8.673  0.8625E-03  0.1972E-01
     -8.555  0.1123E-02  0.1983E-01
     -8.437  0.2096E-02  0.2000E-01
     -8.319  0.3804E-02  0.2040E-01
     -8.201  0.2702E-02  0.2080E-01
     -8.083  0.2833E-02  0.2113E-01
     -7.965  0.4327E-02  0.2155E-01
     -7.847  0.3971E-02  0.2209E-01
     -7.729  0.4653E-02  0.2260E-01
     -7.611  0.5377E-02  0.2319E-01
     -7.493  0.4656E-02  0.2381E-01
     -7.375  0.3841E-02  0.2429E-01
     -7.257  0.3685E-02  0.2473E-01
     -7.139  0.3537E-02  0.2516E-01
     -7.021  0.3393E-02  0.2557E-01
     -6.904  0.3253E-02  0.2596E-01
     -6.786  0.3111E-02  0.2633E-01
     -6.668  0.2996E-02  0.2669E-01
     -6.550  0.2960E-02  0.2704E-01
     -6.432  0.2924E-02  0.2739E-01
     -6.314  0.2888E-02  0.2773E-01
     -6.196  0.2850E-02  0.2807E-01
     -6.078  0.2711E-02  0.2840E-01
     -5.960  0.2574E-02  0.2871E-01
     -5.842  0.2933E-02  0.2903E-01
     -5.724  0.3366E-02  0.2940E-01
     -5.606  0.3799E-02  0.2983E-01
     -5.488  0.3861E-02  0.3029E-01
     -5.370  0.3717E-02  0.3073E-01
     -5.252  0.3660E-02  0.3117E-01
     -5.134  0.3603E-02  0.3160E-01
     -5.016  0.3619E-02  0.3202E-01
     -4.898  0.3722E-02  0.3245E-01
     -4.781  0.3815E-02  0.3290E-01
     -4.663  0.3906E-02  0.3335E-01
     -4.545  0.3947E-02  0.3382E-01
     -4.427  0.3958E-02  0.3428E-01
     -4.309  0.3961E-02  0.3475E-01
     -4.191  0.3920E-02  0.3521E-01
     -4.073  0.4030E-02  0.3568E-01
     -3.955  0.4070E-02  0.3616E-01
     -3.837  0.4195E-02  0.3664E-01
     -3.719  0.4582E-02  0.3717E-01
     -3.601  0.4904E-02  0.3773E-01
     -3.483  0.5149E-02  0.3832E-01
     -3.365  0.5389E-02  0.3894E-01
     -3.247  0.5598E-02  0.3959E-01
     -3.129  0.5780E-02  0.4026E-01
     -3.011  0.5963E-02  0.4095E-01
     -2.893  0.6142E-02  0.4167E-01
     -2.776  0.6641E-02  0.4242E-01
     -2.658  0.7283E-02  0.4324E-01
     -2.540  0.7641E-02  0.4412E-01
     -2.422  0.7642E-02  0.4502E-01
     -2.304  0.7713E-02  0.4592E-01
     -2.186  0.7216E-02  0.4680E-01
     -2.068  0.7659E-02  0.4768E-01
     -1.950  0.1097E-01  0.4880E-01
     -1.832  0.1257E-01  0.5020E-01
     -1.714  0.1025E-01  0.5158E-01
     -1.596  0.9480E-02  0.5274E-01
     -1.478  0.8636E-02  0.5379E-01
     -1.360  0.7734E-02  0.5477E-01
     -1.242  0.7271E-02  0.5565E-01
     -1.124  0.5825E-02  0.5643E-01
     -1.006  0.6720E-02  0.5716E-01
     -0.888  0.6820E-02  0.5799E-01
     -0.771  0.7495E-02  0.5884E-01
     -0.653  0.6226E-02  0.5973E-01
     -0.535  0.6262E-02  0.6046E-01
     -0.417  0.6525E-02  0.6122E-01
     -0.299  0.6770E-02  0.6200E-01
     -0.181  0.6899E-02  0.6281E-01
     -0.063  0.6362E-02  0.6361E-01
      0.055  0.6120E-02  0.6434E-01
      0.173  0.5992E-02  0.6505E-01
      0.291  0.5871E-02  0.6575E-01
      0.409  0.5755E-02  0.6644E-01
      0.527  0.5761E-02  0.6711E-01
      0.645  0.5866E-02  0.6780E-01
      0.763  0.5762E-02  0.6849E-01
      0.881  0.5623E-02  0.6916E-01
      0.999  0.5513E-02  0.6982E-01
      1.117  0.5770E-02  0.7049E-01
      1.234  0.5572E-02  0.7115E-01
      1.352  0.5645E-02  0.7183E-01
      1.470  0.5442E-02  0.7251E-01
      1.588  0.3726E-02  0.7303E-01
      1.706  0.3967E-02  0.7348E-01
      1.824  0.4508E-02  0.7400E-01
      1.942  0.4352E-02  0.7452E-01
      2.060  0.4312E-02  0.7503E-01
      2.178  0.4428E-02  0.7554E-01
      2.296  0.4498E-02  0.7608E-01
      2.414  0.4552E-02  0.7662E-01
      2.532  0.3875E-02  0.7714E-01
      2.650  0.3235E-02  0.7757E-01
      2.768  0.2704E-02  0.7791E-01
      2.886  0.2418E-02  0.7822E-01
      3.004  0.2156E-02  0.7849E-01
      3.122  0.1997E-02  0.7873E-01
      3.240  0.1863E-02  0.7896E-01
      3.357  0.1590E-02  0.7916E-01
      3.475  0.1329E-02  0.7933E-01
      3.593  0.1159E-02  0.7948E-01
      3.711  0.9959E-03  0.7961E-01
      3.829  0.8310E-03  0.7971E-01
      3.947  0.6711E-03  0.7980E-01
      4.065  0.5392E-03  0.7987E-01
      4.183  0.3943E-03  0.7993E-01
      4.301  0.2607E-03  0.7997E-01
      4.419  0.1363E-03  0.7999E-01
      4.537  0.1889E-04  0.8000E-01
      4.655  0.6520E-04  0.8000E-01
      4.773  0.1538E-03  0.8002E-01
      4.891  0.2521E-03  0.8004E-01
      5.009  0.3626E-03  0.8008E-01
      5.127  0.4905E-03  0.8013E-01
      5.245  0.6529E-03  0.8019E-01
      5.362  0.9038E-03  0.8028E-01
      5.480  0.1176E-02  0.8041E-01
      5.598  0.1443E-02  0.8056E-01
      5.716  0.1695E-02  0.8075E-01
      5.834  0.1866E-02  0.8097E-01
      5.952  0.2689E-02  0.8123E-01
      6.070  0.3903E-02  0.8165E-01
      6.188  0.5012E-02  0.8225E-01
      6.306  0.4711E-02  0.8282E-01
      6.424  0.4515E-02  0.8336E-01
      6.542  0.4214E-02  0.8389E-01
      6.660  0.4215E-02  0.8439E-01
      6.778  0.4274E-02  0.8489E-01
      6.896  0.3622E-02  0.8536E-01
      7.014  0.3357E-02  0.8577E-01
      7.132  0.3136E-02  0.8615E-01
      7.250  0.2982E-02  0.8651E-01
      7.367  0.2859E-02  0.8685E-01
      7.485  0.2750E-02  0.8718E-01
      7.603  0.2653E-02  0.8750E-01
      7.721  0.2579E-02  0.8781E-01
      7.839  0.2518E-02  0.8811E-01
      7.957  0.2461E-02  0.8841E-01
      8.075  0.2403E-02  0.8869E-01
      8.193  0.2339E-02  0.8897E-01
      8.311  0.2276E-02  0.8924E-01
      8.429  0.2221E-02  0.8951E-01
      8.547  0.2172E-02  0.8977E-01
      8.665  0.2124E-02  0.9002E-01
      8.783  0.2085E-02  0.9027E-01
      8.901  0.2239E-02  0.9052E-01
      9.019  0.2365E-02  0.9080E-01
      9.137  0.2407E-02  0.9108E-01
      9.255  0.2432E-02  0.9136E-01
      9.372  0.2480E-02  0.9165E-01
      9.490  0.2509E-02  0.9195E-01
      9.608  0.2513E-02  0.9224E-01
      9.726  0.2528E-02  0.9254E-01
      9.844  0.2553E-02  0.9284E-01
      9.962  0.2594E-02  0.9314E-01
     10.080  0.2645E-02  0.9345E-01
     10.198  0.2706E-02  0.9377E-01
     10.316  0.2778E-02  0.9409E-01
     10.434  0.2862E-02  0.9442E-01
     10.552  0.3545E-02  0.9480E-01
     10.670  0.3437E-02  0.9522E-01
     10.788  0.2642E-02  0.9557E-01
     10.906  0.2462E-02  0.9587E-01
     11.024  0.2294E-02  0.9615E-01
     11.142  0.2154E-02  0.9641E-01
     11.260  0.2085E-02  0.9666E-01
     11.378  0.2180E-02  0.9691E-01
     11.495  0.2528E-02  0.9719E-01
     11.613  0.2832E-02  0.9751E-01
     11.731  0.3000E-02  0.9785E-01
     11.849  0.3846E-02  0.9824E-01
     11.967  0.5582E-02  0.9878E-01
     12.085  0.7132E-02  0.9953E-01
     12.203  0.8547E-02  0.1005E+00
     12.321  0.9114E-02  0.1015E+00
     12.439  0.8922E-02  0.1026E+00
     12.557  0.7970E-02  0.1036E+00
     12.675  0.7730E-02  0.1045E+00
     12.793  0.7991E-02  0.1054E+00
     12.911  0.1181E-01  0.1065E+00
     13.029  0.1581E-01  0.1081E+00
     13.147  0.1133E-01  0.1097E+00
     13.265  0.7401E-02  0.1108E+00
     13.383  0.5460E-02  0.1115E+00
     13.500  0.4845E-02  0.1121E+00
     13.618  0.4695E-02  0.1127E+00
     13.736  0.4019E-02  0.1132E+00
     13.854  0.4011E-02  0.1137E+00
     13.972  0.4014E-02  0.1142E+00
     14.090  0.4021E-02  0.1146E+00
     14.208  0.2876E-02  0.1150E+00
     14.326  0.2717E-02  0.1154E+00
     14.444  0.2765E-02  0.1157E+00
     14.562  0.3066E-02  0.1160E+00
     14.680  0.2975E-02  0.1164E+00
     14.798  0.2854E-02  0.1167E+00
     14.916  0.3789E-02  0.1171E+00
     15.034  0.4559E-02  0.1176E+00
     15.152  0.4556E-02  0.1182E+00
     15.270  0.3201E-02  0.1186E+00
     15.388  0.2630E-02  0.1190E+00
     15.505  0.2211E-02  0.1192E+00
     15.623  0.1974E-02  0.1195E+00
     15.741  0.1811E-02  0.1197E+00
     15.859  0.8753E-03  0.1199E+00
     15.977  0.2925E-03  0.1200E+00
     16.095  0.6650E-04  0.1200E+00
     16.213  0.1549E-04  0.1200E+00
     16.331  0.1094E-07  0.1200E+00
     16.449  0.0000E+00  0.1200E+00
     16.567  0.0000E+00  0.1200E+00
     16.685  0.0000E+00  0.1200E+00
     16.803  0.0000E+00  0.1200E+00
     16.921  0.0000E+00  0.1200E+00
     17.039  0.0000E+00  0.1200E+00
     17.157  0.0000E+00  0.1200E+00
     17.275  0.0000E+00  0.1200E+00
     17.393  0.0000E+00  0.1200E+00
     17.510  0.0000E+00  0.1200E+00
     17.628  0.0000E+00  0.1200E+00
     17.746  0.0000E+00  0.1200E+00
     17.864  0.0000E+00  0.1200E+00
     17.982  0.0000E+00  0.1200E+00
     18.100  0.0000E+00  0.1200E+00
     18.218  0.0000E+00  0.1200E+00
     18.336  0.0000E+00  0.1200E+00
