    4    4  200    1
  0.8951641E+01  0.2467155E-09  0.2467155E-09  0.6793000E-09  0.5000000E-15
  1.000000000000000E-004
  CAR 
 graphite                                
     16    455     12
 
  0.0000000E+00  0.0000000E+00  0.0000000E+00  0.3858025E-03
    1      -15.046518
    2      -14.773719
    3       -3.878540
    4       -2.032078
    5        1.558548
    6        1.563240
    7        1.574825
    8        1.579504
    9        8.771101
   10       12.883707
   11       12.889572
   12       12.932523
 
  0.5555556E-01 -0.3469447E-17  0.0000000E+00  0.1543210E-02
    1      -14.973025
    2      -14.701397
    3       -3.789358
    4       -1.948453
    5        1.260589
    6        1.283647
    7        1.401211
    8        1.422172
    9        8.860230
   10       12.916216
   11       12.978288
   12       13.201013
 
  0.1111111E+00 -0.6938894E-17  0.0000000E+00  0.1543210E-02
    1      -14.752712
    2      -14.484747
    3       -3.522515
    4       -1.698543
    5        0.434557
    6        0.473089
    7        0.982225
    8        1.011196
    9        9.128271
   10       12.934155
   11       13.036230
   12       14.088500
 
  0.1666667E+00 -0.4163336E-16  0.0000000E+00  0.1543210E-02
    1      -14.386823
    2      -14.124891
    3       -3.080730
    4       -1.286483
    5       -0.749935
    6       -0.692247
    7        0.420454
    8        0.456230
    9        9.575435
   10       12.835602
   11       13.003247
   12       13.731941
 
  0.2222222E+00  0.0000000E+00  0.0000000E+00  0.1543210E-02
    1      -13.877180
    2      -13.623665
    3       -2.469032
    4       -2.135025
    5       -2.056474
    6       -0.720041
    7       -0.175578
    8       -0.134604
    9       10.199297
   10       12.300180
   11       12.628927
   12       12.862291
 
  0.2777778E+00 -0.2775558E-16  0.0000000E+00  0.1543210E-02
    1      -13.227016
    2      -12.984103
    3       -3.605475
    4       -3.505857
    5       -1.697110
    6       -0.729912
    7       -0.685701
    8       -0.014477
    9       10.711733
   10       10.991198
   11       11.388396
   12       12.380532
 
  0.3333333E+00 -0.5551115E-16  0.0000000E+00  0.1543210E-02
    1      -12.441374
    2      -12.211460
    3       -5.084247
    4       -4.963794
    5       -1.195267
    6       -1.148849
    7       -0.782833
    8        0.799520
    9        9.092557
   10        9.930288
   11       11.876998
   12       12.174776
 
  0.3888889E+00 -0.2775558E-16  0.0000000E+00  0.1543210E-02
    1      -11.529991
    2      -11.315826
    3       -6.515792
    4       -6.376247
    5       -1.543875
    6       -1.495602
    7        0.235003
    8        1.646596
    9        7.588077
   10        8.521344
   11       11.927470
   12       12.245250
 
  0.4444444E+00  0.0000000E+00  0.0000000E+00  0.1543210E-02
    1      -10.521099
    2      -10.330182
    3       -7.838974
    4       -7.688700
    5       -1.758449
    6       -1.709304
    7        1.249397
    8        2.316242
    9        6.452712
   10        7.310506
   11       11.812411
   12       12.164812
 
  0.5000000E+00  0.0000000E+00  0.0000000E+00  0.7716049E-03
    1       -9.729460
    2       -9.628130
    3       -8.656797
    4       -8.580274
    5       -1.830775
    6       -1.781260
    7        1.835237
    8        2.477834
    9        6.074272
   10        6.715497
   11       11.771913
   12       12.132692
 
  0.5555556E-01  0.5555556E-01  0.0000000E+00  0.7716049E-03
    1      -14.826097
    2      -14.556887
    3       -3.611291
    4       -1.781651
    5        0.730077
    6        0.752899
    7        1.089219
    8        1.107567
    9        9.038993
   10       13.018938
   11       13.096804
   12       13.715582
 
  0.1111111E+00  0.5555556E-01  0.0000000E+00  0.1543210E-02
    1      -14.533004
    2      -14.268628
    3       -3.256915
    4       -1.450562
    5       -0.222539
    6       -0.183237
    7        0.544313
    8        0.572381
    9        9.397419
   10       13.109180
   11       13.234608
   12       14.195680
 
  0.1666667E+00  0.5555556E-01  0.0000000E+00  0.1543210E-02
    1      -14.095245
    2      -13.838094
    3       -2.729912
    4       -1.467298
    5       -1.404389
    6       -0.960874
    7       -0.079996
    8       -0.041455
    9        9.934636
   10       12.930870
   11       13.022475
   12       13.223988
 
  0.2222222E+00  0.5555556E-01  0.0000000E+00  0.1543210E-02
    1      -13.515287
    2      -13.267661
    3       -2.869761
    4       -2.783931
    5       -2.037348
    6       -0.683596
    7       -0.638080
    8       -0.323280
    9       10.646526
   10       11.444007
   11       12.000963
   12       12.815442
 
  0.2777778E+00  0.5555556E-01  0.0000000E+00  0.1543210E-02
    1      -12.797176
    2      -12.561435
    3       -4.329909
    4       -4.221922
    5       -1.209817
    6       -1.192027
    7       -1.159925
    8        0.441162
    9        9.854893
   10       10.581964
   11       11.519745
   12       12.579611
 
  0.3333333E+00  0.5555556E-01  0.0000000E+00  0.1543210E-02
    1      -11.948077
    2      -11.726609
    3       -5.777576
    4       -5.649011
    5       -1.625620
    6       -1.572939
    7       -0.219599
    8        1.285993
    9        8.292568
   10        9.158609
   11       12.295379
   12       12.505736
 
  0.3888889E+00  0.5555556E-01  0.0000000E+00  0.1543210E-02
    1      -10.982859
    2      -10.779258
    3       -7.157128
    4       -7.011353
    5       -1.911646
    6       -1.857298
    7        0.818571
    8        2.087951
    9        6.938660
   10        7.837410
   11       12.184968
   12       12.531621
 
  0.4444444E+00  0.5555556E-01  0.0000000E+00  0.1543210E-02
    1       -9.975994
    2       -9.813787
    3       -8.350923
    4       -8.215043
    5       -2.057132
    6       -2.001986
    7        1.721441
    8        2.523976
    9        6.154192
   10        6.849049
   11       12.105548
   12       12.472745
 
  0.5000000E+00  0.5555556E-01  0.0000000E+00  0.1543210E-02
    1       -9.976169
    2       -9.813946
    3       -8.350749
    4       -8.214852
    5       -2.057167
    6       -2.002022
    7        1.721385
    8        2.523982
    9        6.154195
   10        6.849044
   11       12.105630
   12       12.472835
 
 -0.4444444E+00  0.5555556E-01  0.0000000E+00  0.1543210E-02
    1      -10.983053
    2      -10.779451
    3       -7.156893
    4       -7.011118
    5       -1.911743
    6       -1.857396
    7        0.818479
    8        2.087920
    9        6.938659
   10        7.837370
   11       12.185223
   12       12.531899
 
 -0.3888889E+00  0.5555556E-01  0.0000000E+00  0.1543210E-02
    1      -11.948252
    2      -11.726783
    3       -5.777354
    4       -5.648794
    5       -1.625751
    6       -1.573074
    7       -0.219695
    8        1.285941
    9        8.292523
   10        9.158507
   11       12.295766
   12       12.505971
 
 -0.3333333E+00  0.5555556E-01  0.0000000E+00  0.1543210E-02
    1      -12.797326
    2      -12.561585
    3       -4.329753
    4       -4.221778
    5       -1.209920
    6       -1.192117
    7       -1.160039
    8        0.441105
    9        9.854770
   10       10.581785
   11       11.519628
   12       12.580187
 
 -0.2777778E+00  0.5555556E-01  0.0000000E+00  0.1543210E-02
    1      -13.515411
    2      -13.267784
    3       -2.869776
    4       -2.783976
    5       -2.037427
    6       -0.683538
    7       -0.638051
    8       -0.323335
    9       10.646405
   10       11.443780
   11       12.000706
   12       12.816365
 
 -0.2222222E+00  0.5555556E-01  0.0000000E+00  0.1543210E-02
    1      -14.095357
    2      -13.838195
    3       -2.729977
    4       -1.467717
    5       -1.404960
    6       -0.960921
    7       -0.079498
    8       -0.041025
    9        9.934535
   10       12.930911
   11       13.024187
   12       13.222136
 
 -0.1666667E+00  0.5555556E-01  0.0000000E+00  0.1543210E-02
    1      -14.533072
    2      -14.268697
    3       -3.256963
    4       -1.450597
    5       -0.223869
    6       -0.184692
    7        0.545808
    8        0.573744
    9        9.397347
   10       13.111322
   11       13.236864
   12       14.201370
 
 -0.1111111E+00  0.5555556E-01  0.0000000E+00  0.1543210E-02
    1      -14.826138
    2      -14.556928
    3       -3.611321
    4       -1.781673
    5        0.727026
    6        0.749855
    7        1.092329
    8        1.110670
    9        9.038948
   10       13.022084
   11       13.100000
   12       13.755763
 
 -0.5555556E-01  0.5555556E-01  0.0000000E+00  0.7716049E-03
    1      -14.973039
    2      -14.701411
    3       -3.789368
    4       -1.948461
    5        1.257176
    6        1.280248
    7        1.404650
    8        1.425609
    9        8.860214
   10       12.918956
   11       12.982478
   12       13.201127
 
  0.1111111E+00  0.1111111E+00  0.0000000E+00  0.7716049E-03
    1      -14.168040
    2      -13.909673
    3       -2.817181
    4       -1.121188
    5       -1.085428
    6       -1.041512
    7       -0.158159
    8       -0.132994
    9        9.847180
   10       13.176279
   11       13.519434
   12       13.522042
 
  0.1666667E+00  0.1111111E+00  0.0000000E+00  0.1543210E-02
    1      -13.659950
    2      -13.409961
    3       -2.268642
    4       -2.211359
    5       -2.208460
    6       -0.905167
    7       -0.866477
    8       -0.479136
    9       10.475041
   10       11.904316
   11       12.325527
   12       13.685472
 
  0.2222222E+00  0.1111111E+00  0.0000000E+00  0.1543210E-02
    1      -13.012035
    2      -12.772782
    3       -3.595524
    4       -3.509116
    5       -1.552943
    6       -1.499738
    7       -1.440207
    8        0.222127
    9       10.460229
   10       11.014543
   11       11.275497
   12       13.555541
 
  0.2777778E+00  0.1111111E+00  0.0000000E+00  0.1543210E-02
    1      -12.229803
    2      -12.003583
    3       -4.992248
    4       -4.880414
    5       -2.066295
    6       -2.004685
    7       -0.529736
    8        1.032901
    9        8.949758
   10        9.657243
   11       12.235643
   12       13.351563
 
  0.3333333E+00  0.1111111E+00  0.0000000E+00  0.1543210E-02
    1      -11.323530
    2      -11.112974
    3       -6.375823
    4       -6.242749
    5       -2.438003
    6       -2.371746
    7        0.485745
    8        1.883287
    9        7.512968
   10        8.327829
   11       13.108141
   12       13.330571
 
  0.3888889E+00  0.1111111E+00  0.0000000E+00  0.1543210E-02
    1      -10.322485
    2      -10.135098
    3       -7.670148
    4       -7.524737
    5       -2.663203
    6       -2.594498
    7        1.504313
    8        2.569224
    9        6.407099
   10        7.155576
   11       13.025464
   12       13.418486
 
  0.4444444E+00  0.1111111E+00  0.0000000E+00  0.1543210E-02
    1       -9.540948
    2       -9.441307
    3       -8.473431
    4       -8.400168
    5       -2.738676
    6       -2.669308
    7        2.101753
    8        2.738768
    9        6.053396
   10        6.545488
   11       12.984983
   12       13.390697
 
  0.5000000E+00  0.1111111E+00  0.0000000E+00  0.1543210E-02
    1      -10.322870
    2      -10.135478
    3       -7.669714
    4       -7.524189
    5       -2.663268
    6       -2.594590
    7        1.504158
    8        2.569205
    9        6.407086
   10        7.155523
   11       13.025775
   12       13.418842
 
 -0.4444444E+00  0.1111111E+00  0.0000000E+00  0.1543210E-02
    1      -11.323901
    2      -11.113343
    3       -6.375386
    4       -6.242320
    5       -2.438161
    6       -2.371913
    7        0.485561
    8        1.883207
    9        7.512886
   10        8.327668
   11       13.108744
   12       13.330727
 
 -0.3888889E+00  0.1111111E+00  0.0000000E+00  0.1543210E-02
    1      -12.230127
    2      -12.003906
    3       -4.991925
    4       -4.880116
    5       -2.066400
    6       -2.004814
    7       -0.529918
    8        1.032796
    9        8.949530
   10        9.656943
   11       12.235339
   12       13.352612
 
 -0.3333333E+00  0.1111111E+00  0.0000000E+00  0.1543210E-02
    1      -13.012308
    2      -12.773054
    3       -3.595532
    4       -3.509180
    5       -1.552742
    6       -1.499594
    7       -1.440374
    8        0.222019
    9       10.459795
   10       11.014100
   11       11.275209
   12       13.557175
 
 -0.2777778E+00  0.1111111E+00  0.0000000E+00  0.1543210E-02
    1      -13.660169
    2      -13.410180
    3       -2.269436
    4       -2.212247
    5       -2.208602
    6       -0.904164
    7       -0.865570
    8       -0.479234
    9       10.474805
   10       11.903652
   11       12.324978
   12       13.688334
 
 -0.2222222E+00  0.1111111E+00  0.0000000E+00  0.1543210E-02
    1      -14.168205
    2      -13.909838
    3       -2.817292
    4       -1.123362
    5       -1.087588
    6       -1.041592
    7       -0.155858
    8       -0.130691
    9        9.847002
   10       13.175454
   11       13.526272
   12       13.562566
 
 -0.1666667E+00  0.1111111E+00  0.0000000E+00  0.1543210E-02
    1      -14.533114
    2      -14.268738
    3       -3.256991
    4       -1.450618
    5       -0.225768
    6       -0.186440
    7        0.547691
    8        0.575773
    9        9.397298
   10       13.113431
   11       13.238848
   12       14.220511
 
 -0.1111111E+00  0.1111111E+00  0.0000000E+00  0.7716049E-03
    1      -14.752767
    2      -14.484801
    3       -3.522553
    4       -1.698572
    5        0.431336
    6        0.469880
    7        0.985577
    8        1.014548
    9        9.128209
   10       12.937261
   11       13.039299
   12       14.092345
 
  0.1666667E+00  0.1666667E+00  0.0000000E+00  0.7716049E-03
    1      -13.083867
    2      -12.843455
    3       -3.184566
    4       -3.135475
    5       -1.822905
    6       -1.787118
    7       -1.523374
    8        0.148467
    9       10.710570
   10       11.155701
   11       11.191502
   12       14.480193
 
  0.2222222E+00  0.1666667E+00  0.0000000E+00  0.1543210E-02
    1      -12.371613
    2      -12.142927
    3       -4.308790
    4       -4.232856
    5       -2.594890
    6       -2.540602
    7       -0.686757
    8        0.902860
    9        9.389440
   10        9.913493
   11       12.075983
   12       14.667599
 
  0.2777778E+00  0.1666667E+00  0.0000000E+00  0.1543210E-02
    1      -11.531145
    2      -11.316681
    3       -5.578493
    4       -5.469138
    5       -3.136670
    6       -3.064277
    7        0.277732
    8        1.744392
    9        8.020274
   10        8.661374
   11       13.114805
   12       14.517235
 
  0.3333333E+00  0.1666667E+00  0.0000000E+00  0.1543210E-02
    1      -10.579037
    2      -10.382692
    3       -6.863490
    4       -6.730759
    5       -3.477854
    6       -3.396531
    7        1.315358
    8        2.565989
    9        6.768538
   10        7.464020
   11       14.222885
   12       14.415018
 
  0.3888889E+00  0.1666667E+00  0.0000000E+00  0.1543210E-02
    1       -9.590973
    2       -9.435089
    3       -8.005631
    4       -7.879544
    5       -3.644073
    6       -3.559281
    7        2.240208
    8        3.041759
    9        6.032689
   10        6.489106
   11       14.258075
   12       14.755622
 
  0.4444444E+00  0.1666667E+00  0.0000000E+00  0.1543210E-02
    1       -9.591485
    2       -9.435554
    3       -8.005143
    4       -7.879010
    5       -3.644112
    6       -3.559326
    7        2.240056
    8        3.041791
    9        6.032637
   10        6.489067
   11       14.258283
   12       14.755904
 
  0.5000000E+00  0.1666667E+00  0.0000000E+00  0.1543210E-02
    1      -10.579612
    2      -10.383262
    3       -6.862883
    4       -6.730164
    5       -3.477927
    6       -3.396622
    7        1.315114
    8        2.565928
    9        6.768382
   10        7.463830
   11       14.222866
   12       14.414893
 
 -0.4444444E+00  0.1666667E+00  0.0000000E+00  0.1543210E-02
    1      -11.531665
    2      -11.317199
    3       -5.578078
    4       -5.468764
    5       -3.136598
    6       -3.064250
    7        0.277471
    8        1.744268
    9        8.019904
   10        8.661002
   11       13.114220
   12       14.518397
 
 -0.3888889E+00  0.1666667E+00  0.0000000E+00  0.1543210E-02
    1      -12.372060
    2      -12.143373
    3       -4.308968
    4       -4.233111
    5       -2.594257
    6       -2.540054
    7       -0.687008
    8        0.902713
    9        9.388760
   10        9.912945
   11       12.075471
   12       14.670073
 
 -0.3333333E+00  0.1666667E+00  0.0000000E+00  0.1543210E-02
    1      -13.084236
    2      -12.843823
    3       -3.185913
    4       -3.136800
    5       -1.821240
    6       -1.785442
    7       -1.523598
    8        0.148321
    9       10.709553
   10       11.155009
   11       11.191087
   12       14.485894
 
 -0.2777778E+00  0.1666667E+00  0.0000000E+00  0.1543210E-02
    1      -13.660238
    2      -13.410248
    3       -2.270980
    4       -2.213649
    5       -2.208644
    6       -0.902536
    7       -0.863808
    8       -0.479263
    9       10.474721
   10       11.903074
   11       12.324728
   12       13.691006
 
 -0.2222222E+00  0.1666667E+00  0.0000000E+00  0.1543210E-02
    1      -14.095466
    2      -13.838305
    3       -2.730048
    4       -1.470122
    5       -1.407293
    6       -0.960972
    7       -0.076814
    8       -0.038279
    9        9.934404
   10       12.929791
   11       13.027117
   12       13.224443
 
 -0.1666667E+00  0.1666667E+00  0.0000000E+00  0.7716049E-03
    1      -14.386944
    2      -14.125013
    3       -3.080809
    4       -1.286529
    5       -0.752862
    6       -0.695170
    7        0.423705
    8        0.459602
    9        9.575294
   10       12.839165
   11       13.006753
   12       13.729685
 
  0.2222222E+00  0.2222222E+00  0.0000000E+00  0.7716049E-03
    1      -11.600616
    2      -11.385128
    3       -5.102531
    4       -5.040226
    5       -3.557608
    6       -3.510807
    7        0.207186
    8        1.695511
    9        8.240454
   10        8.767054
   11       13.034079
   12       15.780736
 
  0.2777778E+00  0.2222222E+00  0.0000000E+00  0.1543210E-02
    1      -10.711388
    2      -10.511541
    3       -6.117387
    4       -6.023667
    5       -4.227180
    6       -4.157353
    7        1.210531
    8        2.548816
    9        7.054460
   10        7.637052
   11       14.127681
   12       15.831865
 
  0.3333333E+00  0.2222222E+00  0.0000000E+00  0.1543210E-02
    1       -9.735226
    2       -9.558479
    3       -7.241485
    4       -7.119253
    5       -4.578256
    6       -4.488997
    7        2.241635
    8        3.299427
    9        6.035049
   10        6.585678
   11       15.296893
   12       15.706781
 
  0.3888889E+00  0.2222222E+00  0.0000000E+00  0.1543210E-02
    1       -8.975992
    2       -8.881755
    3       -7.986109
    4       -7.932177
    5       -4.685569
    6       -4.591328
    7        2.891760
    8        3.508878
    9        5.825058
   10        5.836646
   11       15.621366
   12       16.332722
 
  0.4444444E+00  0.2222222E+00  0.0000000E+00  0.1543210E-02
    1       -9.735984
    2       -9.559220
    3       -7.240811
    4       -7.118590
    5       -4.578159
    6       -4.488931
    7        2.241393
    8        3.299458
    9        6.034763
   10        6.585504
   11       15.296037
   12       15.706811
 
  0.5000000E+00  0.2222222E+00  0.0000000E+00  0.1543210E-02
    1      -10.712116
    2      -10.512263
    3       -6.117068
    4       -6.023407
    5       -4.226698
    6       -4.156946
    7        1.210232
    8        2.548732
    9        7.053884
   10        7.636659
   11       14.126749
   12       15.832931
 
 -0.4444444E+00  0.2222222E+00  0.0000000E+00  0.1543210E-02
    1      -11.601382
    2      -11.385733
    3       -5.103165
    4       -5.040854
    5       -3.556123
    6       -3.509459
    7        0.206874
    8        1.695363
    9        8.239490
   10        8.766462
   11       13.033290
   12       15.786209
 
 -0.3888889E+00  0.2222222E+00  0.0000000E+00  0.1543210E-02
    1      -12.372155
    2      -12.143468
    3       -4.310343
    4       -4.234350
    5       -2.592757
    6       -2.538423
    7       -0.687051
    8        0.902691
    9        9.388114
   10        9.912689
   11       12.075350
   12       14.673636
 
 -0.3333333E+00  0.2222222E+00  0.0000000E+00  0.1543210E-02
    1      -13.012472
    2      -12.773217
    3       -3.597583
    4       -3.511157
    5       -1.550279
    6       -1.497067
    7       -1.440463
    8        0.221964
    9       10.458674
   10       11.013547
   11       11.275009
   12       13.560850
 
 -0.2777778E+00  0.2222222E+00  0.0000000E+00  0.1543210E-02
    1      -13.515616
    2      -13.267989
    3       -2.872171
    4       -2.786336
    5       -2.037551
    6       -0.680570
    7       -0.635060
    8       -0.323418
    9       10.646166
   10       11.442397
   11       11.999906
   12       12.820022
 
 -0.2222222E+00  0.2222222E+00  0.0000000E+00  0.7716049E-03
    1      -13.877400
    2      -13.623884
    3       -2.469172
    4       -2.137653
    5       -2.059091
    6       -0.720139
    7       -0.172400
    8       -0.131426
    9       10.199048
   10       12.298746
   11       12.632855
   12       12.818920
 
  0.2777778E+00  0.2777778E+00  0.0000000E+00  0.7716049E-03
    1       -9.791115
    2       -9.610525
    3       -6.738782
    4       -6.664079
    5       -5.093844
    6       -5.041783
    7        2.230777
    8        3.392330
    9        6.049163
   10        6.639882
   11       15.227545
   12       16.145085
 
  0.3333333E+00  0.2777778E+00  0.0000000E+00  0.1543210E-02
    1       -8.842247
    2       -8.697609
    3       -7.556674
    4       -7.467202
    5       -5.533653
    6       -5.462608
    7        3.217235
    8        4.033426
    9        5.246707
   10        5.754661
   11       15.838706
   12       15.930760
 
  0.3888889E+00  0.2777778E+00  0.0000000E+00  0.1543210E-02
    1       -8.843048
    2       -8.698343
    3       -7.556174
    4       -7.466662
    5       -5.533362
    6       -5.462355
    7        3.217107
    8        4.033630
    9        5.246301
   10        5.754512
   11       15.839913
   12       15.922175
 
  0.4444444E+00  0.2777778E+00  0.0000000E+00  0.1543210E-02
    1       -9.792033
    2       -9.611431
    3       -6.738874
    4       -6.664131
    5       -5.092792
    6       -5.040710
    7        2.230535
    8        3.392402
    9        6.048347
   10        6.639458
   11       15.226209
   12       16.065340
 
  0.5000000E+00  0.2777778E+00  0.0000000E+00  0.1543210E-02
    1      -10.712236
    2      -10.512383
    3       -6.118285
    4       -6.024497
    5       -4.225356
    6       -4.155475
    7        1.210223
    8        2.548749
    9        7.053240
   10        7.636383
   11       14.126585
   12       15.837388
 
 -0.4444444E+00  0.2777778E+00  0.0000000E+00  0.1543210E-02
    1      -11.531880
    2      -11.317415
    3       -5.579861
    4       -5.470481
    5       -3.134362
    6       -3.061955
    7        0.277406
    8        1.744252
    9        8.018729
   10        8.660425
   11       13.113943
   12       14.522689
 
 -0.3888889E+00  0.2777778E+00  0.0000000E+00  0.1543210E-02
    1      -12.230412
    2      -12.004190
    3       -4.993973
    4       -4.882130
    5       -2.063637
    6       -2.002026
    7       -0.530043
    8        1.032735
    9        8.948003
   10        9.656055
   11       12.235017
   12       13.356757
 
 -0.3333333E+00  0.2777778E+00  0.0000000E+00  0.1543210E-02
    1      -12.797653
    2      -12.561911
    3       -4.331954
    4       -4.223959
    5       -1.206859
    6       -1.192289
    7       -1.156970
    8        0.441003
    9        9.853054
   10       10.580673
   11       11.519301
   12       12.584136
 
 -0.2777778E+00  0.2777778E+00  0.0000000E+00  0.7716049E-03
    1      -13.227357
    2      -12.984443
    3       -3.607786
    4       -3.508157
    5       -1.697308
    6       -0.726776
    7       -0.682566
    8       -0.014605
    9       10.709983
   10       10.990846
   11       11.387218
   12       12.384619
 
  0.3333333E+00  0.3333333E+00  0.0000000E+00  0.7716049E-03
    1       -8.079736
    2       -7.992054
    3       -7.991929
    4       -7.908021
    5       -5.938385
    6       -5.938287
    7        3.973126
    8        4.546197
    9        4.546774
   10        5.227819
   11       15.660328
   12       15.660927
 
  0.3888889E+00  0.3333333E+00  0.0000000E+00  0.1543210E-02
    1       -8.843203
    2       -8.698523
    3       -7.557094
    4       -7.467517
    5       -5.532291
    6       -5.461154
    7        3.217323
    8        4.033670
    9        5.245777
   10        5.754032
   11       15.840479
   12       15.925243
 
  0.4444444E+00  0.3333333E+00  0.0000000E+00  0.1543210E-02
    1       -9.736244
    2       -9.559486
    3       -7.242314
    4       -7.120038
    5       -4.576231
    6       -4.486948
    7        2.241500
    8        3.299542
    9        6.033599
   10        6.584839
   11       15.295727
   12       15.711500
 
  0.5000000E+00  0.3333333E+00  0.0000000E+00  0.1543210E-02
    1      -10.579968
    2      -10.383620
    3       -6.864623
    4       -6.731872
    5       -3.475442
    6       -3.394129
    7        1.315108
    8        2.565984
    9        6.766808
   10        7.462880
   11       14.223880
   12       14.418644
 
 -0.4444444E+00  0.3333333E+00  0.0000000E+00  0.1543210E-02
    1      -11.324329
    2      -11.113772
    3       -6.377253
    4       -6.244168
    5       -2.435316
    6       -2.369059
    7        0.485449
    8        1.883186
    9        7.511062
   10        8.326443
   11       13.111910
   12       13.332637
 
 -0.3888889E+00  0.3333333E+00  0.0000000E+00  0.1543210E-02
    1      -11.948725
    2      -11.727256
    3       -5.779301
    4       -5.650728
    5       -1.622672
    6       -1.569993
    7       -0.219885
    8        1.285857
    9        8.290577
   10        9.157110
   11       12.298767
   12       12.508477
 
 -0.3333333E+00  0.3333333E+00  0.0000000E+00  0.7716049E-03
    1      -12.441862
    2      -12.212214
    3       -5.086316
    4       -4.965807
    5       -1.192156
    6       -1.145736
    7       -0.783073
    8        0.799388
    9        9.090601
   10        9.928861
   11       11.877437
   12       12.178610
 
  0.3888889E+00  0.3888889E+00  0.0000000E+00  0.7716049E-03
    1       -8.976637
    2       -8.882451
    3       -7.987277
    4       -7.933328
    5       -4.683505
    6       -4.589240
    7        2.892147
    8        3.508782
    9        5.823734
   10        5.835574
   11       15.625903
   12       16.336086
 
  0.4444444E+00  0.3888889E+00  0.0000000E+00  0.1543210E-02
    1       -9.592004
    2       -9.436100
    3       -8.006684
    4       -7.880549
    5       -3.641618
    6       -3.556822
    7        2.240304
    8        3.041771
    9        6.030889
   10        6.487658
   11       14.262907
   12       14.760511
 
  0.5000000E+00  0.3888889E+00  0.0000000E+00  0.1543210E-02
    1      -10.323465
    2      -10.136073
    3       -7.671355
    4       -7.525926
    5       -2.660464
    6       -2.591759
    7        1.504194
    8        2.569235
    9        6.405063
   10        7.153920
   11       13.030173
   12       13.423216
 
 -0.4444444E+00  0.3888889E+00  0.0000000E+00  0.1543210E-02
    1      -10.983691
    2      -10.780089
    3       -7.158581
    4       -7.012794
    5       -1.908677
    6       -1.854330
    7        0.818358
    8        2.087908
    9        6.936535
   10        7.835678
   11       12.189428
   12       12.536066
 
 -0.3888889E+00  0.3888889E+00  0.0000000E+00  0.7716049E-03
    1      -11.530649
    2      -11.316482
    3       -6.517505
    4       -6.377950
    5       -1.540767
    6       -1.492497
    7        0.234777
    8        1.646516
    9        7.585968
   10        8.519682
   11       11.931644
   12       12.249330
 
  0.4444444E+00  0.4444444E+00  0.0000000E+00  0.7716049E-03
    1       -9.541773
    2       -9.442186
    3       -8.474758
    4       -8.401498
    5       -2.735880
    6       -2.666512
    7        2.102064
    8        2.738602
    9        6.051483
   10        6.543495
   11       12.989566
   12       13.395310
 
  0.5000000E+00  0.4444444E+00  0.0000000E+00  0.1543210E-02
    1       -9.976962
    2       -9.814755
    3       -8.352213
    4       -8.216307
    5       -2.054129
    6       -1.998985
    7        1.721547
    8        2.523905
    9        6.152074
   10        6.846952
   11       12.109982
   12       12.477191
 
 -0.4444444E+00  0.4444444E+00  0.0000000E+00  0.7716049E-03
    1      -10.521930
    2      -10.331014
    3       -7.840441
    4       -7.690154
    5       -1.755344
    6       -1.706201
    7        1.249337
    8        2.316232
    9        6.450501
   10        7.308537
   11       11.816706
   12       12.169107
 
  0.5000000E+00  0.5000000E+00  0.0000000E+00  0.3858025E-03
    1       -9.730345
    2       -9.629071
    3       -8.658149
    4       -8.581631
    5       -1.827670
    6       -1.778157
    7        1.835519
    8        2.477639
    9        6.072187
   10        6.713192
   11       11.776233
   12       12.137018
 