32   
4    

1    
  0.0034137320263719  -0.0000001538642688   0.0093992783567915
  -0.2150720000    0.0041458300   -0.1350390600
   0.0319676400    0.0031407700   -0.0050753800
  -0.0038067200   -0.0175106900   -0.0050120500
  -0.0039069900    0.0238583800   -0.0051520100
  -0.0063708600    0.0031818600    0.0018727800
  -0.0063531900    0.0031829500    0.0018979900
  -0.0063615900    0.0031779100    0.0018979000
  -0.0063608000    0.0031866900    0.0018979000
   0.0051621300   -0.0031126400   -0.0019017600
   0.0049999200   -0.0032006100   -0.0019591100
   0.0051562500   -0.0030168000   -0.0019303500
   0.0049849700   -0.0031159200   -0.0012530200
   0.0056980000   -0.0029501400   -0.0020548700
   0.0058442700   -0.0030340800   -0.0020003200
   0.0058432300   -0.0031216700   -0.0020274800
   0.0056717900   -0.0030417800   -0.0012759300
   0.0039271000   -0.0026491800    0.0120624400
   0.0310160900   -0.0032826800    0.0472795100
   0.0757927200    0.0231498600    0.0476923400
   0.0761418600   -0.0287554300    0.0468155000
   0.0054093300   -0.0026475200   -0.0002944400
   0.0054106200   -0.0026471500   -0.0002794200
   0.0054102900   -0.0026478600   -0.0002802100
   0.0054097900   -0.0026475500   -0.0002786600
  -0.0045037400    0.0026558200    0.0007034900
  -0.0040645300    0.0027550400    0.0007418100
  -0.0043708200    0.0023286700    0.0007288000
  -0.0042096600    0.0025775700    0.0001029900
  -0.0044280600    0.0023526800    0.0007015200
  -0.0047949600    0.0024536800    0.0006652000
  -0.0046995100    0.0027244800    0.0006761100
  -0.0045425600    0.0025095000    0.0000778100

1    
 -0.0034137320263719   0.0000001538642688  -0.0093992783567915
   0.2039857300    0.0040711400    0.1348473600
  -0.0430581100    0.0031517400    0.0049424500
  -0.0072084400    0.0238559700    0.0050047300
  -0.0072986600   -0.0174911800    0.0048943300
  -0.0046281800    0.0032112600   -0.0017510600
  -0.0046457300    0.0032106000   -0.0017759300
  -0.0046389000    0.0032141500   -0.0017754900
  -0.0046384100    0.0032062500   -0.0017756700
   0.0051659300   -0.0032819300    0.0020940300
   0.0053142100   -0.0031953100    0.0021494100
   0.0051651800   -0.0033667600    0.0021211900
   0.0053402600   -0.0032793600    0.0013705800
   0.0060438800   -0.0033473400    0.0018965400
   0.0058869000   -0.0032610100    0.0018394000
   0.0058915900   -0.0031652300    0.0018685400
   0.0060635800   -0.0032531500    0.0011910700
   0.0056346700   -0.0028296100   -0.0121896900
  -0.0214491300   -0.0034401900   -0.0474004000
  -0.0665440500   -0.0289099700   -0.0469759900
  -0.0662838800    0.0230101200   -0.0477765600
   0.0040533000   -0.0028643000    0.0003888300
   0.0040503000   -0.0028645300    0.0003738300
   0.0040507800   -0.0028641500    0.0003726000
   0.0040512300   -0.0028645000    0.0003759100
  -0.0046600900    0.0028702400   -0.0005671400
  -0.0050276500    0.0027690600   -0.0005968000
  -0.0047560300    0.0031365500   -0.0005843100
  -0.0049157500    0.0029259200    0.0000239000
  -0.0054583100    0.0030883600   -0.0008230700
  -0.0050223000    0.0029876600   -0.0007825800
  -0.0051522300    0.0026581100   -0.0007959500
  -0.0053116800    0.0029113900   -0.0001840800

17   
  0.0034137320263719  -0.0000001538642688   0.0093992783567915
  -0.0067700500    0.0032029500    0.0104431800
   0.0203256100    0.0038117800    0.0456731400
   0.0653859000    0.0292584300    0.0452407000
   0.0651273700   -0.0226196900    0.0460566000
  -0.0040098800    0.0031962100   -0.0018743200
  -0.0040087200    0.0031980600   -0.0018594400
  -0.0040111300    0.0031966400   -0.0018611300
  -0.0040082900    0.0031962200   -0.0018574500
   0.0054423800   -0.0031256400    0.0021387800
   0.0055447700   -0.0029955400    0.0022808900
   0.0053820300   -0.0031267900    0.0022083600
   0.0055615600   -0.0030775100    0.0015913800
   0.0058661400   -0.0031156800    0.0024464800
   0.0057647300   -0.0030358300    0.0023020600
   0.0057473500   -0.0030047300    0.0023736800
   0.0058879600   -0.0030540800    0.0017681200
  -0.2024801000   -0.0036230600   -0.1357859900
   0.0443027600   -0.0027032100   -0.0071816700
   0.0089776900   -0.0231099400   -0.0072409300
   0.0090757300    0.0176332900   -0.0071374900
   0.0031151200   -0.0026692800    0.0003245500
   0.0031114900   -0.0026698100    0.0002125700
   0.0031131500   -0.0026688500    0.0002128400
   0.0031117400   -0.0026711500    0.0002127700
  -0.0059648000    0.0026580100   -0.0001502900
  -0.0056438100    0.0026690200   -0.0000018700
  -0.0058130300    0.0023878200   -0.0000917000
  -0.0058262900    0.0025657300   -0.0003200000
  -0.0054195400    0.0024846600    0.0000737700
  -0.0057372400    0.0024798500   -0.0000161400
  -0.0055736400    0.0027548100    0.0000187500
  -0.0055769200    0.0025773100   -0.0002002300

17   
 -0.0034137320263719   0.0000001538642688  -0.0093992783567915
  -0.0044363700    0.0032028500   -0.0104188500
  -0.0315236500    0.0038313900   -0.0456344200
  -0.0763022400   -0.0225964400   -0.0460512600
  -0.0766443600    0.0293051400   -0.0451720400
  -0.0071454200    0.0031915700    0.0019365400
  -0.0071463100    0.0031936800    0.0019211700
  -0.0071475900    0.0031911600    0.0019195200
  -0.0071443600    0.0031910700    0.0019228000
   0.0052707100   -0.0030968600   -0.0023129000
   0.0051755200   -0.0031717100   -0.0024582400
   0.0052870900   -0.0030592200   -0.0023853200
   0.0051499900   -0.0031085400   -0.0017792500
   0.0055311300   -0.0028869200   -0.0023702200
   0.0056264400   -0.0030181400   -0.0022264300
   0.0056920300   -0.0030259000   -0.0022972000
   0.0055115100   -0.0029744900   -0.0016793200
   0.2135591000   -0.0039619500    0.1358824200
  -0.0332345500   -0.0029525500    0.0072162900
   0.0019987300    0.0173849400    0.0071548600
   0.0021011000   -0.0233653900    0.0072935900
   0.0062203700   -0.0026476500   -0.0002505300
   0.0062238000   -0.0026477600   -0.0001386600
   0.0062227500   -0.0026487300   -0.0001386600
   0.0062221500   -0.0026469000   -0.0001392800
  -0.0042513200    0.0026332000   -0.0000335900
  -0.0045703100    0.0026394700   -0.0001172000
  -0.0044166800    0.0029101400   -0.0000712900
  -0.0044150900    0.0027296100    0.0001510700
  -0.0045212000    0.0026994200   -0.0000688800
  -0.0042019900    0.0026882700    0.0000823100
  -0.0043522200    0.0024180500    0.0000138800
  -0.0043387500    0.0025992000    0.0002490700
