mesh: [     9,     9,     4 ]
nqpoint: 50     
reciprocal_lattice:
- [   0.40533564,   0.23404500,   0.00000000 ] # a*
- [   0.00002110,   0.46805346,   0.00000000 ] # b*
- [   0.00000000,   0.00000000,   0.14721037 ] # c*
natom:   4      
lattice:
- [     2.467155442383188,    -0.000111200019553,     0.000000000000000 ] # a
- [    -1.233674023183305,     2.136563688137034,     0.000000000000000 ] # b
- [     0.000000000000000,     0.000000000000000,     6.792999735564660 ] # c
points:
- symbol: C  # 1
  coordinates: [  0.999999697166835,  0.000000349172772,  0.250000000000000 ]
  mass: 12.010700
- symbol: C  # 2
  coordinates: [  0.000000349172772,  0.999999697166835,  0.750000000000000 ]
  mass: 12.010700
- symbol: C  # 3
  coordinates: [  0.333298929956719,  0.666701052703672,  0.250000000000000 ]
  mass: 12.010700
- symbol: C  # 4
  coordinates: [  0.666701052703672,  0.333298929956719,  0.750000000000000 ]
  mass: 12.010700
phonon:
- q-position: [    0.0000000,    0.0000000,    0.1250000 ]
  weight: 2    
  band:
  - # 1
    frequency:    -5.2671320152
  - # 2
    frequency:    -3.5336529319
  - # 3
    frequency:    -1.1160125237
  - # 4
    frequency:    -1.0707476520
  - # 5
    frequency:     0.5864805052
  - # 6
    frequency:     3.5517711451
  - # 7
    frequency:    24.7120468913
  - # 8
    frequency:    26.1269036157
  - # 9
    frequency:    44.6420442527
  - # 10
    frequency:    44.7966055953
  - # 11
    frequency:    45.1490344305
  - # 12
    frequency:    45.2807235741

- q-position: [    0.1111111,    0.0000000,    0.1250000 ]
  weight: 8    
  band:
  - # 1
    frequency:     4.0423512535
  - # 2
    frequency:     4.4773548339
  - # 3
    frequency:     5.3795061727
  - # 4
    frequency:     5.9548279094
  - # 5
    frequency:    10.4283339784
  - # 6
    frequency:    11.4544221266
  - # 7
    frequency:    24.2312907161
  - # 8
    frequency:    25.5301691508
  - # 9
    frequency:    44.3950487372
  - # 10
    frequency:    44.8914656274
  - # 11
    frequency:    44.9188332241
  - # 12
    frequency:    45.2827105053

- q-position: [    0.2222222,    0.0000000,    0.1250000 ]
  weight: 8    
  band:
  - # 1
    frequency:     7.7976005356
  - # 2
    frequency:     8.5933851264
  - # 3
    frequency:    10.8965490790
  - # 4
    frequency:    11.5260304847
  - # 5
    frequency:    21.5693802094
  - # 6
    frequency:    22.0730549571
  - # 7
    frequency:    22.8957930495
  - # 8
    frequency:    23.8757639867
  - # 9
    frequency:    43.6324041183
  - # 10
    frequency:    44.0362456285
  - # 11
    frequency:    44.9733731303
  - # 12
    frequency:    45.2725712713

- q-position: [    0.3333333,    0.0000000,    0.1250000 ]
  weight: 8    
  band:
  - # 1
    frequency:    11.1184210858
  - # 2
    frequency:    11.6650213747
  - # 3
    frequency:    15.5969535596
  - # 4
    frequency:    15.9322523292
  - # 5
    frequency:    21.0115605608
  - # 6
    frequency:    21.5577868238
  - # 7
    frequency:    30.6980102459
  - # 8
    frequency:    30.9929323394
  - # 9
    frequency:    42.6202986300
  - # 10
    frequency:    42.8606031936
  - # 11
    frequency:    44.3035563026
  - # 12
    frequency:    44.4734598685

- q-position: [    0.4444444,    0.0000000,    0.1250000 ]
  weight: 8    
  band:
  - # 1
    frequency:    13.6655128676
  - # 2
    frequency:    13.9784410465
  - # 3
    frequency:    18.3230112468
  - # 4
    frequency:    18.4317950958
  - # 5
    frequency:    19.1921467486
  - # 6
    frequency:    19.3472056207
  - # 7
    frequency:    37.5738563537
  - # 8
    frequency:    37.7082896425
  - # 9
    frequency:    41.8644345514
  - # 10
    frequency:    41.9406252468
  - # 11
    frequency:    42.0802905682
  - # 12
    frequency:    42.1164970292

- q-position: [    0.1111111,    0.1111111,    0.1250000 ]
  weight: 4    
  band:
  - # 1
    frequency:     7.1319918121
  - # 2
    frequency:     7.9041986080
  - # 3
    frequency:    10.0848972898
  - # 4
    frequency:    10.7461113124
  - # 5
    frequency:    18.3643672133
  - # 6
    frequency:    19.0540968341
  - # 7
    frequency:    23.2551897924
  - # 8
    frequency:    24.3207419859
  - # 9
    frequency:    43.9414201664
  - # 10
    frequency:    44.4240627059
  - # 11
    frequency:    44.9315402666
  - # 12
    frequency:    45.2303147163

- q-position: [    0.2222222,    0.1111111,    0.1250000 ]
  weight: 8    
  band:
  - # 1
    frequency:    10.3697516923
  - # 2
    frequency:    10.8720934644
  - # 3
    frequency:    15.5108100536
  - # 4
    frequency:    15.9986209415
  - # 5
    frequency:    21.5780737844
  - # 6
    frequency:    22.2507520807
  - # 7
    frequency:    26.8961011890
  - # 8
    frequency:    27.3232775998
  - # 9
    frequency:    43.2449995941
  - # 10
    frequency:    43.5571163203
  - # 11
    frequency:    44.4584809067
  - # 12
    frequency:    44.7022764804

- q-position: [    0.3333333,    0.1111111,    0.1250000 ]
  weight: 8    
  band:
  - # 1
    frequency:    13.1598375281
  - # 2
    frequency:    13.4767921536
  - # 3
    frequency:    19.4425920396
  - # 4
    frequency:    19.6227917589
  - # 5
    frequency:    19.7753347818
  - # 6
    frequency:    19.8630816298
  - # 7
    frequency:    34.0909227044
  - # 8
    frequency:    34.3490855304
  - # 9
    frequency:    42.2547930583
  - # 10
    frequency:    42.4173221010
  - # 11
    frequency:    43.1567955289
  - # 12
    frequency:    43.2831145314

- q-position: [   -0.5555556,    0.1111111,    0.1250000 ]
  weight: 8    
  band:
  - # 1
    frequency:    14.3914049256
  - # 2
    frequency:    14.6659852875
  - # 3
    frequency:    18.5744902183
  - # 4
    frequency:    18.6187029353
  - # 5
    frequency:    20.9670732572
  - # 6
    frequency:    21.1241007268
  - # 7
    frequency:    39.2518814583
  - # 8
    frequency:    39.3169701686
  - # 9
    frequency:    39.5310427966
  - # 10
    frequency:    39.5998167045
  - # 11
    frequency:    42.4989954582
  - # 12
    frequency:    42.5195517133

- q-position: [   -0.4444444,    0.1111111,    0.1250000 ]
  weight: 8    
  band:
  - # 1
    frequency:    12.5036352517
  - # 2
    frequency:    13.0580213784
  - # 3
    frequency:    19.6081929885
  - # 4
    frequency:    19.6325626515
  - # 5
    frequency:    19.9344908473
  - # 6
    frequency:    20.2540193677
  - # 7
    frequency:    34.1746556791
  - # 8
    frequency:    34.2812668234
  - # 9
    frequency:    42.2679012664
  - # 10
    frequency:    42.3946550121
  - # 11
    frequency:    43.1949471826
  - # 12
    frequency:    43.2320169068

- q-position: [   -0.3333333,    0.1111111,    0.1250000 ]
  weight: 8    
  band:
  - # 1
    frequency:     9.5479600424
  - # 2
    frequency:    10.3493092320
  - # 3
    frequency:    15.6155844861
  - # 4
    frequency:    15.8606537714
  - # 5
    frequency:    21.8564535412
  - # 6
    frequency:    22.5956087765
  - # 7
    frequency:    27.0382909500
  - # 8
    frequency:    27.2494161196
  - # 9
    frequency:    43.2655581445
  - # 10
    frequency:    43.5197701837
  - # 11
    frequency:    44.4703173940
  - # 12
    frequency:    44.6782964006

- q-position: [   -0.2222222,    0.1111111,    0.1250000 ]
  weight: 8    
  band:
  - # 1
    frequency:     6.2737167062
  - # 2
    frequency:     7.4003243939
  - # 3
    frequency:     9.8626059566
  - # 4
    frequency:    10.6268372943
  - # 5
    frequency:    18.6961896441
  - # 6
    frequency:    18.9669978989
  - # 7
    frequency:    23.4354284881
  - # 8
    frequency:    24.5436640986
  - # 9
    frequency:    44.0210928513
  - # 10
    frequency:    44.3378271886
  - # 11
    frequency:    44.8668774008
  - # 12
    frequency:    45.2788090376

- q-position: [   -0.1111111,    0.1111111,    0.1250000 ]
  weight: 4    
  band:
  - # 1
    frequency:     3.3093583707
  - # 2
    frequency:     3.4995368428
  - # 3
    frequency:     5.1209684206
  - # 4
    frequency:     5.8978504917
  - # 5
    frequency:    10.9858297397
  - # 6
    frequency:    11.3889553492
  - # 7
    frequency:    24.2932784144
  - # 8
    frequency:    25.6068883030
  - # 9
    frequency:    44.5110528595
  - # 10
    frequency:    44.7790936967
  - # 11
    frequency:    44.8295932572
  - # 12
    frequency:    45.3598135368

- q-position: [    0.2222222,    0.2222222,    0.1250000 ]
  weight: 4    
  band:
  - # 1
    frequency:    12.9812487237
  - # 2
    frequency:    13.2950318657
  - # 3
    frequency:    19.7752925152
  - # 4
    frequency:    20.0464865643
  - # 5
    frequency:    21.3633201667
  - # 6
    frequency:    21.7032909088
  - # 7
    frequency:    31.7477986234
  - # 8
    frequency:    32.0220330201
  - # 9
    frequency:    42.7518936795
  - # 10
    frequency:    42.9371061666
  - # 11
    frequency:    43.2113111232
  - # 12
    frequency:    43.3555348206

- q-position: [    0.3333333,    0.2222222,    0.1250000 ]
  weight: 8    
  band:
  - # 1
    frequency:    15.0627865152
  - # 2
    frequency:    15.2533019097
  - # 3
    frequency:    17.9492348886
  - # 4
    frequency:    18.0281752036
  - # 5
    frequency:    25.2818139086
  - # 6
    frequency:    25.5082678102
  - # 7
    frequency:    35.9049549361
  - # 8
    frequency:    36.0625162407
  - # 9
    frequency:    39.8260141494
  - # 10
    frequency:    39.9246241704
  - # 11
    frequency:    43.3361502366
  - # 12
    frequency:    43.3457373908

- q-position: [   -0.5555556,    0.2222222,    0.1250000 ]
  weight: 8    
  band:
  - # 1
    frequency:    14.3265687628
  - # 2
    frequency:    14.7858467267
  - # 3
    frequency:    18.4470395063
  - # 4
    frequency:    18.5104231783
  - # 5
    frequency:    25.3480137965
  - # 6
    frequency:    25.4655984343
  - # 7
    frequency:    35.9785349055
  - # 8
    frequency:    35.9951155891
  - # 9
    frequency:    39.8382206978
  - # 10
    frequency:    39.9017092134
  - # 11
    frequency:    43.3173271520
  - # 12
    frequency:    43.3554374256

- q-position: [   -0.4444444,    0.2222222,    0.1250000 ]
  weight: 8    
  band:
  - # 1
    frequency:    11.9188447957
  - # 2
    frequency:    12.6101237221
  - # 3
    frequency:    20.2634364842
  - # 4
    frequency:    20.6558939923
  - # 5
    frequency:    21.5136485178
  - # 6
    frequency:    21.5619445569
  - # 7
    frequency:    31.9000024029
  - # 8
    frequency:    31.9205374747
  - # 9
    frequency:    42.7785853397
  - # 10
    frequency:    42.8920127390
  - # 11
    frequency:    43.2348609928
  - # 12
    frequency:    43.3085450847

- q-position: [   -0.3333333,    0.2222222,    0.1250000 ]
  weight: 8    
  band:
  - # 1
    frequency:     9.2791445367
  - # 2
    frequency:    10.2007610713
  - # 3
    frequency:    15.5368674349
  - # 4
    frequency:    15.8519830917
  - # 5
    frequency:    21.9374344265
  - # 6
    frequency:    22.6982294991
  - # 7
    frequency:    27.1635302911
  - # 8
    frequency:    27.1970320491
  - # 9
    frequency:    43.3200040423
  - # 10
    frequency:    43.4715643077
  - # 11
    frequency:    44.4131734566
  - # 12
    frequency:    44.7151964483

- q-position: [   -0.2222222,    0.2222222,    0.1250000 ]
  weight: 4    
  band:
  - # 1
    frequency:     6.9828247276
  - # 2
    frequency:     8.1268391706
  - # 3
    frequency:    10.6835951330
  - # 4
    frequency:    11.4344746795
  - # 5
    frequency:    21.8731946804
  - # 6
    frequency:    21.9778551820
  - # 7
    frequency:    23.0843025864
  - # 8
    frequency:    24.1110513195
  - # 9
    frequency:    43.7240595617
  - # 10
    frequency:    43.9498443506
  - # 11
    frequency:    44.8911327889
  - # 12
    frequency:    45.3234088324

- q-position: [   -0.6666667,    0.3333333,    0.1250000 ]
  weight: 4    
  band:
  - # 1
    frequency:    16.0553606282
  - # 2
    frequency:    16.2757892557
  - # 3
    frequency:    16.8590516586
  - # 4
    frequency:    16.9992112221
  - # 5
    frequency:    28.8841317033
  - # 6
    frequency:    28.9060812650
  - # 7
    frequency:    36.9883395776
  - # 8
    frequency:    37.0012294936
  - # 9
    frequency:    37.0488132080
  - # 10
    frequency:    37.0724025279
  - # 11
    frequency:    43.6493685133
  - # 12
    frequency:    43.6926063925

- q-position: [   -0.5555556,    0.3333333,    0.1250000 ]
  weight: 8    
  band:
  - # 1
    frequency:    14.3195339855
  - # 2
    frequency:    14.7529330532
  - # 3
    frequency:    18.4678636407
  - # 4
    frequency:    18.5238314184
  - # 5
    frequency:    25.3862879068
  - # 6
    frequency:    25.4283481508
  - # 7
    frequency:    35.9704467789
  - # 8
    frequency:    36.0066700094
  - # 9
    frequency:    39.8594831796
  - # 10
    frequency:    39.8801492979
  - # 11
    frequency:    43.3225628297
  - # 12
    frequency:    43.3464227521

- q-position: [   -0.4444444,    0.3333333,    0.1250000 ]
  weight: 8    
  band:
  - # 1
    frequency:    12.3859788394
  - # 2
    frequency:    13.0052294420
  - # 3
    frequency:    19.5656195142
  - # 4
    frequency:    19.6384449903
  - # 5
    frequency:    19.9835327524
  - # 6
    frequency:    20.3161135530
  - # 7
    frequency:    34.2210887294
  - # 8
    frequency:    34.2780916717
  - # 9
    frequency:    42.3073512797
  - # 10
    frequency:    42.3485832799
  - # 11
    frequency:    43.1415661142
  - # 12
    frequency:    43.2730162626

- q-position: [   -0.3333333,    0.3333333,    0.1250000 ]
  weight: 4    
  band:
  - # 1
    frequency:    10.4729674739
  - # 2
    frequency:    11.2927688442
  - # 3
    frequency:    15.5952120246
  - # 4
    frequency:    15.8400057998
  - # 5
    frequency:    21.2455488983
  - # 6
    frequency:    21.8526363486
  - # 7
    frequency:    30.8594073687
  - # 8
    frequency:    30.9303327697
  - # 9
    frequency:    42.6850932064
  - # 10
    frequency:    42.7880712669
  - # 11
    frequency:    44.2482567781
  - # 12
    frequency:    44.5001995977

- q-position: [   -0.5555556,    0.4444444,    0.1250000 ]
  weight: 4    
  band:
  - # 1
    frequency:    14.3116801244
  - # 2
    frequency:    14.5827586453
  - # 3
    frequency:    18.6348590212
  - # 4
    frequency:    18.6912910401
  - # 5
    frequency:    21.0374651590
  - # 6
    frequency:    21.0569819035
  - # 7
    frequency:    39.2802557629
  - # 8
    frequency:    39.2889097164
  - # 9
    frequency:    39.5429695114
  - # 10
    frequency:    39.5965412755
  - # 11
    frequency:    42.5021871069
  - # 12
    frequency:    42.5048629363

- q-position: [   -0.4444444,    0.4444444,    0.1250000 ]
  weight: 4    
  band:
  - # 1
    frequency:    13.5012541507
  - # 2
    frequency:    13.9050124791
  - # 3
    frequency:    18.3556804337
  - # 4
    frequency:    18.3854646811
  - # 5
    frequency:    19.2700075130
  - # 6
    frequency:    19.4446220347
  - # 7
    frequency:    37.6263598037
  - # 8
    frequency:    37.6875425185
  - # 9
    frequency:    41.8897962478
  - # 10
    frequency:    41.8992193221
  - # 11
    frequency:    42.0415959117
  - # 12
    frequency:    42.1468787318

- q-position: [    0.0000000,    0.0000000,    0.3750000 ]
  weight: 2    
  band:
  - # 1
    frequency:    -4.5303938570
  - # 2
    frequency:    -3.6354448055
  - # 3
    frequency:    -3.0533503535
  - # 4
    frequency:    -2.9061293766
  - # 5
    frequency:     1.7978538891
  - # 6
    frequency:     2.9508523122
  - # 7
    frequency:    25.6336542018
  - # 8
    frequency:    26.2159365442
  - # 9
    frequency:    43.9619371818
  - # 10
    frequency:    43.9730925817
  - # 11
    frequency:    44.1200429054
  - # 12
    frequency:    44.2304279146

- q-position: [    0.1111111,    0.0000000,    0.3750000 ]
  weight: 8    
  band:
  - # 1
    frequency:     4.3367799220
  - # 2
    frequency:     4.7752145525
  - # 3
    frequency:     4.9404771090
  - # 4
    frequency:     5.4030130457
  - # 5
    frequency:    10.6728486978
  - # 6
    frequency:    11.1102147582
  - # 7
    frequency:    25.0739865130
  - # 8
    frequency:    25.6086417672
  - # 9
    frequency:    43.7666924023
  - # 10
    frequency:    43.9813589932
  - # 11
    frequency:    44.1969456521
  - # 12
    frequency:    44.3647171541

- q-position: [    0.2222222,    0.0000000,    0.3750000 ]
  weight: 8    
  band:
  - # 1
    frequency:     7.9665090565
  - # 2
    frequency:     8.3085214050
  - # 3
    frequency:    11.0652420753
  - # 4
    frequency:    11.3290579563
  - # 5
    frequency:    21.7144526855
  - # 6
    frequency:    21.9256329888
  - # 7
    frequency:    23.5236478331
  - # 8
    frequency:    23.9271805177
  - # 9
    frequency:    43.2075318687
  - # 10
    frequency:    43.3753193960
  - # 11
    frequency:    44.5207219849
  - # 12
    frequency:    44.6456851663

- q-position: [    0.3333333,    0.0000000,    0.3750000 ]
  weight: 8    
  band:
  - # 1
    frequency:    11.2283311153
  - # 2
    frequency:    11.4570444121
  - # 3
    frequency:    15.7137531988
  - # 4
    frequency:    15.8531995067
  - # 5
    frequency:    21.3513388029
  - # 6
    frequency:    21.5763592339
  - # 7
    frequency:    30.8170367605
  - # 8
    frequency:    30.9396289433
  - # 9
    frequency:    42.4450945313
  - # 10
    frequency:    42.5447264970
  - # 11
    frequency:    44.0964790097
  - # 12
    frequency:    44.1667488091

- q-position: [    0.4444444,    0.0000000,    0.3750000 ]
  weight: 8    
  band:
  - # 1
    frequency:    13.7480164843
  - # 2
    frequency:    13.8778955905
  - # 3
    frequency:    18.3591703401
  - # 4
    frequency:    18.4042426494
  - # 5
    frequency:    19.2708398787
  - # 6
    frequency:    19.3348234242
  - # 7
    frequency:    37.6426988772
  - # 8
    frequency:    37.6982840877
  - # 9
    frequency:    41.8554512649
  - # 10
    frequency:    41.8869512380
  - # 11
    frequency:    42.0334213663
  - # 12
    frequency:    42.0483430874

- q-position: [    0.1111111,    0.1111111,    0.3750000 ]
  weight: 4    
  band:
  - # 1
    frequency:     7.3271148837
  - # 2
    frequency:     7.6619362078
  - # 3
    frequency:    10.1309418893
  - # 4
    frequency:    10.4119769425
  - # 5
    frequency:    18.5361672576
  - # 6
    frequency:    18.8249397413
  - # 7
    frequency:    23.9359658561
  - # 8
    frequency:    24.3749341377
  - # 9
    frequency:    43.4976391021
  - # 10
    frequency:    43.6992006028
  - # 11
    frequency:    44.4010025275
  - # 12
    frequency:    44.5251274130

- q-position: [    0.2222222,    0.1111111,    0.3750000 ]
  weight: 8    
  band:
  - # 1
    frequency:    10.5008255238
  - # 2
    frequency:    10.7122022732
  - # 3
    frequency:    15.5971618175
  - # 4
    frequency:    15.8010683108
  - # 5
    frequency:    21.9931219817
  - # 6
    frequency:    22.2704579443
  - # 7
    frequency:    27.0002304482
  - # 8
    frequency:    27.1778232175
  - # 9
    frequency:    43.0255559525
  - # 10
    frequency:    43.1547747862
  - # 11
    frequency:    44.2009166137
  - # 12
    frequency:    44.3019392960

- q-position: [    0.3333333,    0.1111111,    0.3750000 ]
  weight: 8    
  band:
  - # 1
    frequency:    13.2509286828
  - # 2
    frequency:    13.3821818389
  - # 3
    frequency:    19.5230352440
  - # 4
    frequency:    19.6609842813
  - # 5
    frequency:    19.7530174514
  - # 6
    frequency:    19.8519926885
  - # 7
    frequency:    34.1671288495
  - # 8
    frequency:    34.2740280792
  - # 9
    frequency:    42.2293869525
  - # 10
    frequency:    42.2966921217
  - # 11
    frequency:    43.1166428701
  - # 12
    frequency:    43.1686493100

- q-position: [   -0.5555556,    0.1111111,    0.3750000 ]
  weight: 8    
  band:
  - # 1
    frequency:    14.4632177225
  - # 2
    frequency:    14.5779472847
  - # 3
    frequency:    18.5826078211
  - # 4
    frequency:    18.6005504492
  - # 5
    frequency:    21.0401241095
  - # 6
    frequency:    21.1050784842
  - # 7
    frequency:    39.2837207025
  - # 8
    frequency:    39.3109426374
  - # 9
    frequency:    39.5710503411
  - # 10
    frequency:    39.5933226445
  - # 11
    frequency:    42.5170424151
  - # 12
    frequency:    42.5252862266

- q-position: [   -0.4444444,    0.1111111,    0.3750000 ]
  weight: 8    
  band:
  - # 1
    frequency:    12.5807238102
  - # 2
    frequency:    12.8120206792
  - # 3
    frequency:    19.7190825779
  - # 4
    frequency:    19.7291168651
  - # 5
    frequency:    20.1403580740
  - # 6
    frequency:    20.2718975282
  - # 7
    frequency:    34.2795900104
  - # 8
    frequency:    34.3235374836
  - # 9
    frequency:    42.1831895319
  - # 10
    frequency:    42.2357015667
  - # 11
    frequency:    43.0628837007
  - # 12
    frequency:    43.0779392019

- q-position: [   -0.3333333,    0.1111111,    0.3750000 ]
  weight: 8    
  band:
  - # 1
    frequency:     9.6630038230
  - # 2
    frequency:    10.0022626541
  - # 3
    frequency:    15.8389807525
  - # 4
    frequency:    15.9400002425
  - # 5
    frequency:    22.3349768484
  - # 6
    frequency:    22.6391015830
  - # 7
    frequency:    27.1502777524
  - # 8
    frequency:    27.2382261349
  - # 9
    frequency:    42.9553621742
  - # 10
    frequency:    43.0608013225
  - # 11
    frequency:    44.1552987019
  - # 12
    frequency:    44.2415551122

- q-position: [   -0.2222222,    0.1111111,    0.3750000 ]
  weight: 8    
  band:
  - # 1
    frequency:     6.4683193551
  - # 2
    frequency:     6.9587730273
  - # 3
    frequency:    10.2182819928
  - # 4
    frequency:    10.5347888923
  - # 5
    frequency:    18.7949000488
  - # 6
    frequency:    18.9086404832
  - # 7
    frequency:    24.1568431144
  - # 8
    frequency:    24.6128043459
  - # 9
    frequency:    43.4560239700
  - # 10
    frequency:    43.5875843989
  - # 11
    frequency:    44.3543686548
  - # 12
    frequency:    44.5274042043

- q-position: [   -0.1111111,    0.1111111,    0.3750000 ]
  weight: 4    
  band:
  - # 1
    frequency:     3.8570067798
  - # 2
    frequency:     4.3101914352
  - # 3
    frequency:     4.5809746613
  - # 4
    frequency:     5.3489977527
  - # 5
    frequency:    11.0441832169
  - # 6
    frequency:    11.2160261713
  - # 7
    frequency:    25.1499656257
  - # 8
    frequency:    25.6904489377
  - # 9
    frequency:    43.7681651538
  - # 10
    frequency:    43.9010504855
  - # 11
    frequency:    44.1625514694
  - # 12
    frequency:    44.4063407686

- q-position: [    0.2222222,    0.2222222,    0.3750000 ]
  weight: 4    
  band:
  - # 1
    frequency:    13.0755154623
  - # 2
    frequency:    13.2054051488
  - # 3
    frequency:    19.9237039044
  - # 4
    frequency:    20.0356073390
  - # 5
    frequency:    21.4464161150
  - # 6
    frequency:    21.5874359619
  - # 7
    frequency:    31.8096577467
  - # 8
    frequency:    31.9230031023
  - # 9
    frequency:    42.7142263292
  - # 10
    frequency:    42.7922605946
  - # 11
    frequency:    43.1710749622
  - # 12
    frequency:    43.2317912889

- q-position: [    0.3333333,    0.2222222,    0.3750000 ]
  weight: 8    
  band:
  - # 1
    frequency:    15.1256772247
  - # 2
    frequency:    15.2063118683
  - # 3
    frequency:    17.9281355774
  - # 4
    frequency:    17.9595292079
  - # 5
    frequency:    25.3723531018
  - # 6
    frequency:    25.4660641986
  - # 7
    frequency:    35.9684319798
  - # 8
    frequency:    36.0338019106
  - # 9
    frequency:    39.9162806014
  - # 10
    frequency:    39.9573940563
  - # 11
    frequency:    43.3777294054
  - # 12
    frequency:    43.3817336203

- q-position: [   -0.5555556,    0.2222222,    0.3750000 ]
  weight: 8    
  band:
  - # 1
    frequency:    14.3711498198
  - # 2
    frequency:    14.5637708099
  - # 3
    frequency:    18.4993228995
  - # 4
    frequency:    18.5252310299
  - # 5
    frequency:    25.4997477656
  - # 6
    frequency:    25.5483118600
  - # 7
    frequency:    36.0705134033
  - # 8
    frequency:    36.0775185552
  - # 9
    frequency:    39.8315395265
  - # 10
    frequency:    39.8582689609
  - # 11
    frequency:    43.3342382661
  - # 12
    frequency:    43.3495477752

- q-position: [   -0.4444444,    0.2222222,    0.3750000 ]
  weight: 8    
  band:
  - # 1
    frequency:    11.9882546466
  - # 2
    frequency:    12.2777908963
  - # 3
    frequency:    20.5277008840
  - # 4
    frequency:    20.6891726663
  - # 5
    frequency:    21.7154768958
  - # 6
    frequency:    21.7354049121
  - # 7
    frequency:    31.9787732510
  - # 8
    frequency:    31.9873064503
  - # 9
    frequency:    42.6281490117
  - # 10
    frequency:    42.6757434055
  - # 11
    frequency:    43.0953657031
  - # 12
    frequency:    43.1251015596

- q-position: [   -0.3333333,    0.2222222,    0.3750000 ]
  weight: 8    
  band:
  - # 1
    frequency:     9.3921762323
  - # 2
    frequency:     9.7832040581
  - # 3
    frequency:    15.7888513766
  - # 4
    frequency:    15.9198274286
  - # 5
    frequency:    22.4367712099
  - # 6
    frequency:    22.7497210698
  - # 7
    frequency:    27.2725334060
  - # 8
    frequency:    27.2864376250
  - # 9
    frequency:    42.9738189463
  - # 10
    frequency:    43.0367556133
  - # 11
    frequency:    44.0980277878
  - # 12
    frequency:    44.2236684835

- q-position: [   -0.2222222,    0.2222222,    0.3750000 ]
  weight: 4    
  band:
  - # 1
    frequency:     7.1481390672
  - # 2
    frequency:     7.6425607116
  - # 3
    frequency:    11.0337594788
  - # 4
    frequency:    11.3457261518
  - # 5
    frequency:    22.0016405097
  - # 6
    frequency:    22.0456241443
  - # 7
    frequency:    23.7565924397
  - # 8
    frequency:    24.1788970680
  - # 9
    frequency:    43.1987057676
  - # 10
    frequency:    43.2928865326
  - # 11
    frequency:    44.4382182526
  - # 12
    frequency:    44.6190879877

- q-position: [   -0.6666667,    0.3333333,    0.3750000 ]
  weight: 4    
  band:
  - # 1
    frequency:    16.0448462243
  - # 2
    frequency:    16.1525481620
  - # 3
    frequency:    16.8885013900
  - # 4
    frequency:    16.9313733580
  - # 5
    frequency:    28.9821247277
  - # 6
    frequency:    28.9922644230
  - # 7
    frequency:    37.0433881676
  - # 8
    frequency:    37.0510073623
  - # 9
    frequency:    37.1403991702
  - # 10
    frequency:    37.1496783067
  - # 11
    frequency:    43.7177487380
  - # 12
    frequency:    43.7348103523

- q-position: [   -0.5555556,    0.3333333,    0.3750000 ]
  weight: 8    
  band:
  - # 1
    frequency:    14.3578146095
  - # 2
    frequency:    14.5395830775
  - # 3
    frequency:    18.5162132491
  - # 4
    frequency:    18.5401851194
  - # 5
    frequency:    25.5413259631
  - # 6
    frequency:    25.5585502461
  - # 7
    frequency:    36.0392219208
  - # 8
    frequency:    36.0541843928
  - # 9
    frequency:    39.8494778197
  - # 10
    frequency:    39.8580692869
  - # 11
    frequency:    43.3359628116
  - # 12
    frequency:    43.3455987820

- q-position: [   -0.4444444,    0.3333333,    0.3750000 ]
  weight: 8    
  band:
  - # 1
    frequency:    12.4649862539
  - # 2
    frequency:    12.7236501408
  - # 3
    frequency:    19.6861767376
  - # 4
    frequency:    19.7164225465
  - # 5
    frequency:    20.2035183265
  - # 6
    frequency:    20.3404354900
  - # 7
    frequency:    34.3359741181
  - # 8
    frequency:    34.3596127071
  - # 9
    frequency:    42.1964807136
  - # 10
    frequency:    42.2143032605
  - # 11
    frequency:    43.0202695256
  - # 12
    frequency:    43.0740381271

- q-position: [   -0.3333333,    0.3333333,    0.3750000 ]
  weight: 4    
  band:
  - # 1
    frequency:    10.5759837171
  - # 2
    frequency:    10.9209341576
  - # 3
    frequency:    15.7534002361
  - # 4
    frequency:    15.8552976906
  - # 5
    frequency:    21.6445365374
  - # 6
    frequency:    21.8944273995
  - # 7
    frequency:    31.0124801764
  - # 8
    frequency:    31.0417225983
  - # 9
    frequency:    42.4395038835
  - # 10
    frequency:    42.4822678519
  - # 11
    frequency:    43.9990786419
  - # 12
    frequency:    44.1040969540

- q-position: [   -0.5555556,    0.4444444,    0.3750000 ]
  weight: 4    
  band:
  - # 1
    frequency:    14.3732849059
  - # 2
    frequency:    14.4862359671
  - # 3
    frequency:    18.6534141123
  - # 4
    frequency:    18.6771966365
  - # 5
    frequency:    21.0979570657
  - # 6
    frequency:    21.1060170007
  - # 7
    frequency:    39.2837814710
  - # 8
    frequency:    39.2872496746
  - # 9
    frequency:    39.5784376865
  - # 10
    frequency:    39.6003416585
  - # 11
    frequency:    42.5092362835
  - # 12
    frequency:    42.5101972493

- q-position: [   -0.4444444,    0.4444444,    0.3750000 ]
  weight: 4    
  band:
  - # 1
    frequency:    13.5882534007
  - # 2
    frequency:    13.7563210575
  - # 3
    frequency:    18.3778476240
  - # 4
    frequency:    18.3902254360
  - # 5
    frequency:    19.3701807252
  - # 6
    frequency:    19.4420000341
  - # 7
    frequency:    37.7115388734
  - # 8
    frequency:    37.7368085712
  - # 9
    frequency:    41.8563535448
  - # 10
    frequency:    41.8602119942
  - # 11
    frequency:    41.9814508488
  - # 12
    frequency:    42.0251833103

