   32   32    1    1
  0.8863011E+01  0.4934311E-09  0.4934311E-09  0.1345148E-08  0.5000000E-15
  1.000000000000000E-004
  CAR 
 graphite                                
    128    163     84
 
  0.0000000E+00  0.0000000E+00  0.0000000E+00  0.3086420E-02
    1      -14.969316
    2      -14.826998
    3      -14.826579
    4      -14.674469
    5       -9.649088
    6       -9.646892
    7       -9.644761
    8       -9.590802
    9       -9.587267
   10       -9.586912
   11       -9.586447
   12       -9.586441
   13       -9.582803
   14       -9.538243
   15       -9.536856
   16       -9.534800
   17       -8.573803
   18       -8.570592
   19       -8.569012
   20       -8.543395
   21       -8.539771
   22       -8.538522
   23       -8.538278
   24       -8.538276
   25       -8.534430
   26       -8.490760
   27       -8.487765
   28       -8.485250
   29       -3.832887
   30       -2.956799
   31       -2.955121
   32       -1.889905
   33       -1.746714
   34       -1.744124
   35       -1.740129
   36       -1.721066
   37       -1.717222
   38       -1.717217
   39       -1.716739
   40       -1.714077
   41       -1.710956
   42       -1.691539
   43       -1.689452
   44       -1.684873
   45        1.639763
   46        1.650722
   47        1.652992
   48        1.655557
   49        1.660337
   50        1.662688
   51        1.664793
   52        1.675787
   53        1.895086
   54        1.897325
   55        1.899266
   56        2.294537
   57        2.298191
   58        2.298323
   59        2.298454
   60        2.298598
   61        2.302181
   62        2.573668
   63        2.575086
   64        2.576464
   65        6.159903
   66        6.163785
   67        6.165665
   68        6.298247
   69        6.304401
   70        6.305766
   71        6.306446
   72        6.306781
   73        6.312711
   74        6.824415
   75        6.829133
   76        6.832146
   77        8.938730
   78       11.555631
   79       11.559073
   80       11.843604
   81       11.847345
   82       11.851822
   83       12.035416
   84       12.038363
 
  0.1111111E+00 -0.2081668E-16  0.0000000E+00  0.6172840E-02
    1      -14.895768
    2      -14.753951
    3      -14.753534
    4      -14.602173
    5      -10.440962
    6      -10.339620
    7      -10.339166
    8      -10.233938
    9       -9.896403
   10       -9.894115
   11       -9.809479
   12       -9.807834
   13       -9.807094
   14       -9.804931
   15       -9.720252
   16       -9.717942
   17       -8.270701
   18       -8.267513
   19       -8.202243
   20       -8.199299
   21       -8.197757
   22       -8.197337
   23       -8.123052
   24       -8.120023
   25       -7.755993
   26       -7.677331
   27       -7.675411
   28       -7.592619
   29       -3.743593
   30       -2.869786
   31       -2.868113
   32       -1.971393
   33       -1.966844
   34       -1.941605
   35       -1.940848
   36       -1.937773
   37       -1.934747
   38       -1.910643
   39       -1.905600
   40       -1.806419
   41       -1.673516
   42       -1.647614
   43       -1.645036
   44       -1.619100
   45        1.304107
   46        1.349968
   47        1.361167
   48        1.365541
   49        1.378189
   50        1.484659
   51        1.496142
   52        1.500664
   53        1.510591
   54        1.780727
   55        1.782956
   56        1.870474
   57        1.872524
   58        2.245570
   59        2.246566
   60        2.246695
   61        2.250225
   62        2.428612
   63        2.626474
   64        2.628416
   65        6.234963
   66        6.239169
   67        6.429545
   68        6.435398
   69        6.436754
   70        6.438825
   71        6.530051
   72        6.845768
   73        6.850108
   74        6.958595
   75        6.963344
   76        7.429403
   77        9.027458
   78       11.632300
   79       11.635730
   80       11.886285
   81       12.072382
   82       12.073898
   83       12.179354
   84       12.185711
 
  0.2222222E+00 -0.1387779E-16  0.0000000E+00  0.6172840E-02
    1      -14.675324
    2      -14.535336
    3      -14.534926
    4      -14.385642
    5      -11.450609
    6      -11.337489
    7      -11.337156
    8      -11.218508
    9      -10.243759
   10      -10.241792
   11      -10.144982
   12      -10.143317
   13      -10.142759
   14      -10.141067
   15      -10.040398
   16      -10.038386
   17       -7.590464
   18       -7.587343
   19       -7.514740
   20       -7.512078
   21       -7.510400
   22       -7.509991
   23       -7.432132
   24       -7.429123
   25       -6.432540
   26       -6.358909
   27       -6.357133
   28       -6.280616
   29       -3.476564
   30       -2.610034
   31       -2.608371
   32       -2.577883
   33       -2.573632
   34       -2.541144
   35       -2.540608
   36       -2.537732
   37       -2.534770
   38       -2.502618
   39       -2.497972
   40       -1.557036
   41       -1.458788
   42       -1.433654
   43       -1.430933
   44       -1.405508
   45        0.285995
   46        0.523201
   47        0.542599
   48        0.546796
   49        0.566887
   50        0.983129
   51        0.984710
   52        1.066186
   53        1.081156
   54        1.085695
   55        1.099879
   56        1.560088
   57        1.562129
   58        1.773539
   59        2.124108
   60        2.125156
   61        2.125326
   62        2.128804
   63        2.682342
   64        2.684568
   65        6.479157
   66        6.483378
   67        6.763286
   68        6.768781
   69        6.769944
   70        6.771712
   71        7.264394
   72        7.268304
   73        7.655281
   74        8.066114
   75        8.069657
   76        8.639418
   77        9.294358
   78       11.860906
   79       11.864330
   80       12.002339
   81       12.181894
   82       12.183402
   83       12.346477
   84       13.016608
 
  0.3333333E+00 -0.2775558E-16  0.0000000E+00  0.6172840E-02
    1      -14.309182
    2      -14.172182
    3      -14.171782
    4      -14.025954
    5      -12.362559
    6      -12.241627
    7      -12.241276
    8      -12.113448
    9      -10.500665
   10      -10.498852
   11      -10.397312
   12      -10.395574
   13      -10.395232
   14      -10.393660
   15      -10.287634
   16      -10.285779
   17       -6.783389
   18       -6.780200
   19       -6.713884
   20       -6.710988
   21       -6.709254
   22       -6.709017
   23       -6.638800
   24       -6.635762
   25       -5.000104
   26       -4.936402
   27       -4.934434
   28       -4.868667
   29       -3.392907
   30       -3.389212
   31       -3.349348
   32       -3.349223
   33       -3.346744
   34       -3.343726
   35       -3.303917
   36       -3.299839
   37       -3.034385
   38       -2.180652
   39       -2.179002
   40       -1.145836
   41       -1.110439
   42       -1.086408
   43       -1.083460
   44       -1.058902
   45       -0.734076
   46       -0.662250
   47       -0.632272
   48       -0.628560
   49       -0.598310
   50        0.031322
   51        0.032832
   52        0.504843
   53        0.523131
   54        0.527207
   55        0.545452
   56        0.933059
   57        1.368631
   58        1.370604
   59        1.999729
   60        2.000855
   61        2.001070
   62        2.004501
   63        2.687403
   64        2.689725
   65        6.834975
   66        6.838716
   67        7.153659
   68        7.158738
   69        7.159587
   70        7.160768
   71        7.569278
   72        7.572369
   73        9.158404
   74        9.541585
   75        9.544644
   76        9.739684
   77       10.044853
   78       12.007134
   79       12.218833
   80       12.222545
   81       12.264307
   82       12.349204
   83       12.350902
   84       12.646071
 
  0.4444444E+00 -0.2775558E-16  0.0000000E+00  0.6172840E-02
    1      -13.799235
    2      -13.666485
    3      -13.666096
    4      -13.525036
    5      -13.148595
    6      -13.021188
    7      -13.020819
    8      -12.885796
    9      -10.633138
   10      -10.631397
   11      -10.528274
   12      -10.526442
   13      -10.526324
   14      -10.524729
   15      -10.416421
   16      -10.414638
   17       -6.036109
   18       -6.033283
   19       -5.986611
   20       -5.982768
   21       -5.982140
   22       -5.981572
   23       -5.933549
   24       -5.931185
   25       -4.140415
   26       -4.138268
   27       -4.105112
   28       -4.104014
   29       -4.103672
   30       -4.100181
   31       -4.064231
   32       -4.061435
   33       -3.520147
   34       -3.467698
   35       -3.465324
   36       -3.411259
   37       -2.422138
   38       -2.048429
   39       -2.007739
   40       -2.004869
   41       -1.962328
   42       -1.649381
   43       -1.587096
   44       -1.585614
   45       -0.842766
   46       -0.841231
   47       -0.645220
   48       -0.622307
   49       -0.619019
   50       -0.595960
   51       -0.580676
   52       -0.090923
   53       -0.069826
   54       -0.066287
   55       -0.045077
   56        0.122786
   57        1.262567
   58        1.264519
   59        1.924866
   60        1.926046
   61        1.926281
   62        1.929692
   63        2.674205
   64        2.676543
   65        7.119320
   66        7.122264
   67        7.419972
   68        7.424888
   69        7.425249
   70        7.425672
   71        7.738235
   72        7.740846
   73       10.360196
   74       10.779723
   75       11.077715
   76       11.081208
   77       11.148533
   78       11.498259
   79       12.370845
   80       12.401545
   81       12.411972
   82       12.458601
   83       12.541438
   84       12.543662
 
 -0.8470329E-21  0.1111111E+00  0.0000000E+00  0.6172840E-02
    1      -14.895769
    2      -14.753953
    3      -14.753535
    4      -14.602175
    5      -10.440882
    6      -10.339473
    7      -10.339134
    8      -10.233839
    9       -9.896561
   10       -9.894241
   11       -9.809810
   12       -9.807834
   13       -9.807093
   14       -9.805227
   15       -9.720359
   16       -9.718189
   17       -8.270853
   18       -8.266248
   19       -8.202587
   20       -8.199299
   21       -8.197747
   22       -8.194631
   23       -8.123228
   24       -8.118579
   25       -7.756927
   26       -7.677444
   27       -7.677207
   28       -7.593597
   29       -3.743588
   30       -2.869780
   31       -2.868108
   32       -1.972527
   33       -1.966964
   34       -1.943488
   35       -1.940848
   36       -1.937773
   37       -1.935369
   38       -1.911624
   39       -1.905979
   40       -1.806412
   41       -1.672090
   42       -1.645080
   43       -1.644991
   44       -1.617911
   45        1.304823
   46        1.348210
   47        1.360649
   48        1.361171
   49        1.373558
   50        1.489282
   51        1.500661
   52        1.501139
   53        1.512540
   54        1.779792
   55        1.782657
   56        1.872082
   57        1.872874
   58        2.243831
   59        2.246579
   60        2.246699
   61        2.249441
   62        2.429705
   63        2.625712
   64        2.628026
   65        6.235110
   66        6.240837
   67        6.430195
   68        6.435338
   69        6.437163
   70        6.442018
   71        6.528279
   72        6.844795
   73        6.847537
   74        6.958814
   75        6.965378
   76        7.427609
   77        9.027464
   78       11.632330
   79       11.635759
   80       11.886766
   81       12.073219
   82       12.073945
   83       12.179362
   84       12.185064
 
  0.1111111E+00  0.1111111E+00  0.0000000E+00  0.6172840E-02
    1      -14.748753
    2      -14.608154
    3      -14.607742
    4      -14.457751
    5      -10.904792
    6      -10.901803
    7      -10.798577
    8      -10.795450
    9      -10.795431
   10      -10.792555
   11      -10.684053
   12      -10.681006
   13       -9.457875
   14       -9.399538
   15       -9.398138
   16       -9.349711
   17       -8.390168
   18       -8.360771
   19       -8.357586
   20       -8.310601
   21       -7.075964
   22       -7.072847
   23       -6.999592
   24       -6.997157
   25       -6.997136
   26       -6.993118
   27       -6.917393
   28       -6.914005
   29       -3.565433
   30       -2.696469
   31       -2.694804
   32       -2.649403
   33       -2.612705
   34       -2.610490
   35       -2.573100
   36       -1.827865
   37       -1.824970
   38       -1.799760
   39       -1.795910
   40       -1.795905
   41       -1.794507
   42       -1.767514
   43       -1.765042
   44       -1.639963
   45        0.819186
   46        0.830690
   47        0.834339
   48        0.845909
   49        0.870708
   50        0.874693
   51        1.172454
   52        1.182641
   53        1.186861
   54        1.195901
   55        1.511745
   56        1.514844
   57        1.514994
   58        1.516737
   59        2.165013
   60        2.208418
   61        2.210766
   62        2.564005
   63        2.566595
   64        2.836611
   65        6.141806
   66        6.225880
   67        6.230833
   68        6.649606
   69        7.007441
   70        7.009825
   71        7.385378
   72        7.387158
   73        7.387577
   74        7.392146
   75        7.952938
   76        7.955649
   77        9.205450
   78       11.786327
   79       11.789749
   80       12.257747
   81       12.261816
   82       12.441953
   83       12.446574
   84       12.447170
 
  0.2222222E+00  0.1111111E+00  0.0000000E+00  0.6172840E-02
    1      -14.455437
    2      -14.317240
    3      -14.316837
    4      -14.169644
    5      -11.869096
    6      -11.752402
    7      -11.752059
    8      -11.629166
    9      -11.244398
   10      -11.133320
   11      -11.132974
   12      -11.016133
   13       -9.510111
   14       -9.426079
   15       -9.425344
   16       -9.340803
   17       -7.924886
   18       -7.861048
   19       -7.858383
   20       -7.787578
   21       -6.292889
   22       -6.221906
   23       -6.221449
   24       -6.147800
   25       -5.693648
   26       -5.625617
   27       -5.623817
   28       -5.553508
   29       -3.555806
   30       -3.511068
   31       -3.508891
   32       -3.462797
   33       -3.210765
   34       -2.352462
   35       -2.351611
   36       -2.350106
   37       -2.316587
   38       -2.316227
   39       -2.279676
   40       -1.540991
   41       -1.513372
   42       -1.510724
   43       -1.482778
   44       -1.309546
   45       -0.170241
   46       -0.133681
   47       -0.113730
   48       -0.108874
   49       -0.088847
   50        0.537296
   51        0.564228
   52        0.565700
   53        0.627875
   54        0.642134
   55        0.646930
   56        0.660891
   57        1.227906
   58        1.229108
   59        1.416815
   60        2.010809
   61        2.301021
   62        2.765589
   63        2.768051
   64        3.145687
   65        6.116193
   66        6.233476
   67        6.238030
   68        6.591404
   69        7.579478
   70        7.954757
   71        7.957114
   72        8.358682
   73        8.439266
   74        8.755422
   75        8.758442
   76        9.273427
   77        9.562478
   78       12.091585
   79       12.095095
   80       12.381484
   81       12.584122
   82       12.585616
   83       12.620483
   84       12.991500
 
  0.3333333E+00  0.1111111E+00  0.0000000E+00  0.6172840E-02
    1      -14.017384
    2      -13.882801
    3      -13.882410
    4      -13.739315
    5      -12.718699
    6      -12.594806
    7      -12.594446
    8      -12.463447
    9      -11.452321
   10      -11.339185
   11      -11.338821
   12      -11.219922
   13       -9.655313
   14       -9.561324
   15       -9.560978
   16       -9.463411
   17       -7.160562
   18       -7.096512
   19       -7.093997
   20       -7.027309
   21       -5.494836
   22       -5.436574
   23       -5.435444
   24       -5.375847
   25       -4.490480
   26       -4.444212
   27       -4.441884
   28       -4.392836
   29       -4.245000
   30       -4.187847
   31       -4.185838
   32       -4.127104
   33       -3.050612
   34       -3.012596
   35       -3.011424
   36       -2.971159
   37       -2.683285
   38       -1.840698
   39       -1.839007
   40       -1.379866
   41       -1.346593
   42       -1.342856
   43       -1.310307
   44       -1.143566
   45       -1.125124
   46       -1.099019
   47       -1.096201
   48       -1.069888
   49       -0.820925
   50       -0.357770
   51       -0.356280
   52        0.004012
   53        0.023564
   54        0.027963
   55        0.047618
   56        0.328760
   57        0.576641
   58        1.045010
   59        1.046343
   60        1.874854
   61        2.298916
   62        2.854698
   63        2.856749
   64        3.414850
   65        6.106208
   66        6.352143
   67        6.355775
   68        6.689022
   69        8.086897
   70        8.409042
   71        8.411191
   72        8.765937
   73        9.921682
   74       10.096916
   75       10.259556
   76       10.262591
   77       10.692347
   78       11.672970
   79       12.495461
   80       12.501270
   81       12.658126
   82       12.759965
   83       12.761556
   84       13.005564
 
  0.4444444E+00  0.1111111E+00  0.0000000E+00  0.6172840E-02
    1      -13.438606
    2      -13.435830
    3      -13.309983
    4      -13.307199
    5      -13.307076
    6      -13.304362
    7      -13.170658
    8      -13.167806
    9      -11.521979
   10      -11.408375
   11      -11.408001
   12      -11.288437
   13       -9.711346
   14       -9.615465
   15       -9.615182
   16       -9.515283
   17       -6.655247
   18       -6.614445
   19       -6.612087
   20       -6.573485
   21       -5.019318
   22       -5.005159
   23       -4.985880
   24       -4.982862
   25       -4.981361
   26       -4.978911
   27       -4.950989
   28       -4.947904
   29       -3.468069
   30       -3.446434
   31       -3.443440
   32       -3.416542
   33       -2.785225
   34       -2.782558
   35       -2.739185
   36       -2.738726
   37       -2.738677
   38       -2.733045
   39       -2.691410
   40       -2.687752
   41       -1.991102
   42       -1.988850
   43       -1.172459
   44       -1.169382
   45       -1.169154
   46       -1.166815
   47       -0.602945
   48       -0.596369
   49       -0.579528
   50       -0.572153
   51       -0.572086
   52       -0.570782
   53       -0.549732
   54       -0.546092
   55       -0.186341
   56       -0.183786
   57        0.257877
   58        0.982410
   59        0.983850
   60        1.827054
   61        2.286575
   62        2.876392
   63        2.877924
   64        3.512827
   65        6.115447
   66        6.419664
   67        6.422177
   68        6.743715
   69        8.307134
   70        8.586854
   71        8.589235
   72        8.867609
   73       10.804903
   74       10.805949
   75       11.512546
   76       11.515590
   77       11.748368
   78       11.751987
   79       11.752724
   80       11.759055
   81       12.104998
   82       12.108400
   83       12.872162
   84       12.883799
 
 -0.4444444E+00  0.1111111E+00  0.0000000E+00  0.6172840E-02
    1      -14.017492
    2      -13.882912
    3      -13.882516
    4      -13.739424
    5      -12.718532
    6      -12.594638
    7      -12.594279
    8      -12.463278
    9      -11.452543
   10      -11.339411
   11      -11.339038
   12      -11.220143
   13       -9.655191
   14       -9.561181
   15       -9.560900
   16       -9.463314
   17       -7.158048
   18       -7.093258
   19       -7.092453
   20       -7.025018
   21       -5.497465
   22       -5.439838
   23       -5.437236
   24       -5.378277
   25       -4.493187
   26       -4.446215
   27       -4.445546
   28       -4.395795
   29       -4.244988
   30       -4.187983
   31       -4.185618
   32       -4.127026
   33       -3.047607
   34       -3.010294
   35       -3.007366
   36       -2.967783
   37       -2.683317
   38       -1.840714
   39       -1.839032
   40       -1.380860
   41       -1.347077
   42       -1.344751
   43       -1.311799
   44       -1.143535
   45       -1.125301
   46       -1.099311
   47       -1.096106
   48       -1.069934
   49       -0.820924
   50       -0.357775
   51       -0.356242
   52        0.005768
   53        0.025489
   54        0.028459
   55        0.048574
   56        0.328875
   57        0.576618
   58        1.045071
   59        1.046623
   60        1.875132
   61        2.298336
   62        2.854507
   63        2.855515
   64        3.413980
   65        6.108731
   66        6.354918
   67        6.356866
   68        6.690273
   69        8.084964
   70        8.407104
   71        8.410206
   72        8.764997
   73        9.922045
   74       10.096858
   75       10.259809
   76       10.263148
   77       10.692842
   78       11.672988
   79       12.495931
   80       12.501699
   81       12.657168
   82       12.758502
   83       12.760905
   84       13.004243
 
 -0.3333333E+00  0.1111111E+00  0.0000000E+00  0.6172840E-02
    1      -14.455514
    2      -14.317320
    3      -14.316913
    4      -14.169722
    5      -11.868899
    6      -11.752201
    7      -11.751862
    8      -11.628963
    9      -11.244840
   10      -11.133762
   11      -11.133405
   12      -11.016565
   13       -9.509994
   14       -9.425754
   15       -9.425496
   16       -9.340748
   17       -7.921908
   18       -7.857008
   19       -7.856711
   20       -7.784786
   21       -6.295683
   22       -6.225474
   23       -6.223375
   24       -6.150505
   25       -5.693801
   26       -5.625827
   27       -5.623885
   28       -5.553632
   29       -3.559295
   30       -3.513645
   31       -3.513466
   32       -3.466470
   33       -3.210790
   34       -2.351818
   35       -2.350172
   36       -2.348344
   37       -2.313690
   38       -2.311104
   39       -2.275501
   40       -1.541025
   41       -1.513482
   42       -1.510598
   43       -1.482742
   44       -1.309547
   45       -0.170278
   46       -0.135904
   47       -0.115173
   48       -0.112874
   49       -0.092658
   50        0.537678
   51        0.564093
   52        0.565740
   53        0.632128
   54        0.646169
   55        0.648409
   56        0.663147
   57        1.228038
   58        1.229739
   59        1.416761
   60        2.011381
   61        2.299819
   62        2.765283
   63        2.765801
   64        3.144598
   65        6.119822
   66        6.238040
   67        6.240263
   68        6.594258
   69        7.576407
   70        7.951470
   71        7.955232
   72        8.358923
   73        8.437167
   74        8.755567
   75        8.758865
   76        9.273805
   77        9.562436
   78       12.091803
   79       12.095300
   80       12.380832
   81       12.583258
   82       12.585171
   83       12.619988
   84       12.991661
 
 -0.2222222E+00  0.1111111E+00  0.0000000E+00  0.6172840E-02
    1      -14.748800
    2      -14.608202
    3      -14.607787
    4      -14.457798
    5      -10.903850
    6      -10.903044
    7      -10.796274
    8      -10.795954
    9      -10.795460
   10      -10.795124
   11      -10.683167
   12      -10.682385
   13       -9.457875
   14       -9.398922
   15       -9.398741
   16       -9.349659
   17       -8.386998
   18       -8.356212
   19       -8.356082
   20       -8.307628
   21       -7.077444
   22       -7.074076
   23       -7.000806
   24       -6.998877
   25       -6.997381
   26       -6.995566
   27       -6.918850
   28       -6.915484
   29       -3.565449
   30       -2.696480
   31       -2.694817
   32       -2.653285
   33       -2.615647
   34       -2.615508
   35       -2.577196
   36       -1.826980
   37       -1.821409
   38       -1.798464
   39       -1.795813
   40       -1.792804
   41       -1.790314
   42       -1.766933
   43       -1.761269
   44       -1.639965
   45        0.814206
   46        0.826558
   47        0.827559
   48        0.839302
   49        0.871795
   50        0.873594
   51        1.180438
   52        1.190051
   53        1.190146
   54        1.200780
   55        1.513088
   56        1.514837
   57        1.514920
   58        1.516733
   59        2.163425
   60        2.209072
   61        2.210939
   62        2.563689
   63        2.563942
   64        2.835659
   65        6.145482
   66        6.231187
   67        6.233805
   68        6.653787
   69        7.004081
   70        7.009604
   71        7.381567
   72        7.385795
   73        7.387294
   74        7.391227
   75        7.950449
   76        7.955343
   77        9.205424
   78       11.786436
   79       11.789855
   80       12.259152
   81       12.265043
   82       12.444798
   83       12.447940
   84       12.451984
 
 -0.1111111E+00  0.1111111E+00  0.0000000E+00  0.6172840E-02
    1      -14.895785
    2      -14.753969
    3      -14.753551
    4      -14.602190
    5      -10.441575
    6      -10.340135
    7      -10.339825
    8      -10.234493
    9       -9.896181
   10       -9.893880
   11       -9.809652
   12       -9.806932
   13       -9.806917
   14       -9.805072
   15       -9.720079
   16       -9.717826
   17       -8.268147
   18       -8.266353
   19       -8.198693
   20       -8.197930
   21       -8.197914
   22       -8.194867
   23       -8.120760
   24       -8.118762
   25       -7.759486
   26       -7.680823
   27       -7.678844
   28       -7.596064
   29       -3.743594
   30       -2.869783
   31       -2.868112
   32       -1.973176
   33       -1.970572
   34       -1.944492
   35       -1.940818
   36       -1.940812
   37       -1.939772
   38       -1.912031
   39       -1.909826
   40       -1.806413
   41       -1.667868
   42       -1.641894
   43       -1.639432
   44       -1.613336
   45        1.305327
   46        1.341122
   47        1.353206
   48        1.357695
   49        1.368673
   50        1.494046
   51        1.504169
   52        1.508431
   53        1.520407
   54        1.779371
   55        1.781892
   56        1.872349
   57        1.874518
   58        2.242946
   59        2.246572
   60        2.246664
   61        2.247731
   62        2.430823
   63        2.625304
   64        2.627274
   65        6.238873
   66        6.241034
   67        6.435390
   68        6.437270
   69        6.437587
   70        6.443070
   71        6.524267
   72        6.839948
   73        6.844558
   74        6.962738
   75        6.965822
   76        7.423841
   77        9.027455
   78       11.632362
   79       11.635791
   80       11.891771
   81       12.078144
   82       12.079113
   83       12.177654
   84       12.181422
 
 -0.1694066E-20  0.2222222E+00  0.0000000E+00  0.6172840E-02
    1      -14.675330
    2      -14.535344
    3      -14.534931
    4      -14.385649
    5      -11.450643
    6      -11.337532
    7      -11.337182
    8      -11.218542
    9      -10.244183
   10      -10.241476
   11      -10.145804
   12      -10.143316
   13      -10.142755
   14      -10.140401
   15      -10.040775
   16      -10.038059
   17       -7.590790
   18       -7.586083
   19       -7.515414
   20       -7.512078
   21       -7.510381
   22       -7.507219
   23       -7.432405
   24       -7.427661
   25       -6.433409
   26       -6.359037
   27       -6.358808
   28       -6.281553
   29       -3.476545
   30       -2.610010
   31       -2.608351
   32       -2.579098
   33       -2.573761
   34       -2.543261
   35       -2.540609
   36       -2.537731
   37       -2.535252
   38       -2.503670
   39       -2.498236
   40       -1.557007
   41       -1.457292
   42       -1.431007
   43       -1.430909
   44       -1.404287
   45        0.286467
   46        0.521434
   47        0.542366
   48        0.542605
   49        0.563832
   50        0.983888
   51        0.985070
   52        1.069626
   53        1.085663
   54        1.085708
   55        1.101668
   56        1.559150
   57        1.562024
   58        1.774247
   59        2.122252
   60        2.125223
   61        2.125348
   62        2.128283
   63        2.681459
   64        2.684211
   65        6.479403
   66        6.485156
   67        6.763939
   68        6.768746
   69        6.770354
   70        6.774860
   71        7.264568
   72        7.270264
   73        7.653824
   74        8.065260
   75        8.067854
   76        8.638114
   77        9.294374
   78       11.861020
   79       11.864436
   80       12.002917
   81       12.182998
   82       12.183470
   83       12.347064
   84       13.023527
 
  0.1111111E+00  0.2222222E+00  0.0000000E+00  0.6172840E-02
    1      -14.455442
    2      -14.317246
    3      -14.316841
    4      -14.169649
    5      -11.869147
    6      -11.752468
    7      -11.752096
    8      -11.629218
    9      -11.244362
   10      -11.133277
   11      -11.132949
   12      -11.016100
   13       -9.510103
   14       -9.426078
   15       -9.425330
   16       -9.340797
   17       -7.924825
   18       -7.860925
   19       -7.858383
   20       -7.787516
   21       -6.291912
   22       -6.221484
   23       -6.219850
   24       -6.146755
   25       -5.694604
   26       -5.625863
   27       -5.625566
   28       -5.554550
   29       -3.555882
   30       -3.511068
   31       -3.509055
   32       -3.462886
   33       -3.210749
   34       -2.353765
   35       -2.351705
   36       -2.350095
   37       -2.318932
   38       -2.316574
   39       -2.280960
   40       -1.539448
   41       -1.510738
   42       -1.510538
   43       -1.481468
   44       -1.309523
   45       -0.169904
   46       -0.134393
   47       -0.113729
   48       -0.110871
   49       -0.090597