 vasp.5.3.5 31Mar14 (build Nov 02 2014 15:17:37) complex                        
  
 executed on        ion-Intel-MKL date 2016.10.17  11:36:34
 running on    6 total cores
 distrk:  each k-point on    6 cores,    1 groups
 distr:  one band on NCORES_PER_BAND=   1 cores,    6 groups


--------------------------------------------------------------------------------------------------------


 INCAR:
 POTCAR:   PAW_PBE C 08Apr2002                    

 ----------------------------------------------------------------------------- 
|                                                                             |
|           W    W    AA    RRRRR   N    N  II  N    N   GGGG   !!!           |
|           W    W   A  A   R    R  NN   N  II  NN   N  G    G  !!!           |
|           W    W  A    A  R    R  N N  N  II  N N  N  G       !!!           |
|           W WW W  AAAAAA  RRRRR   N  N N  II  N  N N  G  GGG   !            |
|           WW  WW  A    A  R   R   N   NN  II  N   NN  G    G                |
|           W    W  A    A  R    R  N    N  II  N    N   GGGG   !!!           |
|                                                                             |
|      For optimal performance we recommend to set                            |
|        NCORE= 4 - approx SQRT( number of cores)                             |
|      NCORE specifies how many cores store one orbital (NPAR=cpu/NCORE).     |
|      This setting can  greatly improve the performance of VASP for DFT.     |
|      The default, NPAR=number of cores might be grossly inefficient         |
|      on modern multi-core architectures or massively parallel machines.     |
|      Do your own testing !!!!                                               |
|      Unfortunately you need to use the default for GW and RPA calculations. |
|      (for HF NCORE is supported but not extensively tested yet)             |
|                                                                             |
 ----------------------------------------------------------------------------- 

 POTCAR:   PAW_PBE C 08Apr2002                    
   VRHFIN =C: s2p2                                                              
   LEXCH  = PE                                                                  
   EATOM  =   147.1560 eV,   10.8157 Ry                                         
                                                                                
   TITEL  = PAW_PBE C 08Apr2002                                                 
   LULTRA =        F    use ultrasoft PP ?                                      
   IUNSCR =        0    unscreen: 0-lin 1-nonlin 2-no                           
   RPACOR =     .000    partial core radius                                     
   POMASS =   12.011; ZVAL   =    4.000    mass and valenz                      
   RCORE  =    1.500    outmost cutoff radius                                   
   RWIGS  =    1.630; RWIGS  =     .863    wigner-seitz radius (au A)           
   ENMAX  =  400.000; ENMIN  =  300.000 eV                                      
   ICORE  =        2    local potential                                         
   LCOR   =        T    correct aug charges                                     
   LPAW   =        T    paw PP                                                  
   EAUG   =  644.873                                                            
   DEXC   =     .000                                                            
   RMAX   =    2.266    core radius for proj-oper                               
   RAUG   =    1.300    factor for augmentation sphere                          
   RDEP   =    1.501    radius for radial grids                                 
   RDEPT  =    1.300    core radius for aug-charge                              
   QCUT   =   -5.516; QGAM   =   11.032    optimization parameters              
                                                                                
   Description                                                                  
     l     E      TYP  RCUT    TYP  RCUT                                        
     0   .000     23  1.200                                                     
     0   .000     23  1.200                                                     
     1   .000     23  1.500                                                     
     1  2.500     23  1.500                                                     
     2   .000      7  1.500                                                     
  local pseudopotential read in
  atomic valenz-charges read in
  non local Contribution for L=           0  read in
    real space projection operators read in
  non local Contribution for L=           0  read in
    real space projection operators read in
  non local Contribution for L=           1  read in
    real space projection operators read in
  non local Contribution for L=           1  read in
    real space projection operators read in
    PAW grid and wavefunctions read in
 
   number of l-projection  operators is LMAX  =           4
   number of lm-projection operators is LMMAX =           8
 

 ----------------------------------------------------------------------------- 
|                                                                             |
|  ADVICE TO THIS USER RUNNING 'VASP/VAMP'   (HEAR YOUR MASTER'S VOICE ...):  |
|                                                                             |
|      You have a (more or less) 'large supercell' and for larger cells       |
|      it might be more efficient to use real space projection operators      |
|      So try LREAL= Auto  in the INCAR   file.                               |
|      Mind: If you want to do a very accurate calculations keep the          |
|      reciprocal projection scheme          (i.e. LREAL=.FALSE.)             |
|                                                                             |
 ----------------------------------------------------------------------------- 

 PAW_PBE C 08Apr2002                    :
 energy of atom  1       EATOM= -147.1560
 kinetic energy error for atom=    0.0016 (will be added to EATOM!!)
 
 
 POSCAR: C                                       
  positions in direct lattice
  No initial velocities read in
 exchange correlation table for  LEXCH =        8
   RHO(1)=    0.500       N(1)  =     2000
   RHO(2)=  100.500       N(2)  =     4000
 


--------------------------------------------------------------------------------------------------------


 ion  position               nearest neighbor table
   1  0.500  0.000  0.126-  20 1.42  18 1.42  19 1.43
   2  1.000  0.000  0.125-  17 1.42  20 1.42  19 1.42
   3  0.500  0.500  0.125-  20 1.42  17 1.42  18 1.42
   4  1.000  0.500  0.125-  19 1.42  18 1.42  17 1.42
   5  0.500  0.000  0.625-  22 1.42  23 1.42  24 1.42
   6  1.000  0.000  0.625-  21 1.42  24 1.42  23 1.42
   7  0.500  0.500  0.625-  24 1.42  21 1.42  22 1.42
   8  1.000  0.500  0.625-  23 1.42  22 1.42  21 1.42
   9  0.000  0.500  0.375-  27 1.42  26 1.42  28 1.42
  10  0.500  0.500  0.375-  28 1.42  25 1.42  27 1.42
  11  0.000  1.000  0.375-  25 1.42  28 1.42  26 1.42
  12  0.500  1.000  0.375-  26 1.42  27 1.42  25 1.42
  13  0.000  0.500  0.875-  31 1.42  30 1.42  32 1.42
  14  0.500  0.500  0.875-  32 1.42  29 1.42  31 1.42
  15  0.000  1.000  0.875-  29 1.42  32 1.42  30 1.42
  16  0.500  1.000  0.875-  30 1.42  31 1.42  29 1.42
  17  0.166  0.334  0.125-   2 1.42   3 1.42   4 1.42
  18  0.666  0.334  0.125-   4 1.42   1 1.42   3 1.42
  19  0.166  0.834  0.125-   4 1.42   2 1.42   1 1.43
  20  0.666  0.834  0.125-   1 1.42   3 1.42   2 1.42
  21  0.166  0.334  0.625-   6 1.42   7 1.42   8 1.42
  22  0.666  0.334  0.625-   5 1.42   8 1.42   7 1.42
  23  0.166  0.834  0.625-   8 1.42   5 1.42   6 1.42
  24  0.666  0.834  0.625-   7 1.42   6 1.42   5 1.42
  25  0.334  0.166  0.375-  11 1.42  10 1.42  12 1.42
  26  0.834  0.166  0.375-  12 1.42   9 1.42  11 1.42
  27  0.334  0.666  0.375-   9 1.42  12 1.42  10 1.42
  28  0.834  0.666  0.375-  10 1.42  11 1.42   9 1.42
  29  0.334  0.166  0.875-  15 1.42  14 1.42  16 1.42
  30  0.834  0.166  0.875-  16 1.42  13 1.42  15 1.42
  31  0.334  0.666  0.875-  13 1.42  16 1.42  14 1.42
  32  0.834  0.666  0.875-  14 1.42  15 1.42  13 1.42
 
  LATTYP: Found a base centered orthorhombic cell.
 ALAT       =     4.9295501972
 B/A-ratio  =     1.7336081796
 C/A-ratio  =     2.8251414374
  
  Lattice vectors:
  
 A1 = (   4.9328744980,  -0.0019192860,   0.0000000000)
 A2 = (  -2.4680993993,   4.2710349859,   0.0000000000)
 A3 = (   0.0000000000,   0.0000000000,  13.9266765300)


Analysis of symmetry for initial positions (statically):
=====================================================================
 Subroutine PRICEL returns:
 Original cell was already a primitive cell.
 

 Routine SETGRP: Setting up the symmetry group for a 
 base centered orthorhombic supercell.


 Subroutine GETGRP returns: Found  1 space group operations
 (whereof  1 operations were pure point group operations)
 out of a pool of  8 trial point group operations.


The static configuration has the point symmetry C_1 .


Analysis of symmetry for dynamics (positions and initial velocities):
=====================================================================
 Subroutine PRICEL returns:
 Original cell was already a primitive cell.
 

 Routine SETGRP: Setting up the symmetry group for a 
 base centered orthorhombic supercell.


 Subroutine GETGRP returns: Found  1 space group operations
 (whereof  1 operations were pure point group operations)
 out of a pool of  8 trial point group operations.


The dynamic configuration has the point symmetry C_1 .
 
 
 KPOINTS: B4C B11C-CBC                            

Automatic generation of k-mesh.
Space group operators:
 irot       det(A)        alpha          n_x          n_y          n_z        tau_x        tau_y        tau_z
    1     1.000000     0.000000     1.000000     0.000000     0.000000     0.000000     0.000000     0.000000
 
 Subroutine IBZKPT returns following result:
 ===========================================
 
 Found     76 irreducible k-points:
 
 Following reciprocal coordinates:
            Coordinates               Weight
  0.000000  0.000000  0.000000      1.000000
  0.166667 -0.000000  0.000000      2.000000
  0.333333 -0.000000  0.000000      2.000000
  0.500000 -0.000000  0.000000      1.000000
  0.000000  0.166667  0.000000      2.000000
  0.166667  0.166667  0.000000      2.000000
  0.333333  0.166667  0.000000      2.000000
  0.500000  0.166667  0.000000      2.000000
 -0.333333  0.166667  0.000000      2.000000
 -0.166667  0.166667  0.000000      2.000000
  0.000000  0.333333  0.000000      2.000000
  0.166667  0.333333  0.000000      2.000000
  0.333333  0.333333  0.000000      2.000000
  0.500000  0.333333  0.000000      2.000000
 -0.333333  0.333333  0.000000      2.000000
 -0.166667  0.333333  0.000000      2.000000
  0.000000  0.500000  0.000000      1.000000
  0.166667  0.500000  0.000000      2.000000
  0.333333  0.500000  0.000000      2.000000
  0.500000  0.500000  0.000000      1.000000
  0.000000  0.000000  0.250000      2.000000
  0.166667 -0.000000  0.250000      2.000000
  0.333333 -0.000000  0.250000      2.000000
  0.500000 -0.000000  0.250000      2.000000
 -0.333333  0.000000  0.250000      2.000000
 -0.166667  0.000000  0.250000      2.000000
  0.000000  0.166667  0.250000      2.000000
  0.166667  0.166667  0.250000      2.000000
  0.333333  0.166667  0.250000      2.000000
  0.500000  0.166667  0.250000      2.000000
 -0.333333  0.166667  0.250000      2.000000
 -0.166667  0.166667  0.250000      2.000000
  0.000000  0.333333  0.250000      2.000000
  0.166667  0.333333  0.250000      2.000000
  0.333333  0.333333  0.250000      2.000000
  0.500000  0.333333  0.250000      2.000000
 -0.333333  0.333333  0.250000      2.000000
 -0.166667  0.333333  0.250000      2.000000
  0.000000  0.500000  0.250000      2.000000
  0.166667  0.500000  0.250000      2.000000
  0.333333  0.500000  0.250000      2.000000
  0.500000  0.500000  0.250000      2.000000
 -0.333333  0.500000  0.250000      2.000000
 -0.166667  0.500000  0.250000      2.000000
  0.000000 -0.333333  0.250000      2.000000
  0.166667 -0.333333  0.250000      2.000000
  0.333333 -0.333333  0.250000      2.000000
  0.500000 -0.333333  0.250000      2.000000
 -0.333333 -0.333333  0.250000      2.000000
 -0.166667 -0.333333  0.250000      2.000000
 -0.000000 -0.166667  0.250000      2.000000
  0.166667 -0.166667  0.250000      2.000000
  0.333333 -0.166667  0.250000      2.000000
  0.500000 -0.166667  0.250000      2.000000
 -0.333333 -0.166667  0.250000      2.000000
 -0.166667 -0.166667  0.250000      2.000000
  0.000000  0.000000  0.500000      1.000000
  0.166667 -0.000000  0.500000      2.000000
  0.333333 -0.000000  0.500000      2.000000
  0.500000 -0.000000  0.500000      1.000000
  0.000000  0.166667  0.500000      2.000000
  0.166667  0.166667  0.500000      2.000000
  0.333333  0.166667  0.500000      2.000000
  0.500000  0.166667  0.500000      2.000000
 -0.333333  0.166667  0.500000      2.000000
 -0.166667  0.166667  0.500000      2.000000
  0.000000  0.333333  0.500000      2.000000
  0.166667  0.333333  0.500000      2.000000
  0.333333  0.333333  0.500000      2.000000
  0.500000  0.333333  0.500000      2.000000
 -0.333333  0.333333  0.500000      2.000000
 -0.166667  0.333333  0.500000      2.000000
  0.000000  0.500000  0.500000      1.000000
  0.166667  0.500000  0.500000      2.000000
  0.333333  0.500000  0.500000      2.000000
  0.500000  0.500000  0.500000      1.000000
 
 Following cartesian coordinates:
            Coordinates               Weight
  0.000000  0.000000  0.000000      1.000000
  0.033795  0.019529  0.000000      2.000000
  0.067589  0.039058  0.000000      2.000000
  0.101384  0.058586  0.000000      1.000000
  0.000015  0.039031  0.000000      2.000000
  0.033810  0.058560  0.000000      2.000000
  0.067604  0.078089  0.000000      2.000000
  0.101399  0.097618  0.000000      2.000000
 -0.067574 -0.000026  0.000000      2.000000
 -0.033779  0.019503  0.000000      2.000000
  0.000030  0.078063  0.000000      2.000000
  0.033825  0.097591  0.000000      2.000000
  0.067619  0.117120  0.000000      2.000000
  0.101414  0.136649  0.000000      2.000000
 -0.067559  0.039005  0.000000      2.000000
 -0.033764  0.058534  0.000000      2.000000
  0.000046  0.117094  0.000000      1.000000
  0.033840  0.136623  0.000000      2.000000
  0.067635  0.156152  0.000000      2.000000
  0.101429  0.175680  0.000000      1.000000
  0.000000  0.000000  0.017951      2.000000
  0.033795  0.019529  0.017951      2.000000
  0.067589  0.039058  0.017951      2.000000
  0.101384  0.058586  0.017951      2.000000
 -0.067589 -0.039058  0.017951      2.000000
 -0.033795 -0.019529  0.017951      2.000000
  0.000015  0.039031  0.017951      2.000000
  0.033810  0.058560  0.017951      2.000000
  0.067604  0.078089  0.017951      2.000000
  0.101399  0.097618  0.017951      2.000000
 -0.067574 -0.000026  0.017951      2.000000
 -0.033779  0.019503  0.017951      2.000000
  0.000030  0.078063  0.017951      2.000000
  0.033825  0.097591  0.017951      2.000000
  0.067619  0.117120  0.017951      2.000000
  0.101414  0.136649  0.017951      2.000000
 -0.067559  0.039005  0.017951      2.000000
 -0.033764  0.058534  0.017951      2.000000
  0.000046  0.117094  0.017951      2.000000
  0.033840  0.136623  0.017951      2.000000
  0.067635  0.156152  0.017951      2.000000
  0.101429  0.175680  0.017951      2.000000
 -0.067543  0.078036  0.017951      2.000000
 -0.033749  0.097565  0.017951      2.000000
 -0.000030 -0.078063  0.017951      2.000000
  0.033764 -0.058534  0.017951      2.000000
  0.067559 -0.039005  0.017951      2.000000
  0.101353 -0.019476  0.017951      2.000000
 -0.067619 -0.117120  0.017951      2.000000
 -0.033825 -0.097591  0.017951      2.000000
 -0.000015 -0.039031  0.017951      2.000000
  0.033779 -0.019503  0.017951      2.000000
  0.067574  0.000026  0.017951      2.000000
  0.101368  0.019555  0.017951      2.000000
 -0.067604 -0.078089  0.017951      2.000000
 -0.033810 -0.058560  0.017951      2.000000
  0.000000  0.000000  0.035902      1.000000
  0.033795  0.019529  0.035902      2.000000
  0.067589  0.039058  0.035902      2.000000
  0.101384  0.058586  0.035902      1.000000
  0.000015  0.039031  0.035902      2.000000
  0.033810  0.058560  0.035902      2.000000
  0.067604  0.078089  0.035902      2.000000
  0.101399  0.097618  0.035902      2.000000
 -0.067574 -0.000026  0.035902      2.000000
 -0.033779  0.019503  0.035902      2.000000
  0.000030  0.078063  0.035902      2.000000
  0.033825  0.097591  0.035902      2.000000
  0.067619  0.117120  0.035902      2.000000
  0.101414  0.136649  0.035902      2.000000
 -0.067559  0.039005  0.035902      2.000000
 -0.033764  0.058534  0.035902      2.000000
  0.000046  0.117094  0.035902      1.000000
  0.033840  0.136623  0.035902      2.000000
  0.067635  0.156152  0.035902      2.000000
  0.101429  0.175680  0.035902      1.000000
 
 TETIRR: Found    432 inequivalent tetrahedra from      864


--------------------------------------------------------------------------------------------------------




 Dimension of arrays:
   k-points           NKPTS =     76   k-points in BZ     NKDIM =     76   number of bands    NBANDS=     84
   number of dos      NEDOS =    301   number of ions     NIONS =     32
   non local maximal  LDIM  =      4   non local SUM 2l+1 LMDIM =      8
   total plane-waves  NPLWV = 294912
   max r-space proj   IRMAX =      1   max aug-charges    IRDMAX=  12062
   dimension x,y,z NGX =    48 NGY =   48 NGZ =  128
   dimension x,y,z NGXF=    96 NGYF=   96 NGZF=  256
   support grid    NGXF=    96 NGYF=   96 NGZF=  256
   ions per type =              32
 NGX,Y,Z   is equivalent  to a cutoff of  16.18, 16.18, 15.28 a.u.
 NGXF,Y,Z  is equivalent  to a cutoff of  32.35, 32.35, 30.56 a.u.


 I would recommend the setting:
   dimension x,y,z NGX =    46 NGY =   46 NGZ =  128
 SYSTEM =  graphite                                
 POSCAR =  C                                       

 Startparameter for this run:
   NWRITE =      2    write-flag & timer
   PREC   = accura    normal or accurate (medium, high low for compatibility)
   ISTART =      0    job   : 0-new  1-cont  2-samecut
   ICHARG =      2    charge: 1-file 2-atom 10-const
   ISPIN  =      1    spin polarized calculation?
   LNONCOLLINEAR =      F non collinear calculations
   LSORBIT =      F    spin-orbit coupling
   INIWAV =      1    electr: 0-lowe 1-rand  2-diag
   LASPH  =      F    aspherical Exc in radial PAW
   METAGGA=      F    non-selfconsistent MetaGGA calc.

 Electronic Relaxation 1
   ENCUT  =  800.0 eV  58.80 Ry    7.67 a.u.  11.38 11.38 32.12*2*pi/ulx,y,z
   ENINI  =  800.0     initial cutoff
   ENAUG  =  644.9 eV  augmentation charge cutoff
   NELM   =    200;   NELMIN=  2; NELMDL=  0     # of ELM steps 
   EDIFF  = 0.1E-07   stopping-criterion for ELM
   LREAL  =      F    real-space projection
   NLSPLINE    = F    spline interpolate recip. space projectors
   LCOMPAT=      F    compatible to vasp.4.4
   GGA_COMPAT  = T    GGA compatible to vasp.4.4-vasp.4.6
   LMAXPAW     = -100 max onsite density
   LMAXMIX     =    2 max onsite mixed and CHGCAR
   VOSKOWN=      0    Vosko Wilk Nusair interpolation
   ROPT   =    0.00000
 Ionic relaxation
   EDIFFG = 0.1E-02   stopping-criterion for IOM
   NSW    =      0    number of steps for IOM
   NBLOCK =      1;   KBLOCK =      1    inner block; outer block 
   IBRION =     -1    ionic relax: 0-MD 1-quasi-New 2-CG
   NFREE  =      0    steps in history (QN), initial steepest desc. (CG)
   ISIF   =      2    stress and relaxation
   IWAVPR =     10    prediction:  0-non 1-charg 2-wave 3-comb
   ISYM   =      2    0-nonsym 1-usesym 2-fastsym
   LCORR  =      T    Harris-Foulkes like correction to forces

   POTIM  = 0.5000    time-step for ionic-motion
   TEIN   =    0.0    initial temperature
   TEBEG  =    0.0;   TEEND  =   0.0 temperature during run
   SMASS  =  -3.00    Nose mass-parameter (am)
   estimated Nose-frequenzy (Omega)   =  0.10E-29 period in steps =****** mass=  -0.556E-27a.u.
   SCALEE = 1.0000    scale energy and forces
   NPACO  =    256;   APACO  = 16.0  distance and # of slots for P.C.
   PSTRESS=    0.0 pullay stress

  Mass of Ions in am
   POMASS =  12.01
  Ionic Valenz
   ZVAL   =   4.00
  Atomic Wigner-Seitz radii
   RWIGS  =  -1.00
  virtual crystal weights 
   VCA    =   1.00
   NELECT =     128.0000    total number of electrons
   NUPDOWN=      -1.0000    fix difference up-down

 DOS related values:
   EMIN   =  10.00;   EMAX   =-10.00  energy-range for DOS
   EFERMI =   0.00
   ISMEAR =    -5;   SIGMA  =   0.20  broadening in eV -4-tet -1-fermi 0-gaus

 Electronic relaxation 2 (details)
   IALGO  =     38    algorithm
   LDIAG  =      T    sub-space diagonalisation (order eigenvalues)
   LSUBROT=      F    optimize rotation matrix (better conditioning)
   TURBO    =      0    0=normal 1=particle mesh
   IRESTART =      0    0=no restart 2=restart with 2 vectors
   NREBOOT  =      0    no. of reboots
   NMIN     =      0    reboot dimension
   EREF     =   0.00    reference energy to select bands
   IMIX   =      4    mixing-type and parameters
     AMIX     =   0.40;   BMIX     =  1.00
     AMIX_MAG =   1.60;   BMIX_MAG =  1.00
     AMIN     =   0.10
     WC   =   100.;   INIMIX=   1;  MIXPRE=   1;  MAXMIX= -45

 Intra band minimization:
   WEIMIN = 0.0000     energy-eigenvalue tresh-hold
   EBREAK =  0.30E-10  absolut break condition
   DEPER  =   0.30     relativ break condition  

   TIME   =   0.40     timestep for ELM

  volume/ion in A,a.u.               =       9.17        61.86
  Fermi-wavevector in a.u.,A,eV,Ry     =   1.241701  2.346475 20.977764  1.541822
  Thomas-Fermi vector in A             =   2.376088
 
 Write flags
   LWAVE  =      F    write WAVECAR
   LCHARG =      F    write CHGCAR
   LVTOT  =      F    write LOCPOT, total local potential
   LVHAR  =      F    write LOCPOT, Hartree potential only
   LELF   =      F    write electronic localiz. function (ELF)
   LORBIT =      0    0 simple, 1 ext, 2 COOP (PROOUT)


 Dipole corrections
   LMONO  =      F    monopole corrections only (constant potential shift)
   LDIPOL =      F    correct potential (dipole corrections)
   IDIPOL =      0    1-x, 2-y, 3-z, 4-all directions 
   EPSILON=  1.0000000 bulk dielectric constant

 Exchange correlation treatment:
   GGA     =    PE    GGA type
   LEXCH   =     8    internal setting for exchange type
   VOSKOWN=      0    Vosko Wilk Nusair interpolation
   LHFCALC =     F    Hartree Fock is set to
   LHFONE  =     F    Hartree Fock one center treatment
   AEXX    =    0.0000 exact exchange contribution

 Linear response parameters
   LEPSILON=     F    determine dielectric tensor
   LRPA    =     F    only Hartree local field effects (RPA)
   LNABLA  =     F    use nabla operator in PAW spheres
   LVEL    =     F    velocity operator in full k-point grid
   LINTERFAST=   F  fast interpolation
   KINTER  =     0    interpolate to denser k-point grid
   CSHIFT  =0.1000    complex shift for real part using Kramers Kronig
   OMEGAMAX=  -1.0    maximum frequency
   DEG_THRESHOLD= 0.2000000E-02 threshold for treating states as degnerate
   RTIME   =    0.100 relaxation time in fs

 Orbital magnetization related:
   ORBITALMAG=     F  switch on orbital magnetization
   LCHIMAG   =     F  perturbation theory with respect to B field
   DQ        =  0.001000  dq finite difference perturbation B field



--------------------------------------------------------------------------------------------------------


 Static calculation
 charge density and potential will be updated during run
 non-spin polarized calculation
 Variant of blocked Davidson
 Davidson routine will perform the subspace rotation
 perform sub-space diagonalisation
    after iterative eigenvector-optimisation
 modified Broyden-mixing scheme, WC =      100.0
 initial mixing is a Kerker type mixing with AMIX =  0.4000 and BMIX =      1.0000
 Hartree-type preconditioning will be used
 using additional bands           20
 reciprocal scheme for non local part
 calculate Harris-corrections to forces 
   (improved forces if not selfconsistent)
 use gradient corrections 
 use of overlap-Matrix (Vanderbilt PP)
 Fermi weights with tetrahedron method with Bloechl corrections


--------------------------------------------------------------------------------------------------------


  energy-cutoff  :      800.00
  volume of cell :      293.35
      direct lattice vectors                 reciprocal lattice vectors
     4.932874498 -0.001919286  0.000000000     0.202767147  0.117172881  0.000000000
    -2.468099399  4.271034986  0.000000000     0.000091118  0.234187941  0.000000000
     0.000000000  0.000000000 13.926676530     0.000000000  0.000000000  0.071804640

  length of vectors
     4.932874871  4.932874871 13.926676530     0.234187958  0.234187958  0.071804640


 
 k-points in units of 2pi/SCALE and weight: B4C B11C-CBC                            
   0.00000000  0.00000000  0.00000000       0.007
   0.03379452  0.01952881  0.00000000       0.014
   0.06758905  0.03905763  0.00000000       0.014
   0.10138357  0.05858644  0.00000000       0.007
   0.00001519  0.03903132  0.00000000       0.014
   0.03380971  0.05856014  0.00000000       0.014
   0.06760424  0.07808895  0.00000000       0.014
   0.10139876  0.09761776  0.00000000       0.014
  -0.06757386 -0.00002630  0.00000000       0.014
  -0.03377934  0.01950251  0.00000000       0.014
   0.00003037  0.07806265  0.00000000       0.014
   0.03382490  0.09759146  0.00000000       0.014
   0.06761942  0.11712027  0.00000000       0.014
   0.10141395  0.13664909  0.00000000       0.014
  -0.06755868  0.03900502  0.00000000       0.014
  -0.03376415  0.05853383  0.00000000       0.014
   0.00004556  0.11709397  0.00000000       0.007
   0.03384008  0.13662278  0.00000000       0.014
   0.06763461  0.15615160  0.00000000       0.014
   0.10142913  0.17568041  0.00000000       0.007
   0.00000000  0.00000000  0.01795116       0.014
   0.03379452  0.01952881  0.01795116       0.014
   0.06758905  0.03905763  0.01795116       0.014
   0.10138357  0.05858644  0.01795116       0.014
  -0.06758905 -0.03905763  0.01795116       0.014
  -0.03379452 -0.01952881  0.01795116       0.014
   0.00001519  0.03903132  0.01795116       0.014
   0.03380971  0.05856014  0.01795116       0.014
   0.06760424  0.07808895  0.01795116       0.014
   0.10139876  0.09761776  0.01795116       0.014
  -0.06757386 -0.00002630  0.01795116       0.014
  -0.03377934  0.01950251  0.01795116       0.014
   0.00003037  0.07806265  0.01795116       0.014
   0.03382490  0.09759146  0.01795116       0.014
   0.06761942  0.11712027  0.01795116       0.014
   0.10141395  0.13664909  0.01795116       0.014
  -0.06755868  0.03900502  0.01795116       0.014
  -0.03376415  0.05853383  0.01795116       0.014
   0.00004556  0.11709397  0.01795116       0.014
   0.03384008  0.13662278  0.01795116       0.014
   0.06763461  0.15615160  0.01795116       0.014
   0.10142913  0.17568041  0.01795116       0.014
  -0.06754349  0.07803634  0.01795116       0.014
  -0.03374897  0.09756516  0.01795116       0.014
  -0.00003037 -0.07806265  0.01795116       0.014
   0.03376415 -0.05853383  0.01795116       0.014
   0.06755868 -0.03900502  0.01795116       0.014
   0.10135320 -0.01947621  0.01795116       0.014
  -0.06761942 -0.11712027  0.01795116       0.014
  -0.03382490 -0.09759146  0.01795116       0.014
  -0.00001519 -0.03903132  0.01795116       0.014
   0.03377934 -0.01950251  0.01795116       0.014
   0.06757386  0.00002630  0.01795116       0.014
   0.10136839  0.01955512  0.01795116       0.014
  -0.06760424 -0.07808895  0.01795116       0.014
  -0.03380971 -0.05856014  0.01795116       0.014
   0.00000000  0.00000000  0.03590232       0.007
   0.03379452  0.01952881  0.03590232       0.014
   0.06758905  0.03905763  0.03590232       0.014
   0.10138357  0.05858644  0.03590232       0.007
   0.00001519  0.03903132  0.03590232       0.014
   0.03380971  0.05856014  0.03590232       0.014
   0.06760424  0.07808895  0.03590232       0.014
   0.10139876  0.09761776  0.03590232       0.014
  -0.06757386 -0.00002630  0.03590232       0.014
  -0.03377934  0.01950251  0.03590232       0.014
   0.00003037  0.07806265  0.03590232       0.014
   0.03382490  0.09759146  0.03590232       0.014
   0.06761942  0.11712027  0.03590232       0.014
   0.10141395  0.13664909  0.03590232       0.014
  -0.06755868  0.03900502  0.03590232       0.014
  -0.03376415  0.05853383  0.03590232       0.014
   0.00004556  0.11709397  0.03590232       0.007
   0.03384008  0.13662278  0.03590232       0.014
   0.06763461  0.15615160  0.03590232       0.014
   0.10142913  0.17568041  0.03590232       0.007
 
 k-points in reciprocal lattice and weights: B4C B11C-CBC                            
   0.00000000  0.00000000  0.00000000       0.007
   0.16666667 -0.00000000  0.00000000       0.014
   0.33333333 -0.00000000  0.00000000       0.014
   0.50000000 -0.00000000  0.00000000       0.007
   0.00000000  0.16666667  0.00000000       0.014
   0.16666667  0.16666667  0.00000000       0.014
   0.33333333  0.16666667  0.00000000       0.014
   0.50000000  0.16666667  0.00000000       0.014
  -0.33333333  0.16666667  0.00000000       0.014
  -0.16666667  0.16666667  0.00000000       0.014
   0.00000000  0.33333333  0.00000000       0.014
   0.16666667  0.33333333  0.00000000       0.014
   0.33333333  0.33333333  0.00000000       0.014
   0.50000000  0.33333333  0.00000000       0.014
  -0.33333333  0.33333333  0.00000000       0.014
  -0.16666667  0.33333333  0.00000000       0.014
   0.00000000  0.50000000  0.00000000       0.007
   0.16666667  0.50000000  0.00000000       0.014
   0.33333333  0.50000000  0.00000000       0.014
   0.50000000  0.50000000  0.00000000       0.007
   0.00000000  0.00000000  0.25000000       0.014
   0.16666667 -0.00000000  0.25000000       0.014
   0.33333333 -0.00000000  0.25000000       0.014
   0.50000000 -0.00000000  0.25000000       0.014
  -0.33333333  0.00000000  0.25000000       0.014
  -0.16666667  0.00000000  0.25000000       0.014
   0.00000000  0.16666667  0.25000000       0.014
   0.16666667  0.16666667  0.25000000       0.014
   0.33333333  0.16666667  0.25000000       0.014
   0.50000000  0.16666667  0.25000000       0.014
  -0.33333333  0.16666667  0.25000000       0.014
  -0.16666667  0.16666667  0.25000000       0.014
   0.00000000  0.33333333  0.25000000       0.014
   0.16666667  0.33333333  0.25000000       0.014
   0.33333333  0.33333333  0.25000000       0.014
   0.50000000  0.33333333  0.25000000       0.014
  -0.33333333  0.33333333  0.25000000       0.014
  -0.16666667  0.33333333  0.25000000       0.014
   0.00000000  0.50000000  0.25000000       0.014
   0.16666667  0.50000000  0.25000000       0.014
   0.33333333  0.50000000  0.25000000       0.014
   0.50000000  0.50000000  0.25000000       0.014
  -0.33333333  0.50000000  0.25000000       0.014
  -0.16666667  0.50000000  0.25000000       0.014
   0.00000000 -0.33333333  0.25000000       0.014
   0.16666667 -0.33333333  0.25000000       0.014
   0.33333333 -0.33333333  0.25000000       0.014
   0.50000000 -0.33333333  0.25000000       0.014
  -0.33333333 -0.33333333  0.25000000       0.014
  -0.16666667 -0.33333333  0.25000000       0.014
  -0.00000000 -0.16666667  0.25000000       0.014
   0.16666667 -0.16666667  0.25000000       0.014
   0.33333333 -0.16666667  0.25000000       0.014
   0.50000000 -0.16666667  0.25000000       0.014
  -0.33333333 -0.16666667  0.25000000       0.014
  -0.16666667 -0.16666667  0.25000000       0.014
   0.00000000  0.00000000  0.50000000       0.007
   0.16666667 -0.00000000  0.50000000       0.014
   0.33333333 -0.00000000  0.50000000       0.014
   0.50000000 -0.00000000  0.50000000       0.007
   0.00000000  0.16666667  0.50000000       0.014
   0.16666667  0.16666667  0.50000000       0.014
   0.33333333  0.16666667  0.50000000       0.014
   0.50000000  0.16666667  0.50000000       0.014
  -0.33333333  0.16666667  0.50000000       0.014
  -0.16666667  0.16666667  0.50000000       0.014
   0.00000000  0.33333333  0.50000000       0.014
   0.16666667  0.33333333  0.50000000       0.014
   0.33333333  0.33333333  0.50000000       0.014
   0.50000000  0.33333333  0.50000000       0.014
  -0.33333333  0.33333333  0.50000000       0.014
  -0.16666667  0.33333333  0.50000000       0.014
   0.00000000  0.50000000  0.50000000       0.007
   0.16666667  0.50000000  0.50000000       0.014
   0.33333333  0.50000000  0.50000000       0.014
   0.50000000  0.50000000  0.50000000       0.007
 
 position of ions in fractional coordinates (direct lattice) 
   0.50035015  0.00032672  0.12567684
   0.99967330  0.00032672  0.12500000
   0.49967330  0.50032672  0.12500000
   0.99967330  0.50032672  0.12500000
   0.49967330  0.00032672  0.62500000
   0.99967330  0.00032672  0.62500000
   0.49967330  0.50032672  0.62500000
   0.99967330  0.50032672  0.62500000
   0.00032672  0.49967330  0.37500000
   0.50032672  0.49967330  0.37500000
   0.00032672  0.99967330  0.37500000
   0.50032672  0.99967330  0.37500000
   0.00032672  0.49967330  0.87500000
   0.50032672  0.49967330  0.87500000
   0.00032672  0.99967330  0.87500000
   0.50032672  0.99967330  0.87500000
   0.16629246  0.33370753  0.12500000
   0.66629246  0.33370753  0.12500000
   0.16629246  0.83370753  0.12500000
   0.66629246  0.83370753  0.12500000
   0.16629246  0.33370753  0.62500000
   0.66629246  0.33370753  0.62500000
   0.16629246  0.83370753  0.62500000
   0.66629246  0.83370753  0.62500000
   0.33370753  0.16629246  0.37500000
   0.83370753  0.16629246  0.37500000
   0.33370753  0.66629246  0.37500000
   0.83370753  0.66629246  0.37500000
   0.33370753  0.16629246  0.87500000
   0.83370753  0.16629246  0.87500000
   0.33370753  0.66629246  0.87500000
   0.83370753  0.66629246  0.87500000
 
 position of ions in cartesian coordinates  (Angst):
   2.46735810  0.00043511  1.75026073
   4.93045658 -0.00052323  1.74083457
   1.22996963  2.13595390  1.74083457
   3.69640688  2.13499426  1.74083457
   2.46401933  0.00043641  8.70417283
   4.93045658 -0.00052323  8.70417283
   1.22996963  2.13595390  8.70417283
   3.69640688  2.13499426  8.70417283
  -1.23163172  2.13412154  5.22250370
   1.23480553  2.13316189  5.22250370
  -2.46568142  4.26963903  5.22250370
   0.00075583  4.26867939  5.22250370
  -1.23163172  2.13412154 12.18584196
   1.23480553  2.13316189 12.18584196
  -2.46568142  4.26963903 12.18584196
   0.00075583  4.26867939 12.18584196
  -0.00332350  1.42495737  1.74083457
   2.46311374  1.42399773  1.74083457
  -1.23737320  3.56047486  1.74083457
   1.22906405  3.55951522  1.74083457
  -0.00332350  1.42495737  8.70417283
   2.46311374  1.42399773  8.70417283
  -1.23737320  3.56047486  8.70417283
   1.22906405  3.55951522  8.70417283
   1.23571103  0.70960044  5.22250370
   3.70214828  0.70864080  5.22250370
   0.00166133  2.84511794  5.22250370
   2.46809858  2.84415829  5.22250370
   1.23571103  0.70960044 12.18584196
   3.70214828  0.70864080 12.18584196
   0.00166133  2.84511794 12.18584196
   2.46809858  2.84415829 12.18584196
 


--------------------------------------------------------------------------------------------------------


 k-point  1 :   0.0000 0.0000 0.0000  plane waves:   15017
 k-point  2 :   0.1667-0.0000 0.0000  plane waves:   15108
 k-point  3 :   0.3333-0.0000 0.0000  plane waves:   15064
 k-point  4 :   0.5000-0.0000 0.0000  plane waves:   15104
 k-point  5 :   0.0000 0.1667 0.0000  plane waves:   15108
 k-point  6 :   0.1667 0.1667 0.0000  plane waves:   15069
 k-point  7 :   0.3333 0.1667 0.0000  plane waves:   15071
 k-point  8 :   0.5000 0.1667 0.0000  plane waves:   15073
 k-point  9 :  -0.3333 0.1667 0.0000  plane waves:   15077
 k-point 10 :  -0.1667 0.1667 0.0000  plane waves:   15114
 k-point 11 :   0.0000 0.3333 0.0000  plane waves:   15064
 k-point 12 :   0.1667 0.3333 0.0000  plane waves:   15071
 k-point 13 :   0.3333 0.3333 0.0000  plane waves:   15092
 k-point 14 :   0.5000 0.3333 0.0000  plane waves:   15063
 k-point 15 :  -0.3333 0.3333 0.0000  plane waves:   15060
 k-point 16 :  -0.1667 0.3333 0.0000  plane waves:   15077
 k-point 17 :   0.0000 0.5000 0.0000  plane waves:   15104
 k-point 18 :   0.1667 0.5000 0.0000  plane waves:   15073
 k-point 19 :   0.3333 0.5000 0.0000  plane waves:   15063
 k-point 20 :   0.5000 0.5000 0.0000  plane waves:   15108
 k-point 21 :   0.0000 0.0000 0.2500  plane waves:   15110
 k-point 22 :   0.1667-0.0000 0.2500  plane waves:   15106
 k-point 23 :   0.3333-0.0000 0.2500  plane waves:   15066
 k-point 24 :   0.5000-0.0000 0.2500  plane waves:   15066
 k-point 25 :  -0.3333 0.0000 0.2500  plane waves:   15066
 k-point 26 :  -0.1667 0.0000 0.2500  plane waves:   15106
 k-point 27 :   0.0000 0.1667 0.2500  plane waves:   15106
 k-point 28 :   0.1667 0.1667 0.2500  plane waves:   15076
 k-point 29 :   0.3333 0.1667 0.2500  plane waves:   15061
 k-point 30 :   0.5000 0.1667 0.2500  plane waves:   15059
 k-point 31 :  -0.3333 0.1667 0.2500  plane waves:   15079
 k-point 32 :  -0.1667 0.1667 0.2500  plane waves:   15116
 k-point 33 :   0.0000 0.3333 0.2500  plane waves:   15066
 k-point 34 :   0.1667 0.3333 0.2500  plane waves:   15061
 k-point 35 :   0.3333 0.3333 0.2500  plane waves:   15054
 k-point 36 :   0.5000 0.3333 0.2500  plane waves:   15056
 k-point 37 :  -0.3333 0.3333 0.2500  plane waves:   15062
 k-point 38 :  -0.1667 0.3333 0.2500  plane waves:   15079
 k-point 39 :   0.0000 0.5000 0.2500  plane waves:   15066
 k-point 40 :   0.1667 0.5000 0.2500  plane waves:   15059
 k-point 41 :   0.3333 0.5000 0.2500  plane waves:   15056
 k-point 42 :   0.5000 0.5000 0.2500  plane waves:   15070
 k-point 43 :  -0.3333 0.5000 0.2500  plane waves:   15056
 k-point 44 :  -0.1667 0.5000 0.2500  plane waves:   15059
 k-point 45 :   0.0000-0.3333 0.2500  plane waves:   15066
 k-point 46 :   0.1667-0.3333 0.2500  plane waves:   15079
 k-point 47 :   0.3333-0.3333 0.2500  plane waves:   15062
 k-point 48 :   0.5000-0.3333 0.2500  plane waves:   15056
 k-point 49 :  -0.3333-0.3333 0.2500  plane waves:   15054
 k-point 50 :  -0.1667-0.3333 0.2500  plane waves:   15061
 k-point 51 :  -0.0000-0.1667 0.2500  plane waves:   15106
 k-point 52 :   0.1667-0.1667 0.2500  plane waves:   15116
 k-point 53 :   0.3333-0.1667 0.2500  plane waves:   15079
 k-point 54 :   0.5000-0.1667 0.2500  plane waves:   15059
 k-point 55 :  -0.3333-0.1667 0.2500  plane waves:   15061
 k-point 56 :  -0.1667-0.1667 0.2500  plane waves:   15076
 k-point 57 :   0.0000 0.0000 0.5000  plane waves:   15112
 k-point 58 :   0.1667-0.0000 0.5000  plane waves:   15120
 k-point 59 :   0.3333-0.0000 0.5000  plane waves:   15076
 k-point 60 :   0.5000-0.0000 0.5000  plane waves:   15056
 k-point 61 :   0.0000 0.1667 0.5000  plane waves:   15120
 k-point 62 :   0.1667 0.1667 0.5000  plane waves:   15108
 k-point 63 :   0.3333 0.1667 0.5000  plane waves:   15036
 k-point 64 :   0.5000 0.1667 0.5000  plane waves:   15038
 k-point 65 :  -0.3333 0.1667 0.5000  plane waves:   15114
 k-point 66 :  -0.1667 0.1667 0.5000  plane waves:   15122
 k-point 67 :   0.0000 0.3333 0.5000  plane waves:   15076
 k-point 68 :   0.1667 0.3333 0.5000  plane waves:   15036
 k-point 69 :   0.3333 0.3333 0.5000  plane waves:   15066
 k-point 70 :   0.5000 0.3333 0.5000  plane waves:   15044
 k-point 71 :  -0.3333 0.3333 0.5000  plane waves:   15076
 k-point 72 :  -0.1667 0.3333 0.5000  plane waves:   15114
 k-point 73 :   0.0000 0.5000 0.5000  plane waves:   15056
 k-point 74 :   0.1667 0.5000 0.5000  plane waves:   15038
 k-point 75 :   0.3333 0.5000 0.5000  plane waves:   15044
 k-point 76 :   0.5000 0.5000 0.5000  plane waves:   15048

 maximum and minimum number of plane-waves per node :     15122    15017

 maximum number of plane-waves:     15122
 maximum index in each direction: 
   IXMAX=   11   IYMAX=   11   IZMAX=   32
   IXMIN=  -11   IYMIN=  -11   IZMIN=  -32

 NGX is ok and might be reduce to  46
 NGY is ok and might be reduce to  46
 WARNING: aliasing errors must be expected set NGZ to 130 to avoid them
 aliasing errors are usually negligible using standard VASP settings
 and one can safely disregard these warnings

 serial   3D FFT for wavefunctions
 parallel 3D FFT for charge:
    minimum data exchange during FFTs selected (reduces bandwidth)


 total amount of memory used by VASP on root node   418593. kBytes
========================================================================

   base      :      30000. kBytes
   nonl-proj :      81317. kBytes
   fftplans  :      14475. kBytes
   grid      :      30806. kBytes
   one-center:         98. kBytes
   wavefun   :     261897. kBytes
 
     INWAV:  cpu time    0.00: real time    0.00
 Broyden mixing: mesh for mixing (old mesh)
   NGX = 23   NGY = 23   NGZ = 65
  (NGX  = 96   NGY  = 96   NGZ  =256)
  gives a total of  34385 points

 initial charge density was supplied:
 charge density of overlapping atoms calculated
 number of electron     128.0000000 magnetization 
 keeping initial charge density in first step


--------------------------------------------------------------------------------------------------------


 Maximum index for augmentation-charges         1949 (set IRDMAX)


--------------------------------------------------------------------------------------------------------


 First call to EWALD:  gamma=   0.267
 Maximum number of real-space cells 4x 4x 2
 Maximum number of reciprocal cells 2x 2x 5

 FEWALD executed in parallel
    FEWALD:  cpu time    0.01: real time    0.05


----------------------------------------- Iteration    1(   1)  ---------------------------------------


    POTLOK:  cpu time    1.13: real time    3.20
    SETDIJ:  cpu time    0.08: real time    0.23
     EDDAV:  cpu time  429.20: real time 1071.41
 BZINTS: Fermi energy: 16.892605;128.000000 electrons
         Band energy: 137.062112;  BLOECHL correction: -0.115255
       DOS:  cpu time    0.11: real time    0.24
    --------------------------------------------
      LOOP:  cpu time  430.51: real time 1075.10

 eigenvalue-minimisations  : 12768
 total energy-change (2. order) : 0.7254489E+03  (-0.8347750E+04)
 number of electron     128.0000000 magnetization 
 augmentation part      128.0000000 magnetization 

 Free energy of the ion-electron system (eV)
  ---------------------------------------------------
  alpha Z        PSCENC =       284.42569248
  Ewald energy   TEWEN  =     -3499.84697875
  -Hartree energ DENC   =     -1310.95084280
  -exchange      EXHF   =         0.00000000
  -V(xc)+E(xc)   XCENC  =       442.63270348
  PAW double counting   =      1210.60617908    -1247.42152856
  entropy T*S    EENTRO =         0.00000000
  eigenvalues    EBANDS =       137.06211224
  atomic energy  EATOM  =      4708.94155045
  ---------------------------------------------------
  free energy    TOTEN  =       725.44888761 eV

  energy without entropy =      725.44888761  energy(sigma->0) =      725.44888761


--------------------------------------------------------------------------------------------------------




----------------------------------------- Iteration    1(   2)  ---------------------------------------


     EDDAV:  cpu time  497.11: real time 1231.96
 BZINTS: Fermi energy:  3.592250;128.000000 electrons
         Band energy:-840.852766;  BLOECHL correction: -0.002076
       DOS:  cpu time    0.08: real time    0.23
    --------------------------------------------
      LOOP:  cpu time  497.22: real time 1232.29

 eigenvalue-minimisations  : 16044
 total energy-change (2. order) :-0.9779149E+03  (-0.9419133E+03)
 number of electron     128.0000000 magnetization 
 augmentation part      128.0000000 magnetization 

 Free energy of the ion-electron system (eV)
  ---------------------------------------------------
  alpha Z        PSCENC =       284.42569248
  Ewald energy   TEWEN  =     -3499.84697875
  -Hartree energ DENC   =     -1310.95084280
  -exchange      EXHF   =         0.00000000
  -V(xc)+E(xc)   XCENC  =       442.63270348
  PAW double counting   =      1210.60617908    -1247.42152856
  entropy T*S    EENTRO =         0.00000000
  eigenvalues    EBANDS =      -840.85276560
  atomic energy  EATOM  =      4708.94155045
  ---------------------------------------------------
  free energy    TOTEN  =      -252.46599022 eV

  energy without entropy =     -252.46599022  energy(sigma->0) =     -252.46599022


--------------------------------------------------------------------------------------------------------




----------------------------------------- Iteration    1(   3)  ---------------------------------------


     EDDAV:  cpu time  479.86: real time 1196.24
 BZINTS: Fermi energy:  2.793847;128.000000 electrons
         Band energy:-901.359302;  BLOECHL correction: -0.000009
       DOS:  cpu time    0.07: real time    0.18
    --------------------------------------------
      LOOP:  cpu time  479.93: real time 1196.47

 eigenvalue-minimisations  : 15600
 total energy-change (2. order) :-0.6050654E+02  (-0.5993057E+02)
 number of electron     128.0000000 magnetization 
 augmentation part      128.0000000 magnetization 

 Free energy of the ion-electron system (eV)
  ---------------------------------------------------
  alpha Z        PSCENC =       284.42569248
  Ewald energy   TEWEN  =     -3499.84697875
  -Hartree energ DENC   =     -1310.95084280
  -exchange      EXHF   =         0.00000000
  -V(xc)+E(xc)   XCENC  =       442.63270348
  PAW double counting   =      1210.60617908    -1247.42152856
  entropy T*S    EENTRO =         0.00000000
  eigenvalues    EBANDS =      -901.35930234
  atomic energy  EATOM  =      4708.94155045
  ---------------------------------------------------
  free energy    TOTEN  =      -312.97252696 eV

  energy without entropy =     -312.97252696  energy(sigma->0) =     -312.97252696


--------------------------------------------------------------------------------------------------------




----------------------------------------- Iteration    1(   4)  ---------------------------------------


     EDDAV:  cpu time  495.01: real time 1238.62
 BZINTS: Fermi energy:  2.785874;128.000000 electrons
         Band energy:-902.554864;  BLOECHL correction:  0.000000
       DOS:  cpu time    0.03: real time    0.10
    --------------------------------------------
      LOOP:  cpu time  495.06: real time 1238.76

 eigenvalue-minimisations  : 16104
 total energy-change (2. order) :-0.1195562E+01  (-0.1193246E+01)
 number of electron     128.0000000 magnetization 
 augmentation part      128.0000000 magnetization 

 Free energy of the ion-electron system (eV)
  ---------------------------------------------------
  alpha Z        PSCENC =       284.42569248
  Ewald energy   TEWEN  =     -3499.84697875
  -Hartree energ DENC   =     -1310.95084280
  -exchange      EXHF   =         0.00000000
  -V(xc)+E(xc)   XCENC  =       442.63270348
  PAW double counting   =      1210.60617908    -1247.42152856
  entropy T*S    EENTRO =         0.00000000
  eigenvalues    EBANDS =      -902.55486386
  atomic energy  EATOM  =      4708.94155045
  ---------------------------------------------------
  free energy    TOTEN  =      -314.16808848 eV

  energy without entropy =     -314.16808848  energy(sigma->0) =     -314.16808848


--------------------------------------------------------------------------------------------------------




----------------------------------------- Iteration    1(   5)  ---------------------------------------


     EDDAV:  cpu time  499.16: real time 1257.82
 BZINTS: Fermi energy:  2.786913;128.000000 electrons
         Band energy:-902.590027;  BLOECHL correction:  0.000000
       DOS:  cpu time    0.04: real time    0.10
    CHARGE:  cpu time    5.36: real time   13.36
    MIXING:  cpu time    0.07: real time    0.19
    --------------------------------------------
      LOOP:  cpu time  504.64: real time 1271.50

 eigenvalue-minimisations  : 16584
 total energy-change (2. order) :-0.3516303E-01  (-0.3515091E-01)
 number of electron     127.9999992 magnetization 
 augmentation part        3.3948355 magnetization 

 Broyden mixing:
  rms(total) = 0.22091E+01    rms(broyden)= 0.22091E+01
  rms(prec ) = 0.25870E+01
  weight for this iteration     100.00

 Free energy of the ion-electron system (eV)
  ---------------------------------------------------
  alpha Z        PSCENC =       284.42569248
  Ewald energy   TEWEN  =     -3499.84697875
  -Hartree energ DENC   =     -1310.95084280
  -exchange      EXHF   =         0.00000000
  -V(xc)+E(xc)   XCENC  =       442.63270348
  PAW double counting   =      1210.60617908    -1247.42152856
  entropy T*S    EENTRO =         0.00000000
  eigenvalues    EBANDS =      -902.59002689
  atomic energy  EATOM  =      4708.94155045
  ---------------------------------------------------
  free energy    TOTEN  =      -314.20325151 eV

  energy without entropy =     -314.20325151  energy(sigma->0) =     -314.20325151


--------------------------------------------------------------------------------------------------------




----------------------------------------- Iteration    1(   6)  ---------------------------------------


    POTLOK:  cpu time    1.30: real time    3.07
    SETDIJ:  cpu time    0.05: real time    0.12
     EDDAV:  cpu time  464.29: real time 1159.84
 BZINTS: Fermi energy:  3.579420;128.000000 electrons
         Band energy:-758.336543;  BLOECHL correction:  0.000000
       DOS:  cpu time    0.05: real time    0.10
    CHARGE:  cpu time    6.00: real time   14.18
    MIXING:  cpu time    0.07: real time    0.18
    --------------------------------------------
      LOOP:  cpu time  471.76: real time 1177.54

 eigenvalue-minimisations  : 14592
 total energy-change (2. order) : 0.1457852E+02  (-0.1498557E+01)
 number of electron     127.9999992 magnetization 
 augmentation part        3.2385261 magnetization 

 Broyden mixing:
  rms(total) = 0.11596E+01    rms(broyden)= 0.11596E+01
  rms(prec ) = 0.13500E+01
  weight for this iteration     100.00

 eigenvalues of (default mixing * dielectric matrix)
  average eigenvalue GAMMA=   2.0340
  2.0340

 Free energy of the ion-electron system (eV)
  ---------------------------------------------------
  alpha Z        PSCENC =       284.42569248
  Ewald energy   TEWEN  =     -3499.84697875
  -Hartree energ DENC   =     -1446.16071321
  -exchange      EXHF   =         0.00000000
  -V(xc)+E(xc)   XCENC  =       451.05570292
  PAW double counting   =      1642.39740816    -1682.10085389
  entropy T*S    EENTRO =         0.00000000
  eigenvalues    EBANDS =      -758.33654276
  atomic energy  EATOM  =      4708.94155045
  ---------------------------------------------------
  free energy    TOTEN  =      -299.62473460 eV

  energy without entropy =     -299.62473460  energy(sigma->0) =     -299.62473460


--------------------------------------------------------------------------------------------------------




----------------------------------------- Iteration    1(   7)  ---------------------------------------


    POTLOK:  cpu time    1.30: real time    3.26
    SETDIJ:  cpu time    0.11: real time    0.25
     EDDAV:  cpu time  462.85: real time 1152.66
 BZINTS: Fermi energy:  4.365080;128.000000 electrons
         Band energy:-610.134302;  BLOECHL correction:  0.000000
       DOS:  cpu time    0.05: real time    0.11
    CHARGE:  cpu time    5.55: real time   14.09
    MIXING:  cpu time    0.12: real time    0.28
    --------------------------------------------
      LOOP:  cpu time  470.00: real time 1170.70

 eigenvalue-minimisations  : 14400
 total energy-change (2. order) : 0.4665466E+01  (-0.1608637E+01)
 number of electron     127.9999993 magnetization 
 augmentation part        3.0716472 magnetization 

 Broyden mixing:
  rms(total) = 0.19886E+00    rms(broyden)= 0.19885E+00
  rms(prec ) = 0.22170E+00
  weight for this iteration     100.00

 eigenvalues of (default mixing * dielectric matrix)
  average eigenvalue GAMMA=   2.0448
  2.0448  2.0448

 Free energy of the ion-electron system (eV)
  ---------------------------------------------------
  alpha Z        PSCENC =       284.42569248
  Ewald energy   TEWEN  =     -3499.84697875
  -Hartree energ DENC   =     -1596.98979974
  -exchange      EXHF   =         0.00000000
  -V(xc)+E(xc)   XCENC  =       460.69108165
  PAW double counting   =      2181.81904547    -2223.86555878
  entropy T*S    EENTRO =         0.00000000
  eigenvalues    EBANDS =      -610.13430157
  atomic energy  EATOM  =      4708.94155045
  ---------------------------------------------------
  free energy    TOTEN  =      -294.95926879 eV

  energy without entropy =     -294.95926879  energy(sigma->0) =     -294.95926879


--------------------------------------------------------------------------------------------------------




----------------------------------------- Iteration    1(   8)  ---------------------------------------


    POTLOK:  cpu time    1.22: real time    2.97
    SETDIJ:  cpu time    0.08: real time    0.21
     EDDAV:  cpu time  478.07: real time 1197.79
 BZINTS: Fermi energy:  4.341237;128.000000 electrons
         Band energy:-611.767532;  BLOECHL correction:  0.000000
       DOS:  cpu time    0.04: real time    0.11
    CHARGE:  cpu time    5.98: real time   15.31
    MIXING:  cpu time    0.12: real time    0.38
    --------------------------------------------
      LOOP:  cpu time  485.52: real time 1216.81

 eigenvalue-minimisations  : 15516
 total energy-change (2. order) :-0.7212636E-01  (-0.8021741E-01)
 number of electron     127.9999993 magnetization 
 augmentation part        3.0630853 magnetization 

 Broyden mixing:
  rms(total) = 0.92741E-01    rms(broyden)= 0.92740E-01
  rms(prec ) = 0.12813E+00
  weight for this iteration     100.00

 eigenvalues of (default mixing * dielectric matrix)
  average eigenvalue GAMMA=   1.6531
  2.3335  2.0700  0.5558

 Free energy of the ion-electron system (eV)
  ---------------------------------------------------
  alpha Z        PSCENC =       284.42569248
  Ewald energy   TEWEN  =     -3499.84697875
  -Hartree energ DENC   =     -1595.91678121
  -exchange      EXHF   =         0.00000000
  -V(xc)+E(xc)   XCENC  =       460.62856092
  PAW double counting   =      2202.70224921    -2244.19815581
  entropy T*S    EENTRO =         0.00000000
  eigenvalues    EBANDS =      -611.76753243
  atomic energy  EATOM  =      4708.94155045
  ---------------------------------------------------
  free energy    TOTEN  =      -295.03139515 eV

  energy without entropy =     -295.03139515  energy(sigma->0) =     -295.03139515


--------------------------------------------------------------------------------------------------------




----------------------------------------- Iteration    1(   9)  ---------------------------------------


    POTLOK:  cpu time    1.30: real time    3.27
    SETDIJ:  cpu time    0.09: real time    0.22
     EDDAV:  cpu time  454.98: real time 1143.37
 BZINTS: Fermi energy:  4.338032;128.000000 electrons
         Band energy:-611.366915;  BLOECHL correction:  0.000000
       DOS:  cpu time    0.03: real time    0.06
    CHARGE:  cpu time    6.18: real time   16.15
    MIXING:  cpu time    0.10: real time    0.30
    --------------------------------------------
      LOOP:  cpu time  462.69: real time 1163.43

 eigenvalue-minimisations  : 14124
 total energy-change (2. order) : 0.4374625E-03  (-0.7105520E-02)
 number of electron     127.9999993 magnetization 
 augmentation part        3.0621352 magnetization 

 Broyden mixing:
  rms(total) = 0.44038E-01    rms(broyden)= 0.44038E-01
  rms(prec ) = 0.82503E-01
  weight for this iteration     100.00

 eigenvalues of (default mixing * dielectric matrix)
  average eigenvalue GAMMA=   1.4942
  2.4228  2.0101  0.7719  0.7719

 Free energy of the ion-electron system (eV)
  ---------------------------------------------------
  alpha Z        PSCENC =       284.42569248
  Ewald energy   TEWEN  =     -3499.84697875
  -Hartree energ DENC   =     -1596.64608709
  -exchange      EXHF   =         0.00000000
  -V(xc)+E(xc)   XCENC  =       460.69000793
  PAW double counting   =      2216.95118041    -2258.17940845
  entropy T*S    EENTRO =         0.00000000
  eigenvalues    EBANDS =      -611.36691465
  atomic energy  EATOM  =      4708.94155045
  ---------------------------------------------------
  free energy    TOTEN  =      -295.03095769 eV

  energy without entropy =     -295.03095769  energy(sigma->0) =     -295.03095769


--------------------------------------------------------------------------------------------------------




----------------------------------------- Iteration    1(  10)  ---------------------------------------


    POTLOK:  cpu time    1.25: real time    3.07
    SETDIJ:  cpu time    0.09: real time    0.25
     EDDAV:  cpu time  574.47: real time 1431.65
 BZINTS: Fermi energy:  4.347000;128.000000 electrons
         Band energy:-609.942441;  BLOECHL correction:  0.000000
       DOS:  cpu time    0.05: real time    0.13
    CHARGE:  cpu time    6.23: real time   14.05
    MIXING:  cpu time    0.08: real time    0.18
    --------------------------------------------
      LOOP:  cpu time  582.18: real time 1449.37

 eigenvalue-minimisations  : 20340
 total energy-change (2. order) : 0.5461635E-02  (-0.1079043E-01)
 number of electron     127.9999993 magnetization 
 augmentation part        3.0612283 magnetization 

 Broyden mixing:
  rms(total) = 0.33935E-01    rms(broyden)= 0.33932E-01
  rms(prec ) = 0.67302E-01
  weight for this iteration     100.00

 eigenvalues of (default mixing * dielectric matrix)
  average eigenvalue GAMMA=   1.3601
  2.4991  1.9823  1.0105  0.6543  0.6543

 Free energy of the ion-electron system (eV)
  ---------------------------------------------------
  alpha Z        PSCENC =       284.42569248
  Ewald energy   TEWEN  =     -3499.84697875
  -Hartree energ DENC   =     -1598.17271612
  -exchange      EXHF   =         0.00000000
  -V(xc)+E(xc)   XCENC  =       460.79463800
  PAW double counting   =      2221.46035417    -2262.68559573
  entropy T*S    EENTRO =         0.00000000
  eigenvalues    EBANDS =      -609.94244055
  atomic energy  EATOM  =      4708.94155045
  ---------------------------------------------------
  free energy    TOTEN  =      -295.02549605 eV

  energy without entropy =     -295.02549605  energy(sigma->0) =     -295.02549605


--------------------------------------------------------------------------------------------------------




----------------------------------------- Iteration    1(  11)  ---------------------------------------


    POTLOK:  cpu time    1.25: real time    3.20
    SETDIJ:  cpu time    0.13: real time    0.31
     EDDAV:  cpu time  470.19: real time 1172.27
 BZINTS: Fermi energy:  4.348527;128.000000 electrons
         Band energy:-609.537112;  BLOECHL correction:  0.000000
       DOS:  cpu time    0.05: real time    0.09
    CHARGE:  cpu time    5.57: real time   13.95
    MIXING:  cpu time    0.09: real time    0.24
    --------------------------------------------
      LOOP:  cpu time  477.30: real time 1190.11

 eigenvalue-minimisations  : 14724
 total energy-change (2. order) : 0.4343704E-03  (-0.7050813E-02)
 number of electron     127.9999993 magnetization 
 augmentation part        3.0609019 magnetization 

 Broyden mixing:
  rms(total) = 0.29584E-01    rms(broyden)= 0.29582E-01
  rms(prec ) = 0.62304E-01
  weight for this iteration     100.00

 eigenvalues of (default mixing * dielectric matrix)
  average eigenvalue GAMMA=   1.3375
  2.5043  1.9803  1.5189  0.9680  0.5268  0.5268

 Free energy of the ion-electron system (eV)
  ---------------------------------------------------
  alpha Z        PSCENC =       284.42569248
  Ewald energy   TEWEN  =     -3499.84697875
  -Hartree energ DENC   =     -1598.61644097
  -exchange      EXHF   =         0.00000000
  -V(xc)+E(xc)   XCENC  =       460.82552820
  PAW double counting   =      2222.75914774    -2263.97644872
  entropy T*S    EENTRO =         0.00000000
  eigenvalues    EBANDS =      -609.53711210
  atomic energy  EATOM  =      4708.94155045
  ---------------------------------------------------
  free energy    TOTEN  =      -295.02506168 eV

  energy without entropy =     -295.02506168  energy(sigma->0) =     -295.02506168


--------------------------------------------------------------------------------------------------------




----------------------------------------- Iteration    1(  12)  ---------------------------------------


    POTLOK:  cpu time    1.23: real time    3.12
    SETDIJ:  cpu time    0.04: real time    0.11
     EDDAV:  cpu time  459.03: real time 1147.43
 BZINTS: Fermi energy:  4.351021;128.000000 electrons
         Band energy:-609.073510;  BLOECHL correction:  0.000000
       DOS:  cpu time    0.03: real time    0.08
    CHARGE:  cpu time    6.35: real time   15.83
    MIXING:  cpu time    0.14: real time    0.42
    --------------------------------------------
      LOOP:  cpu time  466.84: real time 1167.03

 eigenvalue-minimisations  : 14640
 total energy-change (2. order) : 0.5972316E-03  (-0.4401625E-02)
 number of electron     127.9999993 magnetization 
 augmentation part        3.0605299 magnetization 

 Broyden mixing:
  rms(total) = 0.27058E-01    rms(broyden)= 0.27056E-01
  rms(prec ) = 0.55371E-01
  weight for this iteration     100.00

 eigenvalues of (default mixing * dielectric matrix)
  average eigenvalue GAMMA=   1.4265
  2.8503  2.3405  1.9784  0.8501  0.8501  0.7903  0.3255

 Free energy of the ion-electron system (eV)
  ---------------------------------------------------
  alpha Z        PSCENC =       284.42569248
  Ewald energy   TEWEN  =     -3499.84697875
  -Hartree energ DENC   =     -1599.11172301
  -exchange      EXHF   =         0.00000000
  -V(xc)+E(xc)   XCENC  =       460.85996748
  PAW double counting   =      2222.92277245    -2264.14223516
  entropy T*S    EENTRO =         0.00000000
  eigenvalues    EBANDS =      -609.07351039
  atomic energy  EATOM  =      4708.94155045
  ---------------------------------------------------
  free energy    TOTEN  =      -295.02446445 eV

  energy without entropy =     -295.02446445  energy(sigma->0) =     -295.02446445


--------------------------------------------------------------------------------------------------------




----------------------------------------- Iteration    1(  13)  ---------------------------------------


    POTLOK:  cpu time    1.18: real time    2.80
    SETDIJ:  cpu time    0.06: real time    0.16
     EDDAV:  cpu time  463.81: real time 1160.11
 BZINTS: Fermi energy:  4.357399;128.000000 electrons
         Band energy:-608.582865;  BLOECHL correction:  0.000000
       DOS:  cpu time    0.03: real time    0.07
    CHARGE:  cpu time    6.35: real time   14.17
    MIXING:  cpu time    0.12: real time    0.37
    --------------------------------------------
      LOOP:  cpu time  471.57: real time 1177.72

 eigenvalue-minimisations  : 14664
 total energy-change (2. order) : 0.4625786E-03  (-0.2320271E-02)
 number of electron     127.9999993 magnetization 
 augmentation part        3.0602140 magnetization 

 Broyden mixing:
  rms(total) = 0.21115E-01    rms(broyden)= 0.21113E-01
  rms(prec ) = 0.43587E-01
  weight for this iteration     100.00

 eigenvalues of (default mixing * dielectric matrix)
  average eigenvalue GAMMA=   1.3087
  2.9100  2.4320  1.9497  0.8680  0.7905  0.7905  0.4348  0.2939

 Free energy of the ion-electron system (eV)
  ---------------------------------------------------
  alpha Z        PSCENC =       284.42569248
  Ewald energy   TEWEN  =     -3499.84697875
  -Hartree energ DENC   =     -1599.64122053
  -exchange      EXHF   =         0.00000000
  -V(xc)+E(xc)   XCENC  =       460.89707410
  PAW double counting   =      2223.04546410    -2264.26271860
  entropy T*S    EENTRO =         0.00000000
  eigenvalues    EBANDS =      -608.58286512
  atomic energy  EATOM  =      4708.94155045
  ---------------------------------------------------
  free energy    TOTEN  =      -295.02400187 eV

  energy without entropy =     -295.02400187  energy(sigma->0) =     -295.02400187


--------------------------------------------------------------------------------------------------------




----------------------------------------- Iteration    1(  14)  ---------------------------------------


    POTLOK:  cpu time    1.35: real time    2.94
    SETDIJ:  cpu time    0.04: real time    0.09
     EDDAV:  cpu time  467.94: real time 1174.60
 BZINTS: Fermi energy:  4.355669;128.000000 electrons
         Band energy:-608.609255;  BLOECHL correction:  0.000000
       DOS:  cpu time    0.04: real time    0.11
    CHARGE:  cpu time    5.78: real time   14.64
    MIXING:  cpu time    0.12: real time    0.31
    --------------------------------------------
      LOOP:  cpu time  475.27: real time 1192.70

 eigenvalue-minimisations  : 14628
 total energy-change (2. order) : 0.4919314E-03  (-0.4376503E-03)
 number of electron     127.9999993 magnetization 
 augmentation part        3.0600909 magnetization 

 Broyden mixing:
  rms(total) = 0.16861E-02    rms(broyden)= 0.16831E-02
  rms(prec ) = 0.29890E-02
  weight for this iteration     100.00

 eigenvalues of (default mixing * dielectric matrix)
  average eigenvalue GAMMA=   1.2984
  2.9453  2.4551  1.9166  0.9833  0.9833  0.7503  0.7503  0.6031  0.2983

 Free energy of the ion-electron system (eV)
  ---------------------------------------------------
  alpha Z        PSCENC =       284.42569248
  Ewald energy   TEWEN  =     -3499.84697875
  -Hartree energ DENC   =     -1599.61365686
  -exchange      EXHF   =         0.00000000
  -V(xc)+E(xc)   XCENC  =       460.89535483
  PAW double counting   =      2222.65606115    -2263.87227828
  entropy T*S    EENTRO =         0.00000000
  eigenvalues    EBANDS =      -608.60925495
  atomic energy  EATOM  =      4708.94155045
  ---------------------------------------------------
  free energy    TOTEN  =      -295.02350994 eV

  energy without entropy =     -295.02350994  energy(sigma->0) =     -295.02350994


--------------------------------------------------------------------------------------------------------




----------------------------------------- Iteration    1(  15)  ---------------------------------------


    POTLOK:  cpu time    1.18: real time    3.05
    SETDIJ:  cpu time    0.04: real time    0.14
     EDDAV:  cpu time  474.43: real time 1182.58
 BZINTS: Fermi energy:  4.355256;128.000000 electrons
         Band energy:-608.631635;  BLOECHL correction: -0.000000
       DOS:  cpu time    0.04: real time    0.09
    CHARGE:  cpu time    5.80: real time   14.27
    MIXING:  cpu time    0.16: real time    0.44
    --------------------------------------------
      LOOP:  cpu time  481.67: real time 1200.60

 eigenvalue-minimisations  : 15396
 total energy-change (2. order) :-0.2153822E-04  (-0.1813319E-04)
 number of electron     127.9999993 magnetization 
 augmentation part        3.0600789 magnetization 

 Broyden mixing:
  rms(total) = 0.32197E-02    rms(broyden)= 0.32196E-02
  rms(prec ) = 0.62133E-02
  weight for this iteration     100.00

 eigenvalues of (default mixing * dielectric matrix)
  average eigenvalue GAMMA=   1.2022
  2.8868  2.5289  1.8817  1.1371  0.8425  0.8425  0.5968  0.5968  0.3025  0.4059

 Free energy of the ion-electron system (eV)
  ---------------------------------------------------
  alpha Z        PSCENC =       284.42569248
  Ewald energy   TEWEN  =     -3499.84697875
  -Hartree energ DENC   =     -1599.59131213
  -exchange      EXHF   =         0.00000000
  -V(xc)+E(xc)   XCENC  =       460.89386765
  PAW double counting   =      2222.46385302    -2263.67856934
  entropy T*S    EENTRO =         0.00000000
  eigenvalues    EBANDS =      -608.63163485
  atomic energy  EATOM  =      4708.94155045
  ---------------------------------------------------
  free energy    TOTEN  =      -295.02353148 eV

  energy without entropy =     -295.02353148  energy(sigma->0) =     -295.02353148


--------------------------------------------------------------------------------------------------------




----------------------------------------- Iteration    1(  16)  ---------------------------------------


    POTLOK:  cpu time    1.19: real time    2.94
    SETDIJ:  cpu time    0.09: real time    0.20
     EDDAV:  cpu time  494.23: real time 1239.48
 BZINTS: Fermi energy:  4.355099;128.000000 electrons
         Band energy:-608.653254;  BLOECHL correction: -0.000000
       DOS:  cpu time    0.05: real time    0.11
    CHARGE:  cpu time    6.21: real time   16.27
    MIXING:  cpu time    0.10: real time    0.25
    --------------------------------------------
      LOOP:  cpu time  501.88: real time 1259.30

 eigenvalue-minimisations  : 16296
 total energy-change (2. order) : 0.3282667E-05  (-0.1378952E-04)
 number of electron     127.9999993 magnetization 
 augmentation part        3.0600847 magnetization 

 Broyden mixing:
  rms(total) = 0.23797E-02    rms(broyden)= 0.23796E-02
  rms(prec ) = 0.47110E-02
  weight for this iteration     100.00

 eigenvalues of (default mixing * dielectric matrix)
  average eigenvalue GAMMA=   1.1352
  2.8895  2.5476  1.8608  1.2899  0.8287  0.8287  0.7048  0.5649  0.5649  0.2998
  0.1073

 Free energy of the ion-electron system (eV)
  ---------------------------------------------------
  alpha Z        PSCENC =       284.42569248
  Ewald energy   TEWEN  =     -3499.84697875
  -Hartree energ DENC   =     -1599.56825219
  -exchange      EXHF   =         0.00000000
  -V(xc)+E(xc)   XCENC  =       460.89227411
  PAW double counting   =      2222.36496384    -2263.57952434
  entropy T*S    EENTRO =         0.00000000
  eigenvalues    EBANDS =      -608.65325379
  atomic energy  EATOM  =      4708.94155045
  ---------------------------------------------------
  free energy    TOTEN  =      -295.02352819 eV

  energy without entropy =     -295.02352819  energy(sigma->0) =     -295.02352819


--------------------------------------------------------------------------------------------------------




----------------------------------------- Iteration    1(  17)  ---------------------------------------


    POTLOK:  cpu time    1.26: real time    3.18
    SETDIJ:  cpu time    0.08: real time    0.22
     EDDAV:  cpu time  473.25: real time 1188.62
 BZINTS: Fermi energy:  4.355076;128.000000 electrons
         Band energy:-608.656653;  BLOECHL correction:  0.000000
       DOS:  cpu time    0.04: real time    0.07
    CHARGE:  cpu time    5.50: real time   13.04
    MIXING:  cpu time    0.18: real time    0.47
    --------------------------------------------
      LOOP:  cpu time  480.32: real time 1205.62

 eigenvalue-minimisations  : 15276
 total energy-change (2. order) : 0.1663246E-05  (-0.4706517E-05)
 number of electron     127.9999993 magnetization 
 augmentation part        3.0600923 magnetization 

 Broyden mixing:
  rms(total) = 0.16303E-02    rms(broyden)= 0.16303E-02
  rms(prec ) = 0.30156E-02
  weight for this iteration     100.00

 eigenvalues of (default mixing * dielectric matrix)
  average eigenvalue GAMMA=   1.1308
  3.0001  2.4878  1.8872  1.5440  1.0898  0.7888  0.7888  0.6451  0.6451  0.2960
  0.3087  0.0883

 Free energy of the ion-electron system (eV)
  ---------------------------------------------------
  alpha Z        PSCENC =       284.42569248
  Ewald energy   TEWEN  =     -3499.84697875
  -Hartree energ DENC   =     -1599.56467252
  -exchange      EXHF   =         0.00000000
  -V(xc)+E(xc)   XCENC  =       460.89199368
  PAW double counting   =      2222.32267520    -2263.53713405
  entropy T*S    EENTRO =         0.00000000
  eigenvalues    EBANDS =      -608.65665302
  atomic energy  EATOM  =      4708.94155045
  ---------------------------------------------------
  free energy    TOTEN  =      -295.02352653 eV

  energy without entropy =     -295.02352653  energy(sigma->0) =     -295.02352653


--------------------------------------------------------------------------------------------------------




----------------------------------------- Iteration    1(  18)  ---------------------------------------


    POTLOK:  cpu time    1.26: real time    3.15
    SETDIJ:  cpu time    0.08: real time    0.22
     EDDAV:  cpu time  544.62: real time 1362.56
 BZINTS: Fermi energy:  4.355952;128.000000 electrons
         Band energy:-608.637376;  BLOECHL correction: -0.000000
       DOS:  cpu time    0.04: real time    0.10
    CHARGE:  cpu time    5.48: real time   14.11
    MIXING:  cpu time    0.18: real time    0.44
    --------------------------------------------
      LOOP:  cpu time  551.67: real time 1380.62

 eigenvalue-minimisations  : 18456
 total energy-change (2. order) :-0.1780092E-04  (-0.3412768E-04)
 number of electron     127.9999993 magnetization 
 augmentation part        3.0600900 magnetization 

 Broyden mixing:
  rms(total) = 0.48036E-02    rms(broyden)= 0.48034E-02
  rms(prec ) = 0.97173E-02
  weight for this iteration     100.00

 eigenvalues of (default mixing * dielectric matrix)
  average eigenvalue GAMMA=   1.1681
  3.1646  2.5410  2.3128  1.9388  1.0583  0.8299  0.8299  0.7725  0.5846  0.5846
  0.2992  0.1779  0.0908

 Free energy of the ion-electron system (eV)
  ---------------------------------------------------
  alpha Z        PSCENC =       284.42569248
  Ewald energy   TEWEN  =     -3499.84697875
  -Hartree energ DENC   =     -1599.58511896
  -exchange      EXHF   =         0.00000000
  -V(xc)+E(xc)   XCENC  =       460.89326848
  PAW double counting   =      2222.33848676    -2263.55306882
  entropy T*S    EENTRO =         0.00000000
  eigenvalues    EBANDS =      -608.63737597
  atomic energy  EATOM  =      4708.94155045
  ---------------------------------------------------
  free energy    TOTEN  =      -295.02354433 eV

  energy without entropy =     -295.02354433  energy(sigma->0) =     -295.02354433


--------------------------------------------------------------------------------------------------------




----------------------------------------- Iteration    1(  19)  ---------------------------------------


    POTLOK:  cpu time    1.32: real time    3.31
    SETDIJ:  cpu time    0.07: real time    0.18
     EDDAV:  cpu time  626.57: real time 1567.04
 BZINTS: Fermi energy:  4.355938;128.000000 electrons
         Band energy:-608.635955;  BLOECHL correction: -0.000000
       DOS:  cpu time    0.04: real time    0.13
    CHARGE:  cpu time    5.48: real time   14.31
    MIXING:  cpu time    0.21: real time    0.51
    --------------------------------------------
      LOOP:  cpu time  633.71: real time 1585.51

 eigenvalue-minimisations  : 23160
 total energy-change (2. order) :-0.2507720E-05  (-0.7488024E-04)
 number of electron     127.9999993 magnetization 
 augmentation part        3.0600933 magnetization 

 Broyden mixing:
  rms(total) = 0.54023E-02    rms(broyden)= 0.54020E-02
  rms(prec ) = 0.11319E-01
  weight for this iteration     100.00

 eigenvalues of (default mixing * dielectric matrix)
  average eigenvalue GAMMA=   1.1246
  3.1250  2.5853  2.4189  1.9227  1.0116  0.8682  0.8682  0.6596  0.6596  0.6205
  0.4396  0.2977  0.1766  0.0907

 Free energy of the ion-electron system (eV)
  ---------------------------------------------------
  alpha Z        PSCENC =       284.42569248
  Ewald energy   TEWEN  =     -3499.84697875
  -Hartree energ DENC   =     -1599.58666725
  -exchange      EXHF   =         0.00000000
  -V(xc)+E(xc)   XCENC  =       460.89323139
  PAW double counting   =      2222.29106367    -2263.50548376
  entropy T*S    EENTRO =         0.00000000
  eigenvalues    EBANDS =      -608.63595506
  atomic energy  EATOM  =      4708.94155045
  ---------------------------------------------------
  free energy    TOTEN  =      -295.02354684 eV

  energy without entropy =     -295.02354684  energy(sigma->0) =     -295.02354684


--------------------------------------------------------------------------------------------------------




----------------------------------------- Iteration    1(  20)  ---------------------------------------


    POTLOK:  cpu time    1.31: real time    3.21
    SETDIJ:  cpu time    0.07: real time    0.18
     EDDAV:  cpu time  629.76: real time 1570.29
 BZINTS: Fermi energy:  4.355713;128.000000 electrons
         Band energy:-608.631169;  BLOECHL correction:  0.000000
       DOS:  cpu time    0.05: real time    0.10
    CHARGE:  cpu time    5.73: real time   14.20
    MIXING:  cpu time    0.18: real time    0.52
    --------------------------------------------
      LOOP:  cpu time  637.12: real time 1588.58

 eigenvalue-minimisations  : 22896
 total energy-change (2. order) : 0.1491662E-04  (-0.5730872E-04)
 number of electron     127.9999993 magnetization 
 augmentation part        3.0600923 magnetization 

 Broyden mixing:
  rms(total) = 0.31143E-02    rms(broyden)= 0.31140E-02
  rms(prec ) = 0.65192E-02
  weight for this iteration     100.00

 eigenvalues of (default mixing * dielectric matrix)
  average eigenvalue GAMMA=   1.1085
  3.0828  2.6019  2.4487  1.9097  1.0137  1.0137  0.8521  0.8521  0.6863  0.6223
  0.6223  0.3559  0.2961  0.1788  0.0907

 Free energy of the ion-electron system (eV)
  ---------------------------------------------------
  alpha Z        PSCENC =       284.42569248
  Ewald energy   TEWEN  =     -3499.84697875
  -Hartree energ DENC   =     -1599.59151982
  -exchange      EXHF   =         0.00000000
  -V(xc)+E(xc)   XCENC  =       460.89350052
  PAW double counting   =      2222.29737728    -2263.51198502
  entropy T*S    EENTRO =         0.00000000
  eigenvalues    EBANDS =      -608.63116907
  atomic energy  EATOM  =      4708.94155045
  ---------------------------------------------------
  free energy    TOTEN  =      -295.02353192 eV

  energy without entropy =     -295.02353192  energy(sigma->0) =     -295.02353192


--------------------------------------------------------------------------------------------------------




----------------------------------------- Iteration    1(  21)  ---------------------------------------


    POTLOK:  cpu time    1.25: real time    3.24
    SETDIJ:  cpu time    0.05: real time    0.16
     EDDAV:  cpu time  526.67: real time 1319.32
 BZINTS: Fermi energy:  4.355502;128.000000 electrons
         Band energy:-608.628561;  BLOECHL correction:  0.000000
       DOS:  cpu time    0.04: real time    0.13
    CHARGE:  cpu time    6.08: real time   14.11
    MIXING:  cpu time    0.22: real time    0.53
    --------------------------------------------
      LOOP:  cpu time  534.34: real time 1337.55

 eigenvalue-minimisations  : 17844
 total energy-change (2. order) : 0.7170443E-05  (-0.1275046E-04)
 number of electron     127.9999993 magnetization 
 augmentation part        3.0600891 magnetization 

 Broyden mixing:
  rms(total) = 0.85445E-03    rms(broyden)= 0.85425E-03
  rms(prec ) = 0.17635E-02
  weight for this iteration     100.00

 eigenvalues of (default mixing * dielectric matrix)
  average eigenvalue GAMMA=   1.0948
  3.1226  2.6205  2.4736  1.9014  1.0516  1.0516  0.8281  0.8281  0.8289  0.6461
  0.6461  0.6038  0.2959  0.3490  0.1789  0.0907

 Free energy of the ion-electron system (eV)
  ---------------------------------------------------
  alpha Z        PSCENC =       284.42569248
  Ewald energy   TEWEN  =     -3499.84697875
[...]
     79      11.6088      0.00000
     80      11.6126      0.00000
     81      12.3231      0.00000
     82      12.3248      0.00000
     83      12.5564      0.00000
     84      12.5590      0.00000

 k-point    75 :       0.3333    0.5000    0.5000
  band No.  band energies     occupation 
      1     -14.0639      2.00000
      2     -14.0638      2.00000
      3     -13.9172      2.00000
      4     -13.9169      2.00000
      5     -13.0947      2.00000
      6     -13.0945      2.00000
      7     -12.9575      2.00000
      8     -12.9572      2.00000
      9     -12.1367      2.00000
     10     -12.1366      2.00000
     11     -12.0090      2.00000
     12     -12.0087      2.00000
     13      -9.4663      2.00000
     14      -9.4659      2.00000
     15      -9.3729      2.00000
     16      -9.3724      2.00000
     17      -7.5959      2.00000
     18      -7.5936      2.00000
     19      -7.5336      2.00000
     20      -7.5311      2.00000
     21      -5.2984      2.00000
     22      -5.2962      2.00000
     23      -5.2497      2.00000
     24      -5.2477      2.00000
     25      -5.1300      2.00000
     26      -5.1287      2.00000
     27      -5.0771      2.00000
     28      -5.0757      2.00000
     29      -4.1548      2.00000
     30      -4.1528      2.00000
     31      -4.0984      2.00000
     32      -4.0966      2.00000
     33      -3.1000      2.00000
     34      -3.0983      2.00000
     35      -3.0634      2.00000
     36      -3.0620      2.00000
     37      -2.4169      2.00000
     38      -2.4161      2.00000
     39      -2.0713      2.00000
     40      -2.0671      2.00000
     41      -2.0355      2.00000
     42      -2.0322      2.00000
     43      -1.5495      2.00000
     44      -1.5473      2.00000
     45      -1.5202      2.00000
     46      -1.5176      2.00000
     47      -1.3394      2.00000
     48      -1.3382      2.00000
     49      -1.2760      2.00000
     50      -1.2750      2.00000
     51      -0.6619      2.00000
     52      -0.6583      2.00000
     53      -0.6400      2.00000
     54      -0.6351      2.00000
     55      -0.2610      2.00000
     56      -0.2598      2.00000
     57      -0.1674      2.00000
     58      -0.1665      2.00000
     59       0.7765      2.00000
     60       0.7776      2.00000
     61       2.7104      2.00000
     62       2.7125      2.00000
     63       3.2974      2.00000
     64       3.3000      2.00000
     65       5.5190      0.00000
     66       5.5220      0.00000
     67       5.8222      0.00000
     68       5.8255      0.00000
     69       8.6145      0.00000
     70       8.6159      0.00000
     71       8.9656      0.00000
     72       8.9674      0.00000
     73      10.0834      0.00000
     74      10.0866      0.00000
     75      10.4162      0.00000
     76      10.4182      0.00000
     77      10.4887      0.00000
     78      10.4897      0.00000
     79      11.6053      0.00000
     80      11.6091      0.00000
     81      12.3190      0.00000
     82      12.3212      0.00000
     83      12.5536      0.00000
     84      12.5565      0.00000

 k-point    76 :       0.5000    0.5000    0.5000
  band No.  band energies     occupation 
      1     -13.7421      2.00000
      2     -13.7393      2.00000
      3     -13.7392      2.00000
      4     -13.7366      2.00000
      5     -13.5984      2.00000
      6     -13.5957      2.00000
      7     -13.5957      2.00000
      8     -13.5929      2.00000
      9     -10.9018      2.00000
     10     -10.9002      2.00000
     11     -10.9002      2.00000
     12     -10.8984      2.00000
     13     -10.7868      2.00000
     14     -10.7852      2.00000
     15     -10.7851      2.00000
     16     -10.7834      2.00000
     17      -6.1624      2.00000
     18      -6.1624      2.00000
     19      -6.1621      2.00000
     20      -6.1586      2.00000
     21      -6.1242      2.00000
     22      -6.1242      2.00000
     23      -6.1239      2.00000
     24      -6.1195      2.00000
     25      -4.5811      2.00000
     26      -4.5780      2.00000
     27      -4.5767      2.00000
     28      -4.5767      2.00000
     29      -4.5514      2.00000
     30      -4.5493      2.00000
     31      -4.5482      2.00000
     32      -4.5482      2.00000
     33      -3.0759      2.00000
     34      -3.0698      2.00000
     35      -3.0698      2.00000
     36      -3.0694      2.00000
     37      -3.0243      2.00000
     38      -3.0195      2.00000
     39      -3.0195      2.00000
     40      -3.0191      2.00000
     41      -2.0349      2.00000
     42      -2.0328      2.00000
     43      -2.0328      2.00000
     44      -2.0301      2.00000
     45      -0.9775      2.00000
     46      -0.9753      2.00000
     47      -0.9752      2.00000
     48      -0.9722      2.00000
     49      -0.6572      2.00000
     50      -0.6555      2.00000
     51      -0.6555      2.00000
     52      -0.6498      2.00000
     53      -0.6335      2.00000
     54      -0.6321      2.00000
     55      -0.6321      2.00000
     56      -0.6219      2.00000
     57       1.2230      2.00000
     58       1.2261      2.00000
     59       1.2262      2.00000
     60       1.2274      2.00000
     61       2.0521      2.00000
     62       2.0557      2.00000
     63       2.0559      2.00000
     64       2.0571      2.00000
     65       7.0076      0.00000
     66       7.0084      0.00000
     67       7.0086      0.00000
     68       7.0127      0.00000
     69       7.3403      0.00000
     70       7.3411      0.00000
     71       7.3412      0.00000
     72       7.3461      0.00000
     73      10.7607      0.00000
     74      10.7657      0.00000
     75      10.7662      0.00000
     76      10.7698      0.00000
     77      11.4541      0.00000
     78      11.4613      0.00000
     79      11.4619      0.00000
     80      11.4667      0.00000
     81      11.7560      0.00000
     82      11.7607      0.00000
     83      11.7614      0.00000
     84      11.7634      0.00000


--------------------------------------------------------------------------------------------------------


 soft charge-density along one line, spin component           1
         0         1         2         3         4         5         6         7         8         9
 total charge-density along one line
 
 pseudopotential strength for first ion, spin component:           1
  9.792   0.006  -0.000  -0.000   0.000   0.000   0.000  -0.000
  0.006  -0.002   0.000   0.000   0.000   0.000   0.000  -0.000
 -0.000   0.000  -3.962   0.000   0.000  -0.015   0.000   0.000
 -0.000   0.000   0.000  -3.956   0.000   0.000  -0.012   0.000
  0.000   0.000   0.000   0.000  -3.962   0.000   0.000  -0.015
  0.000   0.000  -0.015   0.000   0.000  -0.764   0.000   0.000
  0.000   0.000   0.000  -0.012   0.000   0.000  -0.764  -0.000
 -0.000  -0.000   0.000   0.000  -0.015   0.000  -0.000  -0.764
 total augmentation occupancy for first ion, spin component:           1
  1.468  -1.121   0.000   0.001   0.003   0.000  -0.001   0.001
 -1.121   1.059  -0.000   0.007  -0.002  -0.000   0.002  -0.001
  0.000  -0.000   1.222   0.000  -0.002   0.228  -0.000  -0.001
  0.001   0.007   0.000   0.927  -0.000  -0.000   0.105  -0.000
  0.003  -0.002  -0.002  -0.000   1.221  -0.001  -0.000   0.228
  0.000  -0.000   0.228  -0.000  -0.001   0.048  -0.000  -0.000
 -0.001   0.002  -0.000   0.105  -0.000  -0.000   0.013  -0.000
  0.001  -0.001  -0.001  -0.000   0.228  -0.000  -0.000   0.048


------------------------ aborting loop because EDIFF is reached ----------------------------------------


    CHARGE:  cpu time    5.46: real time   14.34
    FORLOC:  cpu time    0.09: real time    0.25
    FORNL :  cpu time   34.83: real time   87.27
    STRESS:  cpu time   61.47: real time  151.11
    FORHAR:  cpu time    0.36: real time    0.77
    MIXING:  cpu time    0.24: real time    0.59
    OFIELD:  cpu time    0.00: real time    0.00

 ---------------------------------------------------------------------------------------------

         DFTD3 V3.0 Rev 1        
 IVDW         = 12
 DF pbe       
 parameters
 VDW_S6       =    1.0000
 VDW_S8       =    0.7875
 VDW_A1       =    0.4289
 VDW_A2       =    4.4407
 k1-k3        =   16.0000    1.3333   -4.0000
 VDW_RADIUS   =   50.2022 A
 VDW_CNRADIUS =   21.1671 A
 Edisp (eV)   -4.78475

 E6    (eV) :    -3.4356
 E8    (eV) :    -1.3492
 % E8        : 28.20
    FORVDW:  cpu time    0.24: real time    0.55

  FORCE on cell =-STRESS in cart. coord.  units (eV):
  Direction    XX          YY          ZZ          XY          YZ          ZX
  --------------------------------------------------------------------------------------
  Alpha Z   284.42569   284.42569   284.42569
  Ewald     803.43329   802.96001 -5106.25919    -1.14134    -0.00059    -0.00689
  Hartree  1419.02721  1419.04248 -1238.47475    -0.09083    -0.00022    -0.00136
  E(xc)    -467.41470  -467.42128  -484.96475    -0.00862    -0.00004     0.00003
  Local   -3837.02241 -3836.67455  4460.65836     1.00285     0.00002     0.00731
  n-local  -111.75466  -111.86859  -102.35310    -0.10335    -0.00070     0.00081
  augment   -12.36254   -12.36158   -11.33355     0.00197     0.00001    -0.00000
  Kinetic  1922.08547  1922.84400  2201.93956     0.78913     0.00943    -0.00968
  Fock        0.00000     0.00000     0.00000     0.00000     0.00000     0.00000
  vdW        -0.79478    -0.78544    -5.76169     0.00846     0.00000    -0.00001
  -------------------------------------------------------------------------------------
  Total      -0.37744     0.16073    -2.12341     0.45826     0.00793    -0.00979
  in kB      -2.06146     0.87786   -11.59741     2.50288     0.04329    -0.05345
  external pressure =       -4.26 kB  Pullay stress =        0.00 kB


 VOLUME and BASIS-vectors are now :
 -----------------------------------------------------------------------------
  energy-cutoff  :      800.00
  volume of cell :      293.35
      direct lattice vectors                 reciprocal lattice vectors
     4.932874498 -0.001919286  0.000000000     0.202767147  0.117172881  0.000000000
    -2.468099399  4.271034986  0.000000000     0.000091118  0.234187941  0.000000000
     0.000000000  0.000000000 13.926676530     0.000000000  0.000000000  0.071804640

  length of vectors
     4.932874871  4.932874871 13.926676530     0.234187958  0.234187958  0.071804640


 FORCES acting on ions
    electron-ion (+dipol)            ewald-force                    non-local-force                 convergence-correction
 -----------------------------------------------------------------------------------------------
   0.619E+00 0.644E-01 -.183E+01   -.734E+00 -.582E-01 0.187E+01   -.951E-01 0.328E-02 -.173E+00   0.154E-04 -.985E-05 0.188E-02
   -.302E+00 0.677E-01 0.389E+00   0.319E+00 -.622E-01 -.373E+00   0.146E-01 0.321E-02 -.214E-01   0.548E-05 -.117E-04 0.185E-02
   -.134E+00 0.165E+00 0.389E+00   0.126E+00 -.174E+00 -.373E+00   0.423E-02 -.288E-02 -.214E-01   0.130E-04 -.896E-05 0.185E-02
   -.134E+00 -.299E-01 0.389E+00   0.126E+00 0.494E-01 -.373E+00   0.431E-02 0.911E-02 -.213E-01   0.881E-05 -.142E-04 0.185E-02
   -.120E+00 0.671E-01 -.910E-01   0.108E+00 -.621E-01 0.934E-01   -.631E-02 0.294E-02 0.298E-02   -.202E-04 -.269E-05 -.194E-02
   -.120E+00 0.671E-01 -.905E-01   0.108E+00 -.621E-01 0.929E-01   -.632E-02 0.294E-02 0.299E-02   -.223E-04 -.301E-06 -.194E-02
   -.120E+00 0.671E-01 -.905E-01   0.108E+00 -.622E-01 0.929E-01   -.631E-02 0.294E-02 0.299E-02   -.236E-04 0.105E-06 -.194E-02
   -.120E+00 0.671E-01 -.905E-01   0.108E+00 -.621E-01 0.929E-01   -.631E-02 0.294E-02 0.299E-02   -.197E-04 -.115E-05 -.193E-02
   0.118E+00 -.727E-01 -.839E-01   -.108E+00 0.655E-01 0.816E-01   0.557E-02 -.379E-02 -.298E-02   0.966E-05 -.393E-06 0.182E-02
   0.118E+00 -.663E-01 -.836E-01   -.108E+00 0.588E-01 0.815E-01   0.547E-02 -.366E-02 -.319E-02   0.910E-05 0.477E-06 0.182E-02
   0.112E+00 -.694E-01 -.837E-01   -.102E+00 0.621E-01 0.815E-01   0.541E-02 -.363E-02 -.308E-02   0.863E-05 0.997E-07 0.182E-02
   0.124E+00 -.694E-01 -.131E+00   -.114E+00 0.620E-01 0.129E+00   0.561E-02 -.369E-02 -.294E-02   0.102E-04 0.491E-06 0.182E-02
   0.117E+00 -.690E-01 -.803E-01   -.108E+00 0.654E-01 0.817E-01   0.534E-02 -.257E-02 -.322E-02   0.154E-04 -.164E-04 -.175E-02
   0.117E+00 -.624E-01 -.804E-01   -.107E+00 0.587E-01 0.817E-01   0.544E-02 -.244E-02 -.301E-02   0.146E-04 -.182E-04 -.175E-02
   0.111E+00 -.658E-01 -.804E-01   -.102E+00 0.621E-01 0.817E-01   0.528E-02 -.258E-02 -.311E-02   0.163E-04 -.179E-04 -.175E-02
   0.123E+00 -.658E-01 -.127E+00   -.114E+00 0.622E-01 0.129E+00   0.547E-02 -.253E-02 -.281E-02   0.138E-04 -.173E-04 -.175E-02
   0.326E-01 -.670E-01 0.326E+00   -.331E-01 0.622E-01 -.326E+00   0.301E-02 -.274E-02 0.985E-02   -.101E-04 0.847E-05 0.185E-02
   0.335E+00 -.587E-01 0.851E+00   -.333E+00 0.530E-01 -.885E+00   0.270E-01 -.252E-02 0.796E-01   -.112E-04 0.125E-04 0.185E-02
   -.217E+00 -.384E+00 0.847E+00   0.271E+00 0.409E+00 -.881E+00   0.193E-01 -.711E-02 0.793E-01   -.135E-04 0.111E-04 0.185E-02
   -.206E+00 0.246E+00 0.854E+00   0.259E+00 -.281E+00 -.889E+00   0.203E-01 0.119E-02 0.800E-01   -.753E-05 0.112E-04 0.185E-02
   0.118E+00 -.663E-01 -.906E-01   -.107E+00 0.620E-01 0.928E-01   0.574E-02 -.265E-02 -.820E-03   0.229E-04 0.144E-05 -.193E-02
   0.119E+00 -.663E-01 -.908E-01   -.107E+00 0.620E-01 0.931E-01   0.573E-02 -.265E-02 -.817E-03   0.242E-04 -.307E-06 -.193E-02
   0.118E+00 -.664E-01 -.908E-01   -.107E+00 0.620E-01 0.931E-01   0.574E-02 -.265E-02 -.818E-03   0.248E-04 -.980E-06 -.193E-02
   0.118E+00 -.663E-01 -.908E-01   -.107E+00 0.619E-01 0.931E-01   0.574E-02 -.265E-02 -.812E-03   0.216E-04 -.297E-06 -.193E-02
   -.997E-01 0.606E-01 -.943E-01   0.903E-01 -.539E-01 0.921E-01   -.511E-02 0.344E-02 0.120E-02   -.941E-05 0.110E-05 0.182E-02
   -.134E+00 0.571E-01 -.106E+00   0.125E+00 -.502E-01 0.104E+00   -.509E-02 0.335E-02 0.907E-03   -.991E-05 0.534E-07 0.182E-02
   -.114E+00 0.882E-01 -.100E+00   0.104E+00 -.817E-01 0.980E-01   -.503E-02 0.338E-02 0.107E-02   -.874E-05 -.240E-06 0.182E-02
   -.119E+00 0.686E-01 -.792E-01   0.110E+00 -.619E-01 0.770E-01   -.521E-02 0.338E-02 0.700E-03   -.105E-04 0.187E-06 0.182E-02
   -.132E+00 0.763E-01 -.102E+00   0.124E+00 -.736E-01 0.104E+00   -.460E-02 0.220E-02 0.927E-03   -.169E-04 0.168E-04 -.175E-02
   -.986E-01 0.727E-01 -.906E-01   0.906E-01 -.698E-01 0.920E-01   -.464E-02 0.211E-02 0.121E-02   -.171E-04 0.177E-04 -.175E-02
   -.112E+00 0.455E-01 -.964E-01   0.104E+00 -.424E-01 0.979E-01   -.454E-02 0.219E-02 0.106E-02   -.181E-04 0.183E-04 -.175E-02
   -.118E+00 0.649E-01 -.759E-01   0.110E+00 -.620E-01 0.773E-01   -.473E-02 0.217E-02 0.725E-03   -.158E-04 0.192E-04 -.175E-02
 -----------------------------------------------------------------------------------------------
   0.645E-04 -.132E-05 -.362E-02   -.519E-14 -.411E-13 0.923E-13   -.569E-04 0.368E-05 0.370E-02   -.721E-06 -.167E-05 -.530E-04
 
 
 POSITION                                       TOTAL-FORCE (eV/Angst)
 -----------------------------------------------------------------------------------
      2.46736      0.00044      1.75026        -0.211264      0.009522     -0.132642
      4.93046     -0.00052      1.74083         0.032116      0.008638     -0.003748
      1.22997      2.13595      1.74083        -0.003181     -0.011776     -0.003676
      3.69641      2.13499      1.74083        -0.003290      0.029143     -0.003907
      2.46402      0.00044      8.70417        -0.018748      0.007931      0.003472
      4.93046     -0.00052      8.70417        -0.018725      0.007933      0.003487
      1.22997      2.13595      8.70417        -0.018735      0.007927      0.003487
      3.69641      2.13499      8.70417        -0.018732      0.007937      0.003488
     -1.23163      2.13412      5.22250         0.015672     -0.011038     -0.003528
      1.23481      2.13316      5.22250         0.015534     -0.011117     -0.003573
     -2.46568      4.26964      5.22250         0.015671     -0.010957     -0.003548
      0.00076      4.26868      5.22250         0.015535     -0.011050     -0.003237
     -1.23163      2.13412     12.18584         0.014875     -0.006130     -0.003614
      1.23481      2.13316     12.18584         0.014987     -0.006200     -0.003572
     -2.46568      4.26964     12.18584         0.014987     -0.006269     -0.003593
      0.00076      4.26868     12.18584         0.014853     -0.006205     -0.003132
     -0.00332      1.42496      1.74083         0.002619     -0.007520      0.011872
      2.46311      1.42400      1.74083         0.029051     -0.008208      0.047525
     -1.23737      3.56047      1.74083         0.073224      0.017885      0.047901
      1.22906      3.55952      1.74083         0.073295     -0.033083      0.047073
     -0.00332      1.42496      8.70417         0.017017     -0.007075     -0.000487
      2.46311      1.42400      8.70417         0.017017     -0.007075     -0.000477
     -1.23737      3.56047      8.70417         0.017020     -0.007074     -0.000479
      1.22906      3.55952      8.70417         0.017017     -0.007077     -0.000473
      1.23571      0.70960      5.22250        -0.014549      0.010197      0.000794
      3.70215      0.70864      5.22250        -0.014139      0.010270      0.000809
      0.00166      2.84512      5.22250        -0.014408      0.009891      0.000813
      2.46810      2.84416      5.22250        -0.014273      0.010116      0.000289
      1.23571      0.70960     12.18584        -0.012461      0.004990      0.000810
      3.70215      0.70864     12.18584        -0.012754      0.005070      0.000783
      0.00166      2.84512     12.18584        -0.012680      0.005287      0.000786
      2.46810      2.84416     12.18584        -0.012552      0.005118      0.000297
 -----------------------------------------------------------------------------------
    total drift:                                0.000007      0.000001      0.000021


--------------------------------------------------------------------------------------------------------



  FREE ENERGIE OF THE ION-ELECTRON SYSTEM (eV)
  ---------------------------------------------------
  free  energy   TOTEN  =      -299.80827387 eV

  energy  without entropy=     -299.80827387  energy(sigma->0) =     -299.80827387
 


--------------------------------------------------------------------------------------------------------


    POTLOK:  cpu time    1.38: real time    3.43


--------------------------------------------------------------------------------------------------------


     LOOP+:  cpu time12381.29: real time30953.95
    4ORBIT:  cpu time    0.00: real time    0.00
 BZINTS: Fermi energy:  4.355687;128.000000 electrons
         Band energy:-608.627803;  BLOECHL correction:  0.000000

 total amount of memory used by VASP on root node   418593. kBytes
========================================================================

   base      :      30000. kBytes
   nonl-proj :      81317. kBytes
   fftplans  :      14475. kBytes
   grid      :      30806. kBytes
   one-center:         98. kBytes
   wavefun   :     261897. kBytes
 
  
  
 General timing and accounting informations for this job:
 ========================================================
  
                  Total CPU time used (sec):    12536.939
                            User time (sec):     5494.261
                          System time (sec):     7042.678
                         Elapsed time (sec):    31343.147
  
                   Maximum memory used (kb):      511464.
                   Average memory used (kb):           0.
  
                          Minor page faults:     61837810
                          Major page faults:            0
                 Voluntary context switches:         1030
