   32   32    1    1
  0.3102054E+01  0.4934311E-09  0.4934311E-09  0.4708020E-09  0.5000000E-15
  1.000000000000000E-004
  CAR 
 graphite                                
    128    163     84
 
  0.0000000E+00  0.0000000E+00  0.0000000E+00  0.3086420E-02
    1      -11.004665
    2       -6.123816
    3       -6.116833
    4       -5.671308
    5       -5.669234
    6       -5.669053
    7       -3.946406
    8       -3.944267
    9       -3.942223
   10       -1.390300
   11       -1.374769
   12       -1.373836
   13       -1.371997
   14       -1.371497
   15       -1.360538
   16        1.944843
   17        1.946772
   18        1.953146
   19        1.955741
   20        1.962471
   21        1.962953
   22        3.087717
   23        3.920565
   24        3.922450
   25        3.926259
   26        5.816133
   27        5.819187
   28        5.819715
   29        8.626052
   30        8.635342
   31        9.938712
   32        9.944599
   33        9.954070
   34        9.955430
   35        9.962282
   36        9.968314
   37       13.693009
   38       13.707808
   39       13.714122
   40       13.728120
   41       14.188112
   42       14.192948
   43       14.196890
   44       14.611429
   45       14.618202
   46       16.252286
   47       17.377316
   48       17.380964
   49       17.384141
   50       17.545141
   51       17.552304
   52       17.554565
   53       17.555864
   54       17.557644
   55       17.563764
   56       19.781873
   57       19.785132
   58       19.786684
   59       20.087776
   60       20.097379
   61       20.104389
   62       20.162414
   63       20.178429
   64       21.193259
   65       21.432703
   66       21.441897
   67       21.450984
   68       22.538131
   69       23.902550
   70       23.918987
   71       23.921373
   72       23.936599
   73       24.902472
   74       24.905281
   75       24.910388
   76       26.482246
   77       26.485556
   78       27.547298
   79       29.408021
   80       29.436218
   81       29.437020
   82       29.438111
   83       29.439476
   84       29.464756
 
  0.1111111E+00  0.1387779E-16  0.0000000E+00  0.6172840E-02
    1      -10.928447
    2       -6.335392
    3       -6.048069
    4       -6.041002
    5       -5.834920
    6       -5.831803
    7       -3.646010
    8       -3.641972
    9       -3.143478
   10       -1.795838
   11       -1.787419
   12       -1.452862
   13       -1.442686
   14       -1.440721
   15       -1.434204
   16        2.145594
   17        2.151084
   18        2.155189
   19        2.162476
   20        2.502201
   21        2.512298
   22        3.150430
   23        3.590267
   24        3.594782
   25        4.005731
   26        5.704522
   27        5.810365
   28        5.813072
   29        8.107600
   30        8.322915
   31        9.538258
   32        9.546328
   33        9.552237
   34        9.562002
   35       10.020366
   36       10.035820
   37       13.228851
   38       13.247134
   39       13.509973
   40       13.529232
   41       14.223330
   42       14.591864
   43       14.599004
   44       14.749118
   45       15.033152
   46       16.318825
   47       17.489859
   48       17.495440
   49       17.569303
   50       17.604678
   51       17.611802
   52       18.056459
   53       18.063543
   54       18.065252
   55       18.072049
   56       19.204628
   57       19.566957
   58       19.571546
   59       20.091861
   60       20.105537
   61       20.427070
   62       20.437141
   63       20.759278
   64       21.365922
   65       21.378040
   66       21.387129
   67       21.446993
   68       22.392635
   69       23.968340
   70       23.983438
   71       24.272457
   72       24.287445
   73       24.638750
   74       24.645443
   75       25.029528
   76       27.085844
   77       27.089685
   78       27.544081
   79       29.198037
   80       29.222851
   81       29.223786
   82       29.233523
   83       29.259106
   84       29.279179
 
  0.2222222E+00  0.4163336E-16  0.0000000E+00  0.6172840E-02
    1      -10.700004
    2       -7.351053
    3       -6.130821
    4       -6.126366
    5       -5.821389
    6       -5.814279
    7       -2.943711
    8       -2.938842
    9       -2.626916
   10       -2.618783
   11       -1.725993
   12       -1.606277
   13       -1.596334
   14       -1.595063
   15       -1.588218
   16        2.684461
   17        2.690190
   18        2.694390
   19        2.701271
   20        2.745288
   21        2.750314
   22        3.335131
   23        3.733715
   24        3.744451
   25        4.258261
   26        5.393289
   27        5.791850
   28        5.794792
   29        6.809381
   30        7.606117
   31        8.574244
   32        8.582582
   33        8.587516
   34        8.596901
   35       10.249404
   36       10.265041
   37       12.009812
   38       12.026536
   39       13.025353
   40       13.043740
   41       14.314356
   42       14.917392
   43       15.604897
   44       15.613716
   45       16.084275
   46       16.513706
   47       17.766900
   48       17.774307
   49       17.803630
   50       17.808865
   51       18.090173
   52       18.573054
   53       19.316401
   54       19.324252
   55       19.327020
   56       19.334542
   57       19.364940
   58       19.368177
   59       19.806848
   60       19.816124
   61       20.971600
   62       20.981099
   63       21.199016
   64       21.220275
   65       21.226312
   66       21.616553
   67       21.977924
   68       22.157212
   69       23.969046
   70       23.975454
   71       24.385312
   72       24.401393
   73       25.256133
   74       25.270497
   75       25.404986
   76       27.241412
   77       28.501579
   78       28.510750
   79       28.530192
   80       28.548977
   81       28.550481
   82       28.561579
   83       28.756998
   84       28.775952
 
  0.3333333E+00  0.5551115E-16  0.0000000E+00  0.6172840E-02
    1      -10.320125
    2       -8.295980
    3       -6.371468
    4       -6.366895
    5       -5.447045
    6       -5.439826
    7       -3.490361
    8       -3.482519
    9       -2.049998
   10       -2.044851
   11       -1.755752
   12       -1.745706
   13       -1.744960
   14       -1.738153
   15       -0.121269
   16        1.661402
   17        1.666826
   18        3.434058
   19        3.440070
   20        3.444003
   21        3.451683
   22        3.633009
   23        4.673944
   24        4.958855
   25        5.151446
   26        5.253556
   27        5.265131
   28        5.771217
   29        5.774233
   30        6.763664
   31        7.443005
   32        7.451546
   33        7.455626
   34        7.465016
   35       10.409450
   36       10.424506
   37       10.622496
   38       10.638383
   39       12.389624
   40       12.407056
   41       14.455812
   42       14.924372
   43       16.781844
   44       16.791787
   45       16.799250
   46       17.424638
   47       18.016338
   48       18.036616
   49       18.043293
   50       18.231828
   51       18.237296
   52       18.840211
   53       19.312576
   54       19.315704
   55       19.348042
   56       19.355386
   57       20.758401
   58       20.767798
   59       20.769352
   60       20.896591
   61       20.902003
   62       20.904271
   63       20.916605
   64       21.346716
   65       21.959674
   66       21.971702
   67       22.514032
   68       23.126706
   69       23.177164
   70       23.182739
   71       25.164879
   72       25.182804
   73       26.026088
   74       26.629780
   75       26.711078
   76       26.725026
   77       27.318307
   78       27.332609
   79       27.416664
   80       27.437107
   81       27.439282
   82       27.446199
   83       28.005827
   84       28.024840
 
  0.4444444E+00  0.8326673E-16  0.0000000E+00  0.6172840E-02
    1       -9.790417
    2       -9.113552
    3       -6.499826
    4       -6.495195
    5       -4.927024
    6       -4.919637
    7       -4.269318
    8       -4.261736
    9       -1.842794
   10       -1.832646
   11       -1.832152
   12       -1.825511
   13       -1.146658
   14       -1.141999
   15        0.635190
   16        0.640400
   17        1.595010
   18        3.373649
   19        4.023336
   20        4.159993
   21        4.166643
   22        4.169553
   23        4.179034
   24        4.481471
   25        5.245731
   26        5.757408
   27        5.761027
   28        5.953176
   29        6.503572
   30        6.512691
   31        6.516118
   32        6.526278
   33        6.923808
   34        6.936301
   35        8.669621
   36        8.683272
   37       11.124583
   38       11.140951
   39       11.729619
   40       11.746205
   41       14.629578
   42       14.803505
   43       17.138952
   44       17.541552
   45       17.559152
   46       17.567375
   47       18.401537
   48       18.408791
   49       18.581985
   50       18.587101
   51       18.792269
   52       18.850349
   53       18.857587
   54       19.501783
   55       19.512286
   56       19.700442
   57       19.960961
   58       20.344451
   59       20.348465
   60       20.564527
   61       22.276093
   62       22.278708
   63       22.281189
   64       22.295129
   65       22.609429
   66       22.613905
   67       23.270852
   68       23.285821
   69       23.351131
   70       23.743917
   71       25.116103
   72       25.130320
   73       26.112361
   74       26.132816
   75       26.253349
   76       26.275136
   77       26.278591
   78       26.280542
   79       26.456682
   80       26.870118
   81       27.094843
   82       27.113832
   83       27.422802
   84       27.874444
 
  0.0000000E+00  0.1111111E+00  0.0000000E+00  0.6172840E-02
    1      -10.928448
    2       -6.335521
    3       -6.048062
    4       -6.041058
    5       -5.836028
    6       -5.830486
    7       -3.647009
    8       -3.640585
    9       -3.143913
   10       -1.795695
   11       -1.787373
   12       -1.452823
   13       -1.443229
   14       -1.440991
   15       -1.433706
   16        2.145013
   17        2.153110
   18        2.155085
   19        2.162992
   20        2.501302
   21        2.511391
   22        3.150406
   23        3.588691
   24        3.595284
   25        4.006919
   26        5.704537
   27        5.810459
   28        5.812962
   29        8.105802
   30        8.324746
   31        9.535783
   32        9.547185
   33        9.551270
   34        9.561350
   35       10.022671
   36       10.037231
   37       13.226105
   38       13.241714
   39       13.516049
   40       13.531699
   41       14.222473
   42       14.593295
   43       14.598416
   44       14.745794
   45       15.036828
   46       16.318922
   47       17.490179
   48       17.495025
   49       17.570115
   50       17.604110
   51       17.611451
   52       18.055516
   53       18.063799
   54       18.065098
   55       18.072325
   56       19.203777
   57       19.566102
   58       19.572271
   59       20.092069
   60       20.105436
   61       20.430021
   62       20.437549
   63       20.756691
   64       21.362858
   65       21.376533
   66       21.391442
   67       21.446683
   68       22.392635
   69       23.974994
   70       23.984235
   71       24.271766
   72       24.277774
   73       24.639270
   74       24.645114
   75       25.029319
   76       27.087588
   77       27.090358
   78       27.544466
   79       29.200120
   80       29.223040
   81       29.224346
   82       29.237570
   83       29.256591
   84       29.275453
 
  0.1111111E+00  0.1111111E+00  0.0000000E+00  0.6172840E-02
    1      -10.776097
    2       -6.794755
    3       -6.786548
    4       -5.896954
    5       -5.889852
    6       -5.475368
    7       -3.725420
    8       -2.422781
    9       -2.414246
   10       -2.148631
   11       -2.139109
   12       -2.135658
   13       -2.128780
   14       -1.191304
   15       -1.182633
   16        2.148654
   17        2.158433
   18        2.665250
   19        3.105397
   20        3.115662
   21        3.117928
   22        3.125742
   23        3.274653
   24        3.756588
   25        3.759442
   26        5.592705
   27        5.595870
   28        5.901112
   29        7.273358
   30        7.739651
   31        8.499257
   32        8.512463
   33        9.689330
   34        9.699758
   35        9.707298
   36        9.712395
   37       12.436443
   38       12.453872
   39       13.112289
   40       13.130840
   41       14.652287
   42       14.658855
   43       15.026322
   44       15.583829
   45       15.623049
   46       16.458526
   47       17.643328
   48       17.844349
   49       17.848199
   50       18.158942
   51       18.164684
   52       18.168140
   53       18.172733
   54       18.921506
   55       18.931387
   56       19.281064
   57       19.289957
   58       19.775930
   59       19.963993
   60       19.974089
   61       20.544393
   62       21.175937
   63       21.179904
   64       21.222615
   65       21.304432
   66       21.312401
   67       21.930489
   68       22.113641
   69       23.827659
   70       24.008036
   71       24.014207
   72       24.898576
   73       24.902445
   74       25.142193
   75       25.151759
   76       27.371077
   77       28.060432
   78       28.066119
   79       28.792408
   80       28.817766
   81       28.820935
   82       28.827417
   83       28.829373
   84       28.851045
 
  0.2222222E+00  0.1111111E+00  0.0000000E+00  0.6172840E-02
    1      -10.471927
    2       -7.782887
    3       -7.135186
    4       -5.596581
    5       -5.589367
    6       -5.438988
    7       -3.218706
    8       -3.012309
    9       -3.004303
   10       -2.421582
   11       -2.413409
   12       -1.547708
   13       -1.081579
   14       -1.072786
   15       -0.898591
   16        1.489665
   17        2.536227
   18        2.546120
   19        2.996588
   20        3.515317
   21        3.890119
   22        3.901009
   23        4.091383
   24        4.505293
   25        4.516418
   26        5.215990
   27        5.498677
   28        5.903108
   29        5.965008
   30        6.867706
   31        7.266194
   32        7.278248
   33        8.820980
   34        8.833942
   35       10.001084
   36       10.016069
   37       11.117525
   38       11.133905
   39       12.439516
   40       12.457490
   41       14.771719
   42       15.247780
   43       15.683073
   44       16.576888
   45       16.773498
   46       16.785150
   47       18.003571
   48       18.250764
   49       18.337008
   50       18.366871
   51       18.374463
   52       18.473677
   53       18.788429
   54       19.445260
   55       19.453914
   56       19.675911
   57       19.742978
   58       19.750307
   59       20.862964
   60       20.871713
   61       20.900662
   62       20.934121
   63       20.954013
   64       21.379493
   65       21.596772
   66       21.884255
   67       22.121511
   68       22.785807
   69       22.822747
   70       24.343073
   71       24.351444
   72       24.410179
   73       25.420922
   74       26.572369
   75       26.584634
   76       26.826505
   77       27.815712
   78       27.832252
   79       27.912520
   80       28.036093
   81       28.052878
   82       28.095843
   83       28.113385
   84       28.576169
 
  0.3333333E+00  0.1111111E+00  0.0000000E+00  0.6172840E-02
    1      -10.017078
    2       -8.665828
    3       -7.346905
    4       -5.527689
    5       -5.148973
    6       -5.141670
    7       -3.839588
    8       -3.831857
    9       -2.599535
   10       -2.591392
   11       -2.366287
   12       -1.066515
   13       -1.057680
   14       -0.609079
   15        0.289435
   16        0.756236
   17        2.023264
   18        3.183726
   19        3.193741
   20        3.860208
   21        4.241869
   22        4.583825
   23        4.723559
   24        4.734859
   25        4.756677
   26        5.433614
   27        6.000576
   28        6.000916
   29        6.097042
   30        6.107415
   31        6.113537
   32        6.124896
   33        7.826930
   34        7.838826
   35        9.505155
   36        9.519751
   37       10.451802
   38       10.467065
   39       11.710471
   40       11.727118
   41       14.927601
   42       15.229784
   43       16.782594
   44       17.016372
   45       17.737378
   46       17.827211
   47       17.964406
   48       18.465730
   49       18.643801
   50       18.660640
   51       18.668204
   52       18.912311
   53       19.261964
   54       19.404740
   55       19.412155
   56       19.586707
   57       20.292206
   58       20.339019
   59       20.680019
   60       20.904331
   61       20.935199
   62       20.943371
   63       21.910737
   64       22.470448
   65       22.479981
   66       22.739031
   67       22.752552
   68       23.005183
   69       23.633470
   70       23.876993
   71       25.099651
   72       25.112158
   73       25.770611
   74       26.187075
   75       26.238868
   76       26.481819
   77       26.494553
   78       26.874032
   79       26.973116
   80       26.988504
   81       27.144895
   82       27.161668
   83       27.252136
   84       28.242729
 
  0.4444444E+00  0.1111111E+00  0.0000000E+00  0.6172840E-02
    1       -9.418002
    2       -9.409478
    3       -7.418057
    4       -5.569837
    5       -4.565729
    6       -4.557840
    7       -4.554003
    8       -4.546982
    9       -2.660326
   10       -2.652140
   11       -1.709474
   12       -1.071438
   13       -1.062618
   14       -0.479306
   15        0.008134
   16        1.379617
   17        2.488264
   18        2.491223
   19        3.629282
   20        3.638990
   21        4.282661
   22        4.288578
   23        5.200195
   24        5.213246
   25        5.226193
   26        5.234332
   27        5.410538
   28        5.499525
   29        5.509148
   30        6.013336
   31        7.278527
   32        7.289737
   33        7.786293
   34        7.793969
   35        7.801627
   36        7.812358
   37       11.019650
   38       11.040195
   39       11.041783
   40       11.053412
   41       15.091356
   42       15.100105
   43       17.242668
   44       17.388440
   45       17.393874
   46       18.106924
   47       18.722055
   48       18.817092
   49       19.015571
   50       19.021716
   51       19.026183
   52       19.033107
   53       19.251128
   54       19.261870
   55       19.381320
   56       19.563344
   57       19.710687
   58       20.100622
   59       20.104485
   60       20.538026
   61       21.494607
   62       21.765783
   63       21.771267
   64       23.369954
   65       23.375238
   66       23.642981
   67       23.698109
   68       23.714113
   69       23.844707
   70       24.171240
   71       24.534647
   72       24.741556
   73       25.690922
   74       25.700542
   75       26.089671
   76       26.097844
   77       26.107199
   78       26.121774
   79       26.258071
   80       26.270585
   81       26.349035
   82       26.365978
   83       27.151950
   84       27.156103
 
 -0.4444444E+00  0.1111111E+00  0.0000000E+00  0.6172840E-02
    1      -10.017181
    2       -8.665665
    3       -7.347112
    4       -5.527552
    5       -5.149071
    6       -5.141743
    7       -3.839460
    8       -3.831731
    9       -2.599622
   10       -2.591429
   11       -2.363826
   12       -1.066515
   13       -1.057800
   14       -0.611731
   15        0.286540
   16        0.756113
   17        2.026554
   18        3.186607
   19        3.196656
   20        3.860083
   21        4.241321
   22        4.584213
   23        4.720149
   24        4.730907
   25        4.758106
   26        5.433646
   27        6.000386
   28        6.000927
   29        6.096142
   30        6.106434
   31        6.112498
   32        6.122178
   33        7.830238
   34        7.842401
   35        9.504226
   36        9.518404
   37       10.452237
   38       10.467600
   39       11.711414
   40       11.727106
   41       14.926627
   42       15.231003
   43       16.783110
   44       17.017053
   45       17.737935
   46       17.826883
   47       17.967205
   48       18.468784
   49       18.641468
   50       18.658475
   51       18.665774
   52       18.911704
   53       19.262513
   54       19.409082
   55       19.416037
   56       19.586563
   57       20.290431
   58       20.344275
   59       20.676203
   60       20.903625
   61       20.938725
   62       20.947315
   63       21.907494
   64       22.465587
   65       22.474426
   66       22.736290
   67       22.750738
   68       23.005863
   69       23.630277
   70       23.879487
   71       25.097997
   72       25.110500
   73       25.767610
   74       26.186543
   75       26.235542
   76       26.477559
   77       26.491054
   78       26.879267
   79       26.979376
   80       26.993044
   81       27.145293
   82       27.161523
   83       27.253393
   84       28.240464
 
 -0.3333333E+00  0.1111111E+00  0.0000000E+00  0.6172840E-02
    1      -10.472001
    2       -7.782689
    3       -7.135596
    4       -5.596583
    5       -5.589444
    6       -5.438829
    7       -3.215843
    8       -3.012187
    9       -3.004168
   10       -2.421856
   11       -2.413552
   12       -1.550481
   13       -1.081504
   14       -1.072986
   15       -0.898780
   16        1.486285
   17        2.539670
   18        2.549570
   19        3.000472
   20        3.515130
   21        3.886726
   22        3.897638
   23        4.091724
   24        4.505231
   25        4.516362
   26        5.216008
   27        5.498750
   28        5.901239
   29        5.964876
   30        6.869109
   31        7.262500
   32        7.274367
   33        8.825239
   34        8.838552
   35       10.001565
   36       10.016610
   37       11.115263
   38       11.130311
   39       12.443151
   40       12.458827
   41       14.771012
   42       15.248693
   43       15.684995
   44       16.579078
   45       16.776932
   46       16.781778
   47       18.007708
   48       18.247319
   49       18.336667
   50       18.365374
   51       18.372995
   52       18.473984
   53       18.787612
   54       19.449788
   55       19.458617
   56       19.676512
   57       19.747485
   58       19.754764
   59       20.855967
   60       20.865440
   61       20.909029
   62       20.932033
   63       20.949318
   64       21.379346
   65       21.596226
   66       21.881065
   67       22.121848
   68       22.782366
   69       22.818152
   70       24.340704
   71       24.349074
   72       24.414370
   73       25.420538
   74       26.571292
   75       26.577599
   76       26.824502
   77       27.810343
   78       27.827656
   79       27.908074
   80       28.043083
   81       28.057860
   82       28.095677
   83       28.113941
   84       28.574411
 
 -0.2222222E+00  0.1111111E+00  0.0000000E+00  0.6172840E-02
    1      -10.776141
    2       -6.791617
    3       -6.790046
    4       -5.896960
    5       -5.889894
    6       -5.475106
    7       -3.722669
    8       -2.421520
    9       -2.418490
   10       -2.147506
   11       -2.138047
   12       -2.136889
   13       -2.129788
   14       -1.191187
   15       -1.182850
   16        2.152203
   17        2.162017
   18        2.661576
   19        3.104796
   20        3.113415
   21        3.115796
   22        3.123279
   23        3.274885
   24        3.757661
   25        3.762700
   26        5.593343
   27        5.595354
   28        5.900962
   29        7.268497
   30        7.744209
   31        8.495203
   32        8.508128
   33        9.692476
   34        9.702308
   35        9.707852
   36        9.716327
   37       12.430967
   38       12.446282
   39       13.120436
   40       13.135709
   41       14.655626
   42       14.657946
   43       15.025705
   44       15.581544
   45       15.625964
   46       16.458742
   47       17.647776
   48       17.842220
   49       17.846421
   50       18.160051
   51       18.168099
   52       18.168518
   53       18.175586
   54       18.924734
   55       18.926549
   56       19.275346
   57       19.284197
   58       19.777250
   59       19.967574
   60       19.977505
   61       20.546007
   62       21.176522
   63       21.180151
   64       21.214673
   65       21.308326
   66       21.312612
   67       21.928175
   68       22.113256
   69       23.822465
   70       24.008037
   71       24.012920
   72       24.900342
   73       24.905491
   74       25.140604
   75       25.143378
   76       27.368882
   77       28.064233
   78       28.066756
   79       28.794987
   80       28.820584
   81       28.821157
   82       28.825434
   83       28.827357
   84       28.851030
 
 -0.1111111E+00  0.1111111E+00  0.0000000E+00  0.6172840E-02
    1      -10.928463
    2       -6.336138
    3       -6.048008
    4       -6.041090
    5       -5.834322
    6       -5.831581
    7       -3.644218
    8       -3.640945
    9       -3.146459
   10       -1.795965
   11       -1.787387
   12       -1.452492
   13       -1.443397
   14       -1.440866
   15       -1.433803
   16        2.147134
   17        2.153838
   18        2.159379
   19        2.162851
   20        2.497778
   21        2.507868
   22        3.150428
   23        3.588738
   24        3.591372
   25        4.011031
   26        5.704684
   27        5.810629
   28        5.812634
   29        8.100255
   30        8.330240
   31        9.534031
   32        9.544587
   33        9.551058
   34        9.557034
   35       10.027182
   36       10.042343
   37       13.217028
   38       13.235982
   39       13.522026
   40       13.540847
   41       14.225624
   42       14.590625
   43       14.597753
   44       14.743914
   45       15.039607
   46       16.318956
   47       17.493202
   48       17.496543
   49       17.565230
   50       17.609295
   51       17.616808
   52       18.053767
   53       18.060795
   54       18.062923
   55       18.067839
   56       19.202157
   57       19.568551
   58       19.571330
   59       20.093385
   60       20.106441
   61       20.430155
   62       20.440263
   63       20.753253
   64       21.360179
   65       21.371113
   66       21.400024
   67       21.445642
   68       22.392495
   69       23.978399
   70       23.992428
   71       24.258507
   72       24.274448
   73       24.637778
   74       24.641072
   75       25.034762
   76       27.088575
   77       27.091879
   78       27.543484
   79       29.204666
   80       29.224421
   81       29.225659
   82       29.240607
   83       29.251618
   84       29.271107
 
 -0.3388132E-20  0.2222222E+00  0.0000000E+00  0.6172840E-02
    1      -10.700011
    2       -7.351177
    3       -6.132286
    4       -6.124684
    5       -5.821395
    6       -5.814263
    7       -2.945267
    8       -2.937010
    9       -2.626840
   10       -2.618749
   11       -1.726214
   12       -1.606769
   13       -1.597350
   14       -1.594855
   15       -1.587335
   16        2.683297
   17        2.692517
   18        2.693931
   19        2.702366
   20        2.743215
   21        2.751384
   22        3.335347
   23        3.732713
   24        3.743444
   25        4.259496
   26        5.393298
   27        5.791620
   28        5.795002
   29        6.807830
   30        7.607787
   31        8.571576
   32        8.583822
   33        8.586177
   34        8.597158
   35       10.251836
   36       10.266470
   37       12.007570
   38       12.022627
   39       13.030425
   40       13.045906
   41       14.313357
   42       14.914423
   43       15.606060
   44       15.613923
   45       16.088354
   46       16.513982
   47       17.767137
   48       17.774442
   49       17.803002
   50       17.809008
   51       18.090227
   52       18.572530
   53       19.314448
   54       19.324079
   55       19.326801
   56       19.334557
   57       19.362498
   58       19.368252
   59       19.807175
   60       19.816318
   61       20.975098
   62       20.980246
   63       21.205741
   64       21.218341
   65       21.223724
   66       21.613210
   67       21.977923
   68       22.154446
   69       23.969146
   70       23.975487
   71       24.387432
   72       24.402195
   73       25.254625
   74       25.262222
   75       25.404802
   76       27.244002
   77       28.508454
   78       28.511980
   79       28.531780
   80       28.549138
   81       28.551376
   82       28.567130
   83       28.754175
   84       28.772227
 
  0.1111111E+00  0.2222222E+00  0.0000000E+00  0.6172840E-02
    1      -10.471932
    2       -7.783005
    3       -7.135052
    4       -5.596580
    5       -5.589364
    6       -5.438915
    7       -3.218793
    8       -3.012307
    9       -3.004310
   10       -2.421588
   11       -2.413432
   12       -1.547190
   13       -1.081461
   14       -1.072726
   15       -0.899300
   16        1.489687
   17        2.536201
   18        2.546112
   19        2.995676
   20        3.515240
   21        3.891124
   22        3.901930
   23        4.092460
   24        4.504370
   25        4.515455
   26        5.215975
   27        5.498646
   28        5.902124
   29        5.965005
   30        6.868825
   31        7.266204
   32        7.278277
   33        8.819331
   34        8.832883
   35       10.003261
   36       10.017334
   37       11.116603
   38       11.131758
   39       12.442506
   40       12.458336
   41       14.770602
   42       15.245757
   43       15.684519
   44       16.578863
   45       16.774433
   46       16.785484
   47       18.003586
   48       18.250686
   49       18.336958