   32   32    1    1
  0.4874656E+01  0.4934311E-09  0.4934311E-09  0.7398317E-09  0.5000000E-15
  1.000000000000000E-004
  CAR 
 graphite                                
    128    163     84
 
  0.0000000E+00  0.0000000E+00  0.0000000E+00  0.3086420E-02
    1      -11.514553
    2       -9.310995
    3       -9.304041
    4       -5.825300
    5       -5.823917
    6       -5.823631
    7       -4.665234
    8       -4.662107
    9       -4.661613
   10       -3.843568
   11       -3.798813
   12       -3.787308
   13       -3.786787
   14       -3.786552
   15       -3.785740
   16       -3.776599
   17       -2.568956
   18       -2.565916
   19       -2.562769
   20       -2.560861
   21       -2.558228
   22       -2.555927
   23       -1.406164
   24        1.092082
   25        1.096829
   26        1.098145
   27        1.128400
   28        1.129564
   29        1.130572
   30        3.438818
   31        3.441548
   32        3.446114
   33        4.139199
   34        4.140593
   35        4.141346
   36        4.966639
   37        4.972520
   38        4.974511
   39        4.975730
   40        4.976139
   41        4.983293
   42        6.979251
   43        6.983184
   44        6.988507
   45        7.598825
   46        7.611855
   47        7.636287
   48        7.648211
   49        8.133565
   50        8.135392
   51        8.136718
   52        8.464977
   53        8.475139
   54        8.479030
   55        8.490178
   56        9.249482
   57        9.264641
   58       11.767739
   59       11.786105
   60       11.786505
   61       11.788861
   62       11.789215
   63       11.806447
   64       13.459945
   65       13.476475
   66       13.477067
   67       13.478667
   68       13.479304
   69       13.496065
   70       15.088162
   71       15.094011
   72       15.099577
   73       15.369346
   74       16.290929
   75       16.292383
   76       16.293592
   77       18.999135
   78       19.015406
   79       19.384089
   80       19.397132
   81       19.399683
   82       19.412670
   83       19.613770
   84       20.004069
 
  0.1111111E+00  0.6938894E-17  0.0000000E+00  0.6172840E-02
    1      -11.435854
    2       -9.233488
    3       -9.226534
    4       -6.644421
    5       -6.064376
    6       -6.062365
    7       -4.559503
    8       -4.552516
    9       -4.288696
   10       -4.285400
   11       -4.010431
   12       -4.004548
   13       -4.003204
   14       -3.997167
   15       -3.780764
   16       -3.719124
   17       -2.221089
   18       -2.216977
   19       -2.213907
   20       -2.211019
   21       -1.678318
   22       -1.671662
   23       -1.316420
   24        0.132076
   25        0.635083
   26        0.638219
   27        1.645893
   28        1.649205
   29        2.186743
   30        3.181150
   31        3.185834
   32        3.517956
   33        3.668908
   34        4.063375
   35        4.065187
   36        4.689224
   37        4.692818
   38        4.694322
   39        4.701222
   40        5.042472
   41        5.048638
   42        6.819357
   43        6.825577
   44        7.045217
   45        7.155912
   46        7.340217
   47        7.627440
   48        7.638296
   49        8.228462
   50        8.236677
   51        8.300546
   52        8.310609
   53        8.361455
   54        8.364325
   55        8.741480
   56        9.123751
   57        9.242526
   58       11.424036
   59       11.437309
   60       11.723415
   61       11.734564
   62       11.736970
   63       11.750275
   64       13.693192
   65       13.705985
   66       13.708876
   67       13.718502
   68       13.819888
   69       13.831849
   70       15.163409
   71       15.380632
   72       15.530523
   73       15.538913
   74       15.950878
   75       15.951960
   76       16.287724
   77       18.832069
   78       18.869116
   79       18.876968
   80       19.239832
   81       19.327398
   82       19.725363
   83       19.736437
   84       20.177604
 
  0.2222222E+00  0.0000000E+00  0.0000000E+00  0.6172840E-02
    1      -11.200009
    2       -9.001461
    3       -8.994508
    4       -7.733095
    5       -6.428854
    6       -6.426619
    7       -5.610561
    8       -5.603621
    9       -4.352844
   10       -4.347898
   11       -4.345633
   12       -4.340646
   13       -3.592506
   14       -3.517830
   15       -3.514362
   16       -2.295647
   17       -1.493781
   18       -1.489775
   19       -1.486565
   20       -1.483495
   21       -1.047964
   22       -0.714749
   23       -0.281892
   24       -0.275143
   25        0.248286
   26        0.251317
   27        1.918084
   28        1.922077
   29        2.711743
   30        2.815625
   31        2.818144
   32        3.326762
   33        3.751473
   34        3.890680
   35        3.893112
   36        3.955662
   37        3.958912
   38        3.961085
   39        3.967529
   40        5.261777
   41        5.268070
   42        6.012645
   43        6.366885
   44        6.372867
   45        6.730994
   46        7.073324
   47        7.081503
   48        7.236190
   49        7.864205
   50        7.872710
   51        8.090751
   52        8.101437
   53        8.647122
   54        8.974843
   55        8.978014
   56        9.111483
   57       10.090730
   58       10.745404
   59       10.757604
   60       11.624942
   61       11.636770
   62       11.638928
   63       11.652233
   64       14.204276
   65       14.216950
   66       14.220790
   67       14.231615
   68       14.481757
   69       14.491904
   70       15.073877
   71       15.075355
   72       15.378632
   73       15.397055
   74       16.270884
   75       16.726205
   76       16.734476
   77       18.136979
   78       18.144795
   79       18.277841
   80       18.527889
   81       19.953230
   82       20.537083
   83       20.549382
   84       20.644833
 
  0.3333333E+00  0.5551115E-16  0.0000000E+00  0.6172840E-02
    1      -10.807969
    2       -8.716985
    3       -8.616017
    4       -8.609076
    5       -6.702854
    6       -6.700570
    7       -6.568162
    8       -6.561241
    9       -4.614473
   10       -4.609950
   11       -4.607280
   12       -4.602759
   13       -3.280314
   14       -2.589744
   15       -2.586059
   16       -1.699969
   17       -0.626061
   18       -0.621398
   19       -0.618342
   20       -0.615774
   21       -0.601348
   22       -0.490595
   23       -0.083829
   24       -0.080334
   25        1.212971
   26        1.218650
   27        1.234853
   28        1.241531
   29        1.704380
   30        2.997466
   31        3.000527
   32        3.003185
   33        3.008927
   34        3.311593
   35        3.315753
   36        3.721910
   37        3.724554
   38        4.134315
   39        4.500291
   40        4.508966
   41        5.617706
   42        5.624312
   43        5.711733
   44        5.717054
   45        5.846080
   46        5.853912
   47        6.004690
   48        7.280644
   49        7.288449
   50        7.541044
   51        7.848754
   52        8.373530
   53        8.385150
   54        8.799130
   55        9.838054
   56        9.841595
   57       10.034800
   58       10.046684
   59       11.541047
   60       11.553371
   61       11.555361
   62       11.568426
   63       11.713018
   64       13.945902
   65       13.947706
   66       14.706690
   67       14.719640
   68       14.724025
   69       14.735798
   70       15.195875
   71       15.205016
   72       15.326304
   73       15.735366
   74       16.247435
   75       17.388071
   76       17.395974
   77       17.411097
   78       17.553352
   79       18.439168
   80       18.447294
   81       21.043763
   82       21.052762
   83       21.150989
   84       21.735152
 
  0.4444444E+00  0.0000000E+00  0.0000000E+00  0.6172840E-02
    1      -10.261287
    2       -9.562605
    3       -8.079389
    4       -8.072434
    5       -7.394790
    6       -7.387855
    7       -6.844540
    8       -6.842316
    9       -4.750879
   10       -4.746520
   11       -4.743687
   12       -4.739359
   13       -2.847294
   14       -2.301671
   15       -1.622977
   16       -1.619521
   17       -0.559486
   18       -0.554047
   19        0.011818
   20        0.194680
   21        0.199565
   22        0.202302
   23        0.204895
   24        0.545013
   25        0.551375
   26        0.788374
   27        1.122644
   28        2.104733
   29        2.107498
   30        2.110688
   31        2.115579
   32        2.806233
   33        2.812581
   34        2.829420
   35        3.623317
   36        3.626089
   37        4.043601
   38        4.047938
   39        4.372462
   40        4.379686
   41        4.654347
   42        4.972165
   43        4.976953
   44        5.289991
   45        5.693727
   46        6.095020
   47        6.101791
   48        6.665315
   49        6.672398
   50        6.831720
   51        7.935109
   52        8.376827
   53        8.817086
   54        8.828894
   55        9.379392
   56        9.391222
   57       10.710921
   58       10.714926
   59       11.494854
   60       11.507092
   61       11.509010
   62       11.522290
   63       12.915507
   64       12.917324
   65       13.376314
   66       14.762613
   67       15.003893
   68       15.016990
   69       15.021596
   70       15.033879
   71       15.917037
   72       15.925445
   73       16.228246
   74       16.256770
   75       16.499629
   76       16.647132
   77       16.655289
   78       16.844906
   79       20.468767
   80       20.476950
   81       21.540376
   82       21.548087
   83       21.826729
   84       21.832686
 
 -0.8470329E-21  0.1111111E+00  0.0000000E+00  0.6172840E-02
    1      -11.435856
    2       -9.233490
    3       -9.226536
    4       -6.644485
    5       -6.065210
    6       -6.061532
    7       -4.559499
    8       -4.552502
    9       -4.289115
   10       -4.284348
   11       -4.011236
   12       -4.004131
   13       -4.003421
   14       -3.996899
   15       -3.780650
   16       -3.719820
   17       -2.221649
   18       -2.216016
   19       -2.214236
   20       -2.208647
   21       -1.679080
   22       -1.672984
   23       -1.316419
   24        0.131091
   25        0.634300
   26        0.639745
   27        1.645426
   28        1.651541
   29        2.185523
   30        3.179530
   31        3.185279
   32        3.519666
   33        3.669240
   34        4.062683
   35        4.065468
   36        4.686588
   37        4.692678
   38        4.694229
   39        4.700360
   40        5.045045
   41        5.049944
   42        6.817453
   43        6.825212
   44        7.047543
   45        7.152492
   46        7.343691
   47        7.627067
   48        7.637845
   49        8.225826
   50        8.231268
   51        8.307905
   52        8.311997
   53        8.361130
   54        8.364655
   55        8.741927
   56        9.118811
   57        9.247610
   58       11.425199
   59       11.438076
   60       11.721939
   61       11.734299
   62       11.737060
   63       11.749236
   64       13.694265
   65       13.706529
   66       13.709080
   67       13.720373
   68       13.818750
   69       13.830041
   70       15.164173
   71       15.380707
   72       15.530936
   73       15.537695
   74       15.951123
   75       15.952802
   76       16.286267
   77       18.837311
   78       18.872791
   79       18.878066
   80       19.234109
   81       19.327354
   82       19.724401
   83       19.726845
   84       20.178340
 
  0.1111111E+00  0.1111111E+00  0.0000000E+00  0.6172840E-02
    1      -11.278550
    2       -9.078720
    3       -9.071766
    4       -7.143733
    5       -7.139872
    6       -5.618486
    7       -5.041870
    8       -5.034198
    9       -5.033907
   10       -5.027126
   11       -4.444430
   12       -3.655135
   13       -3.592341
   14       -3.585134
   15       -2.972341
   16       -2.968057
   17       -2.361669
   18       -2.355320
   19       -1.137556
   20       -0.960059
   21       -0.954467
   22       -0.953682
   23       -0.946485
   24       -0.280354
   25       -0.276151
   26        1.029991
   27        1.283486
   28        2.505475
   29        2.675899
   30        2.680203
   31        3.270331
   32        3.273508
   33        3.406708
   34        3.409909
   35        3.882517
   36        3.888855
   37        4.352264
   38        4.833628
   39        4.839833
   40        4.842134
   41        4.843875
   42        6.308050
   43        6.441937
   44        6.815837
   45        6.945002
   46        6.949424
   47        7.342354
   48        7.350910
   49        7.954911
   50        7.963439
   51        8.083189
   52        8.091918
   53        8.386585
   54        8.887324
   55        9.103788
   56        9.416851
   57        9.420228
   58       11.149182
   59       11.162066
   60       11.162828
   61       11.173846
   62       11.971571
   63       11.986594
   64       13.870080
   65       13.884360
   66       14.261521
   67       14.270853
   68       14.271461
   69       14.283686
   70       15.045864
   71       15.396203
   72       15.670299
   73       15.677004
   74       15.960854
   75       15.963453
   76       16.663872
   77       18.391178
   78       18.400029
   79       18.740491
   80       18.783797
   81       19.254117
   82       20.194491
   83       20.205764
   84       20.524793
 
  0.2222222E+00  0.1111111E+00  0.0000000E+00  0.6172840E-02
    1      -10.964610
    2       -8.769986
    3       -8.763032
    4       -8.184468
    5       -7.509083
    6       -6.049406
    7       -6.042464
    8       -5.644375
    9       -5.392952
   10       -5.386010
   11       -3.864018
   12       -3.604196
   13       -3.597081
   14       -3.404842
   15       -2.110406
   16       -1.830240
   17       -1.823749
   18       -1.636696
   19       -0.905877
   20       -0.780697
   21       -0.564626
   22       -0.121607
   23       -0.115503
   24        0.438407
   25        0.503336
   26        0.510171
   27        1.334292
   28        2.263108
   29        2.341873
   30        2.357419
   31        2.831262
   32        2.837562
   33        2.950226
   34        3.430088
   35        3.716263
   36        4.125348
   37        4.187121
   38        4.192306
   39        4.478529
   40        5.128534
   41        5.134780
   42        5.211968
   43        5.587949
   44        6.040586
   45        6.404273
   46        6.413193
   47        6.557310
   48        7.195159
   49        7.376245
   50        7.385320
   51        8.264174
   52        8.275440
   53        8.321836
   54        8.812533
   55        8.851655
   56       10.295502
   57       10.445570
   58       10.457634
   59       10.931893
   60       10.963621
   61       10.975910
   62       12.108789
   63       12.123338
   64       13.837073
   65       14.154932
   66       14.169207
   67       14.885941
   68       14.896754
   69       14.975115
   70       14.984974
   71       15.154846
   72       15.390730
   73       15.955930
   74       15.978100
   75       16.934577
   76       17.788000
   77       17.797582
   78       17.807807
   79       18.264088
   80       18.311757
   81       19.743668
   82       20.924701
   83       20.930724
   84       20.948711
 
  0.3333333E+00  0.1111111E+00  0.0000000E+00  0.6172840E-02
    1      -10.495195
    2       -9.100076
    3       -8.308962
    4       -8.302009
    5       -7.732701
    6       -6.942495
    7       -6.935559
    8       -5.788418
    9       -5.610002
   10       -5.603063
   11       -3.734732
   12       -3.727703
   13       -3.032170
   14       -2.929387
   15       -1.951566
   16       -1.284827
   17       -0.992685
   18       -0.986201
   19       -0.650099
   20       -0.531055
   21       -0.250263
   22        0.321914
   23        0.744622
   24        0.750551
   25        1.060631
   26        1.294162
   27        1.486758
   28        1.752245
   29        1.758462
   30        2.040952
   31        2.047672
   32        2.744415
   33        3.004576
   34        3.348388
   35        3.353590
   36        3.661241
   37        3.960863
   38        4.409922
   39        4.498890
   40        4.763954
   41        5.090173
   42        5.098142
   43        5.233437
   44        5.270598
   45        5.555257
   46        5.561549
   47        5.965842
   48        6.722308
   49        6.730429
   50        7.438244
   51        7.548390
   52        8.418911
   53        8.639466
   54        8.651202
   55        9.626216
   56        9.757058
   57        9.768957
   58       10.847045
   59       10.859434
   60       11.257449
   61       12.168760
   62       12.182381
   63       12.594430
   64       12.601158
   65       14.155519
   66       14.388939
   67       14.402665
   68       15.182966
   69       15.410089
   70       15.421534
   71       15.698507
   72       15.707445
   73       16.001703
   74       16.375709
   75       16.676085
   76       17.118508
   77       17.127193
   78       17.572182
   79       18.705166
   80       20.280491
   81       20.849821
   82       21.408281
   83       21.416375
   84       21.589647
 
  0.4444444E+00  0.1111111E+00  0.0000000E+00  0.6172840E-02
    1       -9.874347
    2       -9.870661
    3       -7.807962
    4       -7.702329
    5       -7.694857
    6       -7.694217
    7       -7.687996
    8       -5.846422
    9       -5.682923
   10       -5.675986
   11       -3.788725
   12       -3.781720
   13       -2.543875
   14       -2.539765
   15       -2.157385
   16       -1.338482
   17       -1.028418
   18       -0.426051
   19       -0.420355
   20       -0.378428
   21        0.444223
   22        0.447948
   23        0.891762
   24        0.969068
   25        1.108323
   26        1.113352
   27        1.266199
   28        1.272421
   29        1.987852
   30        1.991409
   31        2.673958
   32        2.822146
   33        2.828100
   34        3.594946
   35        3.595514
   36        3.599278
   37        3.606504
   38        3.657563
   39        4.076572
   40        4.495138
   41        4.564362
   42        4.570645
   43        4.968018
   44        5.442438
   45        6.089922
   46        6.103067
   47        6.103725
   48        6.106019
   49        6.371838
   50        6.377173
   51        7.969359
   52        7.977337
   53        9.138536
   54        9.151392
   55        9.151983
   56        9.162462
   57       10.199489
   58       10.808113
   59       10.820510
   60       11.865173
   61       11.874257
   62       12.184487
   63       12.197537
   64       13.521889
   65       14.179297
   66       14.184484
   67       14.477809
   68       14.490876
   69       15.612575
   70       15.624431
   71       16.101857
   72       16.106233
   73       16.411340
   74       16.417521
   75       16.419596
   76       16.429957
   77       16.920129
   78       16.924200
   79       20.670437
   80       20.917881
   81       21.707700
   82       21.717571
   83       21.723834
   84       21.726685
 
 -0.4444444E+00  0.1111111E+00  0.0000000E+00  0.6172840E-02
    1      -10.495308
    2       -9.099919
    3       -8.309075
    4       -8.302124
    5       -7.732924
    6       -6.942330
    7       -6.935395
    8       -5.788215
    9       -5.610226
   10       -5.603287
   11       -3.734605
   12       -3.727587
   13       -3.032248
   14       -2.927156
   15       -1.951437
   16       -1.285157
   17       -0.989626
   18       -0.983951
   19       -0.653503
   20       -0.532607
   21       -0.250306
   22        0.321770
   23        0.741382
   24        0.748150
   25        1.059870
   26        1.294214
   27        1.490838
   28        1.749616
   29        1.754776
   30        2.040885
   31        2.047834
   32        2.744449
   33        3.007861
   34        3.351236
   35        3.357894
   36        3.660883
   37        3.963582
   38        4.405966
   39        4.498659
   40        4.759849
   41        5.089529
   42        5.096007
   43        5.230205
   44        5.268907
   45        5.554964
   46        5.561613
   47        5.970662
   48        6.725046
   49        6.731133
   50        7.440593
   51        7.548337
   52        8.419246
   53        8.639071
   54        8.650797
   55        9.628213
   56        9.757205
   57        9.769116
   58       10.847182
   59       10.859651
   60       11.256215
   61       12.168287
   62       12.181409
   63       12.594346
   64       12.599981
   65       14.156199
   66       14.390416
   67       14.403372
   68       15.183290
   69       15.409700
   70       15.421471
   71       15.697432
   72       15.706676
   73       16.001168
   74       16.375138
   75       16.675754
   76       17.121005
   77       17.128920
   78       17.573164
   79       18.711144
   80       20.273986
   81       20.857588
   82       21.408398
   83       21.416384
   84       21.590525
 
 -0.3333333E+00  0.1111111E+00  0.0000000E+00  0.6172840E-02
    1      -10.964691
    2       -8.770066
    3       -8.763113
    4       -8.184263
    5       -7.509549
    6       -6.049214
    7       -6.042273
    8       -5.644036
    9       -5.393389
   10       -5.386447
   11       -3.861603
   12       -3.604058
   13       -3.597007
   14       -3.404944
   15       -2.112324
   16       -1.826746
   17       -1.821159
   18       -1.636826
   19       -0.905862
   20       -0.780731
   21       -0.566714
   22       -0.124840
   23       -0.118189
   24        0.438823
   25        0.503139
   26        0.509974
   27        1.332333
   28        2.263171
   29        2.344001
   30        2.361664
   31        2.827819
   32        2.833151
   33        2.950307
   34        3.433802
   35        3.713075
   36        4.121402
   37        4.190895
   38        4.197518
   39        4.478079
   40        5.128391
   41        5.134911
   42        5.210341
   43        5.583334
   44        6.040305
   45        6.402614
   46        6.408380
   47        6.562674
   48        7.195409
   49        7.382267
   50        7.387257
   51        8.263368
   52        8.274653
   53        8.322717
   54        8.814260
   55        8.854001
   56       10.293735
   57       10.445768
   58       10.457863
   59       10.931851
   60       10.963855
   61       10.976582
   62       12.107931
   63       12.121598
   64       13.835686
   65       14.157317
   66       14.170400
   67       14.885329
   68       14.896804
   69       14.974447
   70       14.984468
   71       15.155339
   72       15.391140
   73       15.955519
   74       15.977608
   75       16.940334
   76       17.791786
   77       17.799056
   78       17.808310
   79       18.265310
   80       18.306034
   81       19.747811
   82       20.924073
   83       20.927533
   84       20.944478
 
 -0.2222222E+00  0.1111111E+00  0.0000000E+00  0.6172840E-02
    1      -11.278599
    2       -9.078768
    3       -9.071814
    4       -7.142669
    5       -7.141389
    6       -5.618046
    7       -5.041441
    8       -5.034460
    9       -5.033742
   10       -5.028243
   11       -4.442063
   12       -3.655183
   13       -3.592188
   14       -3.585169
   15       -2.972560
   16       -2.970168
   17       -2.357907
   18       -2.352753
   19       -1.137586
   20       -0.961720
   21       -0.955326
   22       -0.954655
   23       -0.949035
   24       -0.280641
   25       -0.277620
   26        1.032235
   27        1.284644
   28        2.502098
   29        2.676372
   30        2.681287
   31        3.271489
   32        3.272562
   33        3.404798
   34        3.411908
   35        3.878655
   36        3.883864
   37        4.351710
   38        4.835624
   39        4.841931
   40        4.842739
   41        4.849129
   42        6.303080
   43        6.436366
   44        6.820260
   45        6.946151
   46        6.953855
   47        7.339009
   48        7.345269
   49        7.964940
   50        7.967363
   51        8.081061
   52        8.089375
   53        8.389060
   54        8.882487
   55        9.110385
   56        9.416754
   57        9.418422
   58       11.149752
   59       11.162153
   60       11.163218
   61       11.174232
   62       11.970536
   63       11.984598
   64       13.872468
   65       13.885561
   66       14.260394
   67       14.271450
   68       14.271738
   69       14.282580
   70       15.044729
   71       15.396475
   72       15.672953
   73       15.679635
   74       15.961824
   75       15.962515
   76       16.657869
   77       18.397378
   78       18.403695
   79       18.747640
   80       18.783218
   81       19.249521
   82       20.192107
   83       20.194545
   84       20.529457
 
 -0.1111111E+00  0.1111111E+00  0.0000000E+00  0.6172840E-02
    1      -11.435872
    2       -9.233506
    3       -9.226552
    4       -6.645306
    5       -6.063794
    6       -6.061954
    7       -4.560193
    8       -4.553185
    9       -4.286795
   10       -4.284808
   11       -4.010747
   12       -4.003755
   13       -4.002314
   14       -3.997479
   15       -3.780756
   16       -3.721745
   17       -2.218318
   18       -2.215861
   19       -2.212081
   20       -2.209110
   21       -1.681997
   22       -1.675426
   23       -1.316424
   24        0.129156
   25        0.636733
   26        0.639273
   27        1.648615
   28        1.651397
   29        2.182904
   30        3.178502
   31        3.181078
   32        3.524456
   33        3.669557
   34        4.063041
   35        4.064640
   36        4.685087
   37        4.690954
   38        4.693267
   39        4.694940
   40        5.049355
   41        5.055714
   42        6.816620
   43        6.820774
   44        7.053059
   45        7.145481
   46        7.350685
   47        7.626233
   48        7.637046
   49        8.217860
   50        8.227022
   51        8.312887
   52        8.320603
   53        8.363457
   54        8.365139
   55        8.739750
   56        9.111349
   57        9.255361
   58       11.425820
   59       11.439167
   60       11.720991
   61       11.734501
   62       11.736915
   63       11.747736
   64       13.695540
   65       13.706433
   66       13.709170
   67       13.721293
   68       13.817960
   69       13.829591
   70       15.169712
   71       15.380798
   72       15.528253
   73       15.534567
   74       15.950315
   75       15.952683
   76       16.286757
   77       18.843902
   78       18.876721
   79       18.885361
   80       19.225839
   81       19.327114
   82       19.712440
   83       19.723730
   84       20.178136
 
 -0.3388132E-20  0.2222222E+00  0.0000000E+00  0.6172840E-02
    1      -11.200018
    2       -9.001469
    3       -8.994515
    4       -7.733195
    5       -6.429853
    6       -6.425497
    7       -5.610635
    8       -5.603691
    9       -4.353816
   10       -4.347321
   11       -4.345975
   12       -4.339844
   13       -3.592602
   14       -3.518511
   15       -3.513140
   16       -2.295829
   17       -1.494659
   18       -1.488756
   19       -1.486957
   20       -1.480965
   21       -1.047944
   22       -0.715992
   23       -0.282664
   24       -0.276474
   25        0.247505
   26        0.252492
   27        1.918548
   28        1.925467
   29        2.711969
   30        2.814365
   31        2.815672
   32        3.325241
   33        3.753274
   34        3.889554
   35        3.893835
   36        3.952931
   37        3.958747
   38        3.960847
   39        3.966970
   40        5.264506
   41        5.269383
   42        6.009794
   43        6.364927
   44        6.372624
   45        6.734021
   46        7.072041
   47        7.077543
   48        7.238762
   49        7.869886
   50        7.874249
   51        8.089992
   52        8.100639
   53        8.642949
   54        8.973897
   55        8.978807
   56        9.116022
   57       10.091459
   58       10.745875
   59       10.757994
   60       11.623672
   61       11.636523
   62       11.639071
   63       11.651485
   64       14.205074
   65       14.217684
   66       14.220877
   67       14.233056
   68       14.481010
   69       14.490909
   70       15.073567
   71       15.076054
   72       15.379493
   73       15.397414
   74       16.269342
   75       16.725991
   76       16.733679
   77       18.139267
   78       18.145821
   79       18.280416
   80       18.527576
   81       19.947528
   82       20.535815
   83       20.545004
   84       20.642415
 
  0.1111111E+00  0.2222222E+00  0.0000000E+00  0.6172840E-02
    1      -10.964617
    2       -8.769990
    3       -8.763035
    4       -8.184578
    5       -7.508969
    6       -6.049498
    7       -6.042554
    8       -5.644336
    9       -5.392846
   10       -5.385916
   11       -3.864060
   12       -3.604156
   13       -3.597047
   14       -3.404854
   15       -2.110255
   16       -1.830190
   17       -1.823743
   18       -1.635919
   19       -0.908043
   20       -0.780686
   21       -0.563440
   22       -0.120682
   23       -0.114067
   24        0.437551
   25        0.502438
   26        0.508604
   27        1.336818
   28        2.263311
   29        2.340223
   30        2.357713
   31        2.831227
   32        2.837419
   33        2.949956
   34        3.429568
   35        3.715843
   36        4.126094
   37        4.184747
   38        4.190820
   39        4.478447
   40        5.131262
   41        5.136160
   42        5.210190
   43        5.587919
   44        6.042730
   45        6.404085
   46        6.410619
   47        6.554959
   48        7.197820
   49        7.379297