    4    4  200    1
  0.3928767E+01  0.2466437E-09  0.2466437E-09  0.2984288E-09  0.5000000E-15
  1.000000000000000E-004
  CAR 
 graphite                                
     16    455     12
 
  0.0000000E+00  0.0000000E+00  0.0000000E+00  0.3858025E-03
    1      -11.212127
    2        0.192904
    3        3.925549
    4        8.807869
    5        8.828094
    6       12.470303
    7       12.504295
    8       20.281003
    9       20.816081
   10       22.419458
   11       22.479845
   12       23.639194
 
  0.5555556E-01 -0.6938894E-17  0.0000000E+00  0.1543210E-02
    1      -11.133259
    2        0.276838
    3        3.978306
    4        8.279026
    5        8.497371
    6       12.531500
    7       12.724645
    8       20.046680
    9       20.958711
   10       22.159187
   11       22.426410
   12       23.475423
 
  0.1111111E+00 -0.1387779E-16  0.0000000E+00  0.1543210E-02
    1      -10.896930
    2        0.527096
    3        4.134568
    4        6.962633
    5        7.777454
    6       12.502186
    7       13.142508
    8       19.378100
    9       20.521280
   10       22.433327
   11       22.602697
   12       22.996156
 
  0.1666667E+00 -0.1387779E-16  0.0000000E+00  0.1543210E-02
    1      -10.503931
    2        0.938725
    3        4.375571
    4        5.312472
    5        6.949759
    6       12.239458
    7       13.410573
    8       18.344934
    9       19.465969
   10       22.288824
   11       23.243429
   12       23.577098
 
  0.2222222E+00  0.0000000E+00  0.0000000E+00  0.1543210E-02
    1       -9.955999
    2        1.501746
    3        3.453011
    4        4.802270
    5        6.159036
    6       11.773297
    7       13.429575
    8       17.027875
    9       18.389852
   10       21.516734
   11       24.431204
   12       25.014680
 
  0.2777778E+00  0.5551115E-16  0.0000000E+00  0.1543210E-02
    1       -9.255586
    2        1.659719
    3        2.198043
    4        5.251318
    5        5.469852
    6       11.163377
    7       13.273555
    8       15.537744
    9       17.437859
   10       20.816232
   11       26.058203
   12       26.616045
 
  0.3333333E+00 -0.2775558E-16  0.0000000E+00  0.1543210E-02
    1       -8.408456
    2       -0.087652
    3        2.991065
    4        4.912839
    5        5.802339
    6       10.455404
    7       13.051697
    8       14.014756
    9       16.670569
   10       20.251943
   11       27.958536
   12       28.323479
 
  0.3888889E+00  0.0000000E+00  0.0000000E+00  0.1543210E-02
    1       -7.427059
    2       -1.732560
    3        3.807315
    4        4.506476
    5        6.428900
    6        9.691893
    7       12.619770
    8       12.846481
    9       16.116845
   10       19.844474
   11       29.923740
   12       29.998084
 
  0.4444444E+00  0.0000000E+00  0.0000000E+00  0.1543210E-02
    1       -6.358085
    2       -3.205089
    3        4.258919
    4        4.492044
    5        7.093289
    6        8.934136
    7       11.567096
    8       12.706936
    9       15.785384
   10       19.599195
   11       30.720371
   12       31.682408
 
  0.5000000E+00  0.5551115E-16  0.0000000E+00  0.7716049E-03
    1       -5.620874
    2       -4.078004
    3        4.176048
    4        4.778344
    5        7.534174
    6        8.459913
    7       11.154558
    8       12.657935
    9       15.675214
   10       19.517293
   11       30.844862
   12       32.180410
 
  0.5555556E-01  0.5555556E-01  0.0000000E+00  0.7716049E-03
    1      -10.975558
    2        0.444022
    3        4.083062
    4        7.444624
    5        7.889982
    6       12.628052
    7       12.957428
    8       19.600541
    9       20.996084
   10       21.583710
   11       22.924535
   12       23.145677
 
  0.1111111E+00  0.5555556E-01  0.0000000E+00  0.1543210E-02
    1      -10.660802
    2        0.775138
    3        4.287271
    4        6.065590
    5        7.020764
    6       12.562998
    7       13.205647
    8       18.771944
    9       20.293567
   10       21.643919
   11       22.509819
   12       24.025314
 
  0.1666667E+00  0.5555556E-01  0.0000000E+00  0.1543210E-02
    1      -10.190245
    2        1.262904
    3        4.287672
    4        4.689545
    5        6.179548
    6       12.201263
    7       13.319350
    8       17.633499
    9       19.226998
   10       21.698598
   11       22.496410
   12       25.468886
 
  0.2222222E+00  0.5555556E-01  0.0000000E+00  0.1543210E-02
    1       -9.565834
    2        1.893776
    3        2.573799
    4        4.993439
    5        5.472785
    6       11.640951
    7       13.233468
    8       16.264062
    9       18.235935
   10       20.891766
   11       23.837571
   12       27.110142
 
  0.2777778E+00  0.5555556E-01  0.0000000E+00  0.1543210E-02
    1       -8.791435
    2        0.810136
    3        2.641728
    4        4.746938
    5        5.600401
    6       10.951094
    7       13.032682
    8       14.778631
    9       17.404640
   10       20.206538
   11       25.530519
   12       28.857074
 
  0.3333333E+00  0.5555556E-01  0.0000000E+00  0.1543210E-02
    1       -7.875654
    2       -0.882368
    3        3.455334
    4        4.282798
    5        6.179470
    6       10.181812
    7       12.812427
    8       13.325105
    9       16.770697
   10       19.685945
   11       27.432384
   12       30.397294
 
  0.3888889E+00  0.5555556E-01  0.0000000E+00  0.1543210E-02
    1       -6.840292
    2       -2.448340
    3        3.960282
    4        4.227254
    5        6.838448
    6        9.383101
    7       12.087412
    8       12.636850
    9       16.348176
   10       19.338906
   11       29.384269
   12       30.944895
 
  0.4444444E+00  0.5555556E-01  0.0000000E+00  0.1543210E-02
    1       -5.812817
    2       -3.744194
    3        3.796739
    4        4.744731
    5        7.489427
    6        8.657323
    7       11.326175
    8       12.541343
    9       16.138297
   10       19.165566
   11       30.811460
   12       31.456362
 
  0.5000000E+00  0.5555556E-01  0.0000000E+00  0.1543210E-02
    1       -5.813842
    2       -3.743041
    3        3.796023
    4        4.744516
    5        7.491455
    6        8.655434
    7       11.326190
    8       12.541327
    9       16.139093
   10       19.165170
   11       30.842811
   12       31.448716
 
 -0.4444444E+00  0.5555556E-01  0.0000000E+00  0.1543210E-02
    1       -6.841611
    2       -2.446657
    3        3.958027
    4        4.226727
    5        6.841510
    6        9.380679
    7       12.087285
    8       12.636725
    9       16.350537
   10       19.337787
   11       29.440967
   12       30.921159
 
 -0.3888889E+00  0.5555556E-01  0.0000000E+00  0.1543210E-02
    1       -7.876868
    2       -0.880619
    3        3.454677
    4        4.278536
    5        6.183566
    6       10.179738
    7       12.811945
    8       13.324493
    9       16.774527
   10       19.684320
   11       27.485109
   12       30.349371
 
 -0.3333333E+00  0.5555556E-01  0.0000000E+00  0.1543210E-02
    1       -8.792485
    2        0.811757
    3        2.641062
    4        4.738129
    5        5.608213
    6       10.950029
    7       13.031414
    8       14.777146
    9       17.409737
   10       20.204784
   11       25.580260
   12       28.800146
 
 -0.2777778E+00  0.5555556E-01  0.0000000E+00  0.1543210E-02
    1       -9.566705
    2        1.893170
    3        2.575012
    4        4.980929
    5        5.483785
    6       11.641918
    7       13.230750
    8       16.261358
    9       18.242008
   10       20.890375
   11       23.884411
   12       27.056106
 
 -0.2222222E+00  0.5555556E-01  0.0000000E+00  0.1543210E-02
    1      -10.190928
    2        1.262400
    3        4.288879
    4        4.684535
    5        6.182238
    6       12.206097
    7       13.313811
    8       17.629525
    9       19.234021
   10       21.697981
   11       22.540088
   12       25.416241
 
 -0.1666667E+00  0.5555556E-01  0.0000000E+00  0.1543210E-02
    1      -10.661292
    2        0.774763
    3        4.286266
    4        6.060650
    5        7.025011
    6       12.576380
    7       13.192857
    8       18.767336
    9       20.305524
   10       21.678752
   11       22.510017
   12       23.975311
 
 -0.1111111E+00  0.5555556E-01  0.0000000E+00  0.1543210E-02
    1      -10.975861
    2        0.443792
    3        4.082494
    4        7.431101
    5        7.902017
    6       12.658003
    7       12.928787
    8       19.596676
    9       21.062960
   10       21.544678
   11       22.893488
   12       23.146294
 
 -0.5555556E-01  0.5555556E-01  0.0000000E+00  0.7716049E-03
    1      -11.133358
    2        0.276760
    3        3.978142
    4        8.264696
    5        8.511084
    6       12.557094
    7       12.699769
    8       20.045140
    9       20.989996
   10       22.084958
   11       22.468340
   12       23.475767
 
  0.1111111E+00  0.1111111E+00  0.0000000E+00  0.7716049E-03
    1      -10.268419
    2        1.182614
    3        4.522388
    4        4.922105
    5        5.916178
    6       12.616368
    7       13.061765
    8       17.877187
    9       20.620042
   10       20.659303
   11       21.697989
   12       25.746115
 
  0.1666667E+00  0.1111111E+00  0.0000000E+00  0.1543210E-02
    1       -9.721357
    2        1.739385
    3        3.427234
    4        4.632866
    5        5.201663
    6       12.247970
    7       12.938985
    8       16.756628
    9       19.670634
   10       20.731108
   11       21.596857
   12       27.557567
 
  0.2222222E+00  0.1111111E+00  0.0000000E+00  0.1543210E-02
    1       -9.022604
    2        1.751613
    3        2.425591
    4        4.066112
    5        5.487929
    6       11.596289
    7       12.766757
    8       15.460693
    9       18.832427
   10       19.822171
   11       23.050215
   12       29.339247
 
  0.2777778E+00  0.1111111E+00  0.0000000E+00  0.1543210E-02
    1       -8.178232
    2        0.064781
    3        3.204605
    4        3.516345
    5        6.026907
    6       10.816967
    7       12.547225
    8       14.086674
    9       18.165503
   10       19.095254
   11       24.844828
   12       30.675096
 
  0.3333333E+00  0.1111111E+00  0.0000000E+00  0.1543210E-02
    1       -7.200978
    2       -1.545560
    3        3.113521
    4        4.001227
    5        6.665061
    6        9.980480
    7       12.346377
    8       12.793574
    9       17.687414
   10       18.582690
   11       26.840272
   12       31.215811
 
  0.3888889E+00  0.1111111E+00  0.0000000E+00  0.1543210E-02
    1       -6.140005
    2       -2.995890
    3        2.869170
    4        4.663041
    5        7.365462
    6        9.148480
    7       11.805943
    8       12.210132
    9       17.401965
   10       18.280425
   11       28.883112
   12       31.358548
 
  0.4444444E+00  0.1111111E+00  0.0000000E+00  0.1543210E-02
    1       -5.415927
    2       -3.851267
    3        2.786946
    4        4.936984
    5        7.893457
    6        8.574288
    7       11.418492
    8       12.162197
    9       17.308020
   10       18.180455
   11       30.492002
   12       30.856340
 
  0.5000000E+00  0.1111111E+00  0.0000000E+00  0.1543210E-02
    1       -6.142557
    2       -2.992887
    3        2.867335
    4        4.662315
    5        7.368600
    6        9.145669
    7       11.805494
    8       12.209818
    9       17.404663
   10       18.279891
   11       28.937173
   12       31.328163
 
 -0.4444444E+00  0.1111111E+00  0.0000000E+00  0.1543210E-02
    1       -7.203517
    2       -1.542237
    3        3.109810
    4        4.000084
    5        6.668763
    6        9.977927
    7       12.345517
    8       12.792071
    9       17.692695
   10       18.581962
   11       26.892263
   12       31.194221
 
 -0.3888889E+00  0.1111111E+00  0.0000000E+00  0.1543210E-02
    1       -8.180491
    2        0.067858
    3        3.203327
    4        3.510578
    5        6.031584
    6       10.815616
    7       12.545202
    8       14.083270
    9       18.173065
   10       19.095002
   11       24.894241
   12       30.640092
 
 -0.3333333E+00  0.1111111E+00  0.0000000E+00  0.1543210E-02
    1       -9.024519
    2        1.753648
    3        2.424358
    4        4.057343
    5        5.495318
    6       11.598189
    7       12.762007
    8       15.454581
    9       18.841609
   10       19.823242
   11       23.096985
   12       29.283943
 
 -0.2777778E+00  0.1111111E+00  0.0000000E+00  0.1543210E-02
    1       -9.722905
    2        1.738305
    3        3.426342
    4        4.616158
    5        5.218673
    6       12.258952
    7       12.926477
    8       16.747638
    9       19.679787
   10       20.734003
   11       21.641631
   12       27.502874
 
 -0.2222222E+00  0.1111111E+00  0.0000000E+00  0.1543210E-02
    1      -10.269588
    2        1.181757
    3        4.517727
    4        4.912298
    5        5.928984
    6       12.647591
    7       13.031150
    8       17.866443
    9       20.594821
   10       20.735218
   11       21.702357
   12       25.693988
 
 -0.1666667E+00  0.1111111E+00  0.0000000E+00  0.1543210E-02
    1      -10.661584
    2        0.774546
    3        4.285095
    4        6.051894
    5        7.034394
    6       12.591117
    7       13.179984
    8       18.761808
    9       20.329289
   10       21.653454
   11       22.514575
   12       23.979184
 
 -0.1111111E+00  0.1111111E+00  0.0000000E+00  0.7716049E-03
    1      -10.897321
    2        0.526795
    3        4.133692
    4        6.948930
    5        7.790365
    6       12.524586
    7       13.122341
    8       19.371687
    9       20.560390
   10       22.358943
   11       22.638632
   12       22.999520
 
  0.1666667E+00  0.1666667E+00  0.0000000E+00  0.7716049E-03
    1       -9.099840
    2        2.352576
    3        2.375353
    4        3.503195
    5        5.443555
    6       12.087087
    7       12.418429
    8       15.763020
    9       19.592487
   10       20.666919
   11       20.874905
   12       29.507901
 
  0.2222222E+00  0.1666667E+00  0.0000000E+00  0.1543210E-02
    1       -8.330412
    2        0.982629
    3        2.623399
    4        3.074594
    5        5.943538
    6       11.461074
    7       12.104482
    8       14.663921
    9       18.537735
   10       20.084770
   11       22.361620
   12       30.918845
 
  0.2777778E+00  0.1666667E+00  0.0000000E+00  0.1543210E-02
    1       -7.421820
    2       -0.564160
    3        2.066632
    4        3.851574
    5        6.547519
    6       10.635965
    7       11.881647
    8       13.516618
    9       17.728547
   10       19.569981
   11       24.267796
   12       31.571202
 
  0.3333333E+00  0.1666667E+00  0.0000000E+00  0.1543210E-02
    1       -6.398781
    2       -2.058834
    3        1.717704
    4        4.575603
    5        7.234964
    6        9.771910
    7       11.711471
    8       12.485505
    9       17.205920
   10       19.225671
   11       26.361693
   12       31.583090
 
  0.3888889E+00  0.1666667E+00  0.0000000E+00  0.1543210E-02
    1       -5.396278
    2       -3.306927
    3        1.546449
    4        5.049641
    5        7.958375
    6        8.951834
    7       11.619377
    8       11.837285
    9       16.953402
   10       19.054363
   11       28.468706
   12       30.598197
 
  0.4444444E+00  0.1666667E+00  0.0000000E+00  0.1543210E-02
    1       -5.399188
    2       -3.303757
    3        1.545632
    4        5.049150
    5        7.960424
    6        8.950015
    7       11.619070
    8       11.836350
    9       16.954031
   10       19.056016
   11       28.518321
   12       30.549794
 
  0.5000000E+00  0.1666667E+00  0.0000000E+00  0.1543210E-02
    1       -6.402637
    2       -2.054356
    3        1.715322
    4        4.574338
    5        7.237194
    6        9.770223
    7       11.710385
    8       12.482156
    9       17.208159
   10       19.230540
   11       26.412641
   12       31.546037
 
 -0.4444444E+00  0.1666667E+00  0.0000000E+00  0.1543210E-02
    1       -7.425396
    2       -0.560241
    3        2.063270
    4        3.849919
    5        6.550605
    6       10.635605
    7       11.879076
    8       13.509638
    9       17.733314
   10       19.577698
   11       24.316608
   12       31.546156
 
 -0.3888889E+00  0.1666667E+00  0.0000000E+00  0.1543210E-02
    1       -8.333557
    2        0.983719
    3        2.620737
    4        3.072775
    5        5.947473
    6       11.465825
    7       12.097077
    8       14.652256
    9       18.545825
   10       20.093919
   11       22.408748
   12       30.888287
 
 -0.3333333E+00  0.1666667E+00  0.0000000E+00  0.1543210E-02
    1       -9.102424
    2        2.350975
    3        2.368381
    4        3.505286
    5        5.449571
    6       12.110531
    7       12.393557
    8       15.747265
    9       19.603748
   10       20.658983
   11       20.937702
   12       29.460470
 
 -0.2777778E+00  0.1666667E+00  0.0000000E+00  0.1543210E-02
    1       -9.723385
    2        1.738007
    3        3.412350
    4        4.631183
    5        5.218005
    6       12.267476
    7       12.920499
    8       16.738558
    9       19.700071
   10       20.744120
   11       21.619372
   12       27.508455
 
 -0.2222222E+00  0.1666667E+00  0.0000000E+00  0.1543210E-02
    1      -10.191702
    2        1.261865
    3        4.264840
    4        4.696830
    5        6.193847
    6       12.220429
    7       13.304006
    8       17.615739
    9       19.253067
   10       21.711825
   11       22.519196
   12       25.423496
 
 -0.1666667E+00  0.1666667E+00  0.0000000E+00  0.7716049E-03
    1      -10.504807
    2        0.938081
    3        4.370221
    4        5.303337
    5        6.962826
    6       12.258562
    7       13.395893
    8       18.330997
    9       19.489504
   10       22.299816
   11       23.275648
   12       23.525620
 
  0.2222222E+00  0.2222222E+00  0.0000000E+00  0.7716049E-03
    1       -7.495914
    2        0.114311
    3        1.351557
    4        3.799334
    5        6.505848
    6       11.207434
    7       11.373382
    8       13.874862
    9       17.310650
   10       21.759670
   11       21.856028
   12       31.737995
 
  0.2777778E+00  0.2222222E+00  0.0000000E+00  0.1543210E-02
    1       -6.535264
    2       -1.096951
    3        0.622167
    4        4.521526
    5        7.156976
    6       10.438577
    7       11.104876
    8       13.102943
    9       16.359112
   10       21.412261
   11       23.827347
   12       31.676555
 
  0.3333333E+00  0.2222222E+00  0.0000000E+00  0.1543210E-02
    1       -5.505976
    2       -2.397618
    3        0.288539
    4        5.098392
    5        7.880438
    6        9.584574
    7       10.972834
    8       12.465717
    9       15.790873
   10       21.174442
   11       26.014958
   12       30.431456
 
  0.3888889E+00  0.2222222E+00  0.0000000E+00  0.1543210E-02
    1       -4.831966
    2       -3.174647
    3        0.187373
    4        5.328772
    5        8.501566
    6        8.917103
    7       10.926776
    8       12.203996
    9       15.608441
   10       21.096357
   11       27.925963
   12       28.728596
 
  0.4444444E+00  0.2222222E+00  0.0000000E+00  0.1543210E-02
    1       -5.510748
    2       -2.392935
    3        0.287859
    4        5.097482
    5        7.882031
    6        9.583831
    7       10.971946
    8       12.459154
    9       15.797246
   10       21.178080
   11       26.064034
   12       30.381351
 
  0.5000000E+00  0.2222222E+00  0.0000000E+00  0.1543210E-02
    1       -6.540156
    2       -1.094051
    3        0.622181
    4        4.519933
    5        7.158977
    6       10.439436
    7       11.102086
    8       13.089453
    9       16.372035
   10       21.419131
   11       23.874835
   12       31.637037
 
 -0.4444444E+00  0.2222222E+00  0.0000000E+00  0.1543210E-02
    1       -7.500302
    2        0.110356
    3        1.358053
    4        3.797408
    5        6.508446
    6       11.223418
    7       11.355680
    8       13.855500
    9       17.328908
   10       21.761471
   11       21.909079
   12       31.714906
 
 -0.3888889E+00  0.2222222E+00  0.0000000E+00  0.1543210E-02
    1       -8.334170
    2        0.972207
    3        2.633544
    4        3.072610
    5        5.947086
    6       11.468025
    7       12.096643
    8       14.640992
    9       18.558962
   10       20.122296
   11       22.378252
   12       30.896894
 
 -0.3333333E+00  0.2222222E+00  0.0000000E+00  0.1543210E-02
    1       -9.025649
    2        1.738323
    3        2.423780
    4        4.075519
    5        5.493828
    6       11.604769
    7       12.759735
    8       15.436251
    9       18.864972
   10       19.844663
   11       23.069512
   12       29.296049
 
 -0.2777778E+00  0.2222222E+00  0.0000000E+00  0.1543210E-02
    1       -9.568138
    2        1.892299
    3        2.558068
    4        4.992382
    5        5.490302
    6       11.653322
    7       13.225954
    8       16.239838
    9       18.262094
   10       20.914467
   11       23.860228
   12       27.067843
 
 -0.2222222E+00  0.2222222E+00  0.0000000E+00  0.7716049E-03
    1       -9.957542
    2        1.500708
    3        3.434362
    4        4.807028
    5        6.172813
    6       11.788457
    7       13.421017
    8       17.006446
    9       18.410856
   10       21.537597
   11       24.453750
   12       24.978108
 
  0.2777778E+00  0.2777778E+00  0.0000000E+00  0.7716049E-03
    1       -5.555144
    2       -1.678697
    3       -0.541130
    4        5.110768
    5        7.845663
    6       10.269054
    7       10.286934
    8       12.867992
    9       15.204710
   10       23.432953
   11       23.633494
   12       30.373442
 
  0.3333333E+00  0.2777778E+00  0.0000000E+00  0.1543210E-02
    1       -4.646213
    2       -2.481698
    3       -1.039068
    4        5.470748
    5        8.588752
    6        9.455400
    7       10.192316
    8       12.794307
    9       14.502853
   10       23.373113
   11       25.812270
   12       28.280495
 
  0.3888889E+00  0.2777778E+00  0.0000000E+00  0.1543210E-02
    1       -4.650095
    2       -2.479722
    3       -1.037530
    4        5.470433
    5        8.589846
    6        9.454316
    7       10.192365
    8       12.783132
    9       14.514082
   10       23.375856
   11       25.856790
   12       28.233388
 
  0.4444444E+00  0.2777778E+00  0.0000000E+00  0.1543210E-02
    1       -5.560991
    2       -1.681338
    3       -0.533247
    4        5.109810
    5        7.847137
    6       10.256042
    7       10.298809
    8       12.844327
    9       15.228714
   10       23.473788
   11       23.643323
   12       30.325336
 
  0.5000000E+00  0.2777778E+00  0.0000000E+00  0.1543210E-02
    1       -6.540915
    2       -1.104529
    3        0.633879
    4        4.519970
    5        7.158948
    6       10.437425
    7       11.104939
    8       13.075747
    9       16.386934
   10       21.456171
   11       23.835348
   12       31.641003
 
 -0.4444444E+00  0.2777778E+00  0.0000000E+00  0.1543210E-02
    1       -7.426820
    2       -0.573814
    3        2.079332
    4        3.849679
    5        6.550250
    6       10.635941
    7       11.881255
    8       13.488524
    9       17.757558
   10       19.609653
   11       24.280241
   12       31.559601
 
 -0.3888889E+00  0.2777778E+00  0.0000000E+00  0.1543210E-02
    1       -8.182419
    2        0.053172
    3        3.202656
    4        3.528805
    5        6.030772
    6       10.819395
    7       12.546293
    8       14.058311
    9       18.200139
   10       19.124952
   11       24.860981
   12       30.660031
 
 -0.3333333E+00  0.2777778E+00  0.0000000E+00  0.1543210E-02
    1       -8.794734
    2        0.796569
    3        2.639973
    4        4.757651
    5        5.606575
    6       10.957767
    7       13.030858
    8       14.750502
    9       17.433038
   10       20.236742
   11       25.550274
   12       28.816002
 
 -0.2777778E+00  0.2777778E+00  0.0000000E+00  0.7716049E-03
    1       -9.257962
    2        1.644255
    3        2.196669
    4        5.254349
    5        5.484187
    6       11.174032
    7       13.270417
    8       15.511168
    9       17.460623
   10       20.845620
   11       26.071551
   12       26.587942
 
  0.3333333E+00  0.3333333E+00  0.0000000E+00  0.7716049E-03
    1       -4.228396
    2       -2.069105
    3       -2.056751
    4        5.606014
    5        9.278202
    6        9.292364
    7        9.593452
    8       13.461260
    9       13.498756
   10       25.270261
   11       26.045536
   12       26.053864
 
  0.3888889E+00  0.3333333E+00  0.0000000E+00  0.1543210E-02
    1       -4.651044
    2       -2.489531
    3       -1.026340
    4        5.470618
    5        8.591842
    6        9.449177
    7       10.196269
    8       12.762173
    9       14.535447
   10       23.420401
   11       25.807626
   12       28.237996
 
  0.4444444E+00  0.3333333E+00  0.0000000E+00  0.1543210E-02
    1       -5.512300
    2       -2.405053
    3        0.302173
    4        5.097845
    5        7.882951
    6        9.580299
    7       10.975756
    8       12.434183
    9       15.823685
   10       21.217780
   11       26.018262
   12       30.387215
 
  0.5000000E+00  0.3333333E+00  0.0000000E+00  0.1543210E-02
    1       -6.404885
    2       -2.067372
    3        1.731868
    4        4.574502
    5        7.237891
    6        9.768631
    7       11.714171
    8       12.454597
    9       17.239241
   10       19.265534
   11       26.370154
   12       31.558216
 
 -0.4444444E+00  0.3333333E+00  0.0000000E+00  0.1543210E-02
    1       -7.206331
    2       -1.555693
    3        3.127753
    4        3.999722
    5        6.668763
    6        9.978902
    7       12.348886
    8       12.763094
    9       17.723247
   10       18.616884
   11       26.852886
   12       31.214917
 
 -0.3888889E+00  0.3333333E+00  0.0000000E+00  0.1543210E-02
    1       -7.880049
    2       -0.894267
    3        3.453712
    4        4.296720
    5        6.183824
    6       10.183639
    7       12.814429
    8       13.294957
    9       16.801494
   10       19.721152
   11       27.448629
   12       30.373843
 
 -0.3333333E+00  0.3333333E+00  0.0000000E+00  0.7716049E-03
    1       -8.411802
    2       -0.101317
    3        2.989603
    4        4.928451
    5        5.804804
    6       10.461362
    7       13.052633
    8       13.985400
    9       16.696463
   10       20.287215
   11       27.963392
   12       28.299709
 
  0.3888889E+00  0.3888889E+00  0.0000000E+00  0.7716049E-03
    1       -4.835588
    2       -3.184923
    3        0.201738
    4        5.329129
    5        8.511558
    6        8.904533
    7       10.930637
    8       12.173015
    9       15.640736
   10       21.138186
   11       27.886305
   12       28.726112
 
  0.4444444E+00  0.3888889E+00  0.0000000E+00  0.1543210E-02
    1       -5.402230
    2       -3.315726
    3        1.561725
    4        5.049794
    5        7.964522
    6        8.944054
    7       11.623473
    8       11.805153
    9       16.988293
   10       19.093400
   11       28.467880
   12       30.561833
 
  0.5000000E+00  0.3888889E+00  0.0000000E+00  0.1543210E-02
    1       -6.146178
    2       -3.005555
    3        2.884736
    4        4.662701
    5        7.370854
    6        9.143058
    7       11.773941
    8       12.214461
    9       17.437979
   10       18.317099
   11       28.890806
   12       31.347530
 
 -0.4444444E+00  0.3888889E+00  0.0000000E+00  0.1543210E-02
    1       -6.845727
    2       -2.458887
    3        3.975701
    4        4.226451
    5        6.843768
    6        9.380475
    7       12.055829
    8       12.641150
    9       16.380607
   10       19.377164
   11       29.397457
   12       30.945981
 
 -0.3888889E+00  0.3888889E+00  0.0000000E+00  0.7716049E-03
    1       -7.431434
    2       -1.744668
    3        3.806288
    4        4.522664
    5        6.432363
    6        9.693198
    7       12.588785
    8       12.850144
    9       16.145736
   10       19.883335
   11       29.931644
   12       29.969405
 
  0.4444444E+00  0.4444444E+00  0.0000000E+00  0.7716049E-03
    1       -5.420559
    2       -3.862132
    3        2.803557
    4        4.937711
    5        7.904961
    6        8.562072
    7       11.385775
    8       12.167270
    9       17.343185
   10       18.218139
   11       30.456673
   12       30.857912
 
  0.5000000E+00  0.4444444E+00  0.0000000E+00  0.1543210E-02
    1       -5.818495
    2       -3.754441
    3        3.813117
    4        4.745178
    5        7.499567
    6        8.648185
    7       11.293236
    8       12.546703
    9       16.171137
   10       19.205436
   11       30.832168
   12       31.432778
 
 -0.4444444E+00  0.4444444E+00  0.0000000E+00  0.7716049E-03
    1       -6.363286
    2       -3.216062
    3        4.275482
    4        4.492083
    5        7.099934
    6        8.929952
    7       11.534649
    8       12.712150
    9       15.816309
   10       19.639953
   11       30.732858
   12       31.661022
 
  0.5000000E+00  0.5000000E+00  0.0000000E+00  0.3858025E-03
    1       -5.625846
    2       -4.089104
    3        4.192737
    4        4.779137
    5        7.548075
    6        8.447694
    7       11.121275
    8       12.663653
    9       15.706846
   10       19.558642
   11       30.860173
   12       32.425058
 