   4   4   0   0
  0.8992511E+01  0.2466437E-09  0.2466437E-09  0.6830703E-09  0.5000000E-15
  1.000000000000000E-004
  CAR 
 graphite                                
     18.31812370    -17.09231473  301      4.52112486      1.00000000
    -17.092  0.0000E+00  0.0000E+00
    -16.974  0.0000E+00  0.0000E+00
    -16.856  0.0000E+00  0.0000E+00
    -16.738  0.0000E+00  0.0000E+00
    -16.620  0.0000E+00  0.0000E+00
    -16.502  0.0000E+00  0.0000E+00
    -16.384  0.0000E+00  0.0000E+00
    -16.266  0.0000E+00  0.0000E+00
    -16.148  0.0000E+00  0.0000E+00
    -16.030  0.0000E+00  0.0000E+00
    -15.912  0.0000E+00  0.0000E+00
    -15.794  0.0000E+00  0.0000E+00
    -15.676  0.0000E+00  0.0000E+00
    -15.558  0.0000E+00  0.0000E+00
    -15.440  0.0000E+00  0.0000E+00
    -15.322  0.0000E+00  0.0000E+00
    -15.204  0.0000E+00  0.0000E+00
    -15.086  0.1994E-04  0.4381E-07
    -14.968  0.1328E-02  0.9349E-04
    -14.850  0.2409E-02  0.3095E-03
    -14.732  0.2985E-02  0.6551E-03
    -14.614  0.3129E-02  0.1019E-02
    -14.496  0.3075E-02  0.1382E-02
    -14.378  0.3094E-02  0.1747E-02
    -14.259  0.3078E-02  0.2110E-02
    -14.141  0.3113E-02  0.2476E-02
    -14.023  0.3112E-02  0.2843E-02
    -13.905  0.3065E-02  0.3208E-02
    -13.787  0.3107E-02  0.3572E-02
    -13.669  0.3142E-02  0.3942E-02
    -13.551  0.3133E-02  0.4313E-02
    -13.433  0.3100E-02  0.4681E-02
    -13.315  0.3109E-02  0.5047E-02
    -13.197  0.3145E-02  0.5416E-02
    -13.079  0.3173E-02  0.5789E-02
    -12.961  0.3164E-02  0.6163E-02
    -12.843  0.3134E-02  0.6535E-02
    -12.725  0.3141E-02  0.6905E-02
    -12.607  0.3163E-02  0.7277E-02
    -12.489  0.3193E-02  0.7652E-02
    -12.371  0.3210E-02  0.8030E-02
    -12.253  0.3203E-02  0.8409E-02
    -12.135  0.3188E-02  0.8786E-02
    -12.017  0.3196E-02  0.9162E-02
    -11.899  0.3213E-02  0.9541E-02
    -11.781  0.3237E-02  0.9921E-02
    -11.663  0.3266E-02  0.1030E-01
    -11.545  0.3274E-02  0.1069E-01
    -11.427  0.3271E-02  0.1108E-01
    -11.309  0.3275E-02  0.1146E-01
    -11.191  0.3293E-02  0.1185E-01
    -11.073  0.3319E-02  0.1224E-01
    -10.955  0.3348E-02  0.1263E-01
    -10.836  0.3385E-02  0.1303E-01
    -10.718  0.3424E-02  0.1343E-01
    -10.600  0.3454E-02  0.1384E-01
    -10.482  0.3500E-02  0.1425E-01
    -10.364  0.3588E-02  0.1467E-01
    -10.246  0.3735E-02  0.1510E-01
    -10.128  0.3944E-02  0.1555E-01
    -10.010  0.4492E-02  0.1603E-01
     -9.892  0.5339E-02  0.1663E-01
     -9.774  0.4321E-02  0.1724E-01
     -9.656  0.3237E-02  0.1767E-01
     -9.538  0.3686E-02  0.1813E-01
     -9.420  0.2277E-02  0.1850E-01
     -9.302  0.2025E-02  0.1876E-01
     -9.184  0.1773E-02  0.1898E-01
     -9.066  0.1521E-02  0.1918E-01
     -8.948  0.1674E-02  0.1935E-01
     -8.830  0.1672E-02  0.1958E-01
     -8.712  0.8532E-03  0.1972E-01
     -8.594  0.1170E-02  0.1984E-01
     -8.476  0.2286E-02  0.2002E-01
     -8.358  0.3798E-02  0.2044E-01
     -8.240  0.2710E-02  0.2083E-01
     -8.122  0.2839E-02  0.2116E-01
     -8.004  0.4512E-02  0.2159E-01
     -7.886  0.4000E-02  0.2212E-01
     -7.768  0.4682E-02  0.2264E-01
     -7.650  0.5408E-02  0.2323E-01
     -7.531  0.4530E-02  0.2385E-01
     -7.413  0.3825E-02  0.2432E-01
     -7.295  0.3670E-02  0.2476E-01
     -7.177  0.3524E-02  0.2518E-01
     -7.059  0.3380E-02  0.2559E-01
     -6.941  0.3241E-02  0.2598E-01
     -6.823  0.3100E-02  0.2636E-01
     -6.705  0.2990E-02  0.2671E-01
     -6.587  0.2954E-02  0.2707E-01
     -6.469  0.2918E-02  0.2741E-01
     -6.351  0.2883E-02  0.2775E-01
     -6.233  0.2845E-02  0.2809E-01
     -6.115  0.2697E-02  0.2842E-01
     -5.997  0.2570E-02  0.2873E-01
     -5.879  0.2979E-02  0.2906E-01
     -5.761  0.3409E-02  0.2943E-01
     -5.643  0.3838E-02  0.2986E-01
     -5.525  0.3827E-02  0.3033E-01
     -5.407  0.3710E-02  0.3077E-01
     -5.289  0.3653E-02  0.3120E-01
     -5.171  0.3596E-02  0.3163E-01
     -5.053  0.3626E-02  0.3205E-01
     -4.935  0.3727E-02  0.3249E-01
     -4.817  0.3820E-02  0.3293E-01
     -4.699  0.3908E-02  0.3339E-01
     -4.581  0.3945E-02  0.3385E-01
     -4.463  0.3955E-02  0.3432E-01
     -4.345  0.3939E-02  0.3479E-01
     -4.227  0.3936E-02  0.3525E-01
     -4.108  0.4030E-02  0.3572E-01
     -3.990  0.4070E-02  0.3620E-01
     -3.872  0.4163E-02  0.3668E-01
     -3.754  0.4570E-02  0.3720E-01
     -3.636  0.4905E-02  0.3776E-01
     -3.518  0.5159E-02  0.3836E-01
     -3.400  0.5395E-02  0.3898E-01
     -3.282  0.5610E-02  0.3963E-01
     -3.164  0.5795E-02  0.4030E-01
     -3.046  0.5974E-02  0.4100E-01
     -2.928  0.6155E-02  0.4171E-01
     -2.810  0.6651E-02  0.4246E-01
     -2.692  0.7361E-02  0.4329E-01
     -2.574  0.7714E-02  0.4418E-01
     -2.456  0.7713E-02  0.4509E-01
     -2.338  0.7842E-02  0.4600E-01
     -2.220  0.7249E-02  0.4689E-01
     -2.102  0.7981E-02  0.4778E-01
     -1.984  0.1113E-01  0.4893E-01
     -1.866  0.1256E-01  0.5035E-01
     -1.748  0.1020E-01  0.5170E-01
     -1.630  0.9366E-02  0.5286E-01
     -1.512  0.8762E-02  0.5390E-01
     -1.394  0.7501E-02  0.5485E-01
     -1.276  0.7301E-02  0.5572E-01
     -1.158  0.5860E-02  0.5649E-01
     -1.040  0.6786E-02  0.5724E-01
     -0.922  0.7058E-02  0.5807E-01
     -0.804  0.7573E-02  0.5892E-01
     -0.685  0.6335E-02  0.5979E-01
     -0.567  0.6421E-02  0.6054E-01
     -0.449  0.6595E-02  0.6131E-01
     -0.331  0.6789E-02  0.6210E-01
     -0.213  0.6833E-02  0.6290E-01
     -0.095  0.6259E-02  0.6368E-01
      0.023  0.6102E-02  0.6441E-01
      0.141  0.5974E-02  0.6512E-01
      0.259  0.5856E-02  0.6582E-01
      0.377  0.5741E-02  0.6650E-01
      0.495  0.5760E-02  0.6718E-01
      0.613  0.5852E-02  0.6787E-01
      0.731  0.5745E-02  0.6856E-01
      0.849  0.5606E-02  0.6923E-01
      0.967  0.5521E-02  0.6988E-01
      1.085  0.5748E-02  0.7055E-01
      1.203  0.5552E-02  0.7122E-01
      1.321  0.5595E-02  0.7190E-01
      1.439  0.5273E-02  0.7257E-01
      1.557  0.3732E-02  0.7308E-01
      1.675  0.3977E-02  0.7353E-01
      1.793  0.4546E-02  0.7405E-01
      1.911  0.4383E-02  0.7458E-01
      2.029  0.4347E-02  0.7509E-01
      2.147  0.4452E-02  0.7561E-01
      2.265  0.4551E-02  0.7615E-01
      2.383  0.4688E-02  0.7669E-01
      2.501  0.3872E-02  0.7720E-01
      2.619  0.3117E-02  0.7762E-01
      2.738  0.2668E-02  0.7795E-01
      2.856  0.2382E-02  0.7825E-01
      2.974  0.2109E-02  0.7852E-01
      3.092  0.1978E-02  0.7875E-01
      3.210  0.1844E-02  0.7898E-01
      3.328  0.1554E-02  0.7918E-01
      3.446  0.1303E-02  0.7935E-01
      3.564  0.1142E-02  0.7949E-01
      3.682  0.9793E-03  0.7962E-01
      3.800  0.8155E-03  0.7973E-01
      3.918  0.6578E-03  0.7981E-01
      4.036  0.5183E-03  0.7988E-01
      4.154  0.3751E-03  0.7993E-01
      4.272  0.2438E-03  0.7997E-01
      4.390  0.1218E-03  0.7999E-01
      4.508  0.7529E-05  0.8000E-01
      4.626  0.7020E-04  0.8000E-01
      4.744  0.1596E-03  0.8002E-01
      4.862  0.2593E-03  0.8004E-01
      4.980  0.3717E-03  0.8008E-01
      5.098  0.5042E-03  0.8013E-01
      5.216  0.6783E-03  0.8020E-01
      5.334  0.9342E-03  0.8029E-01
      5.452  0.1206E-02  0.8042E-01
      5.570  0.1469E-02  0.8058E-01
      5.688  0.1815E-02  0.8077E-01
      5.806  0.1945E-02  0.8099E-01
      5.924  0.2728E-02  0.8126E-01
      6.043  0.3834E-02  0.8169E-01
      6.161  0.4981E-02  0.8230E-01
      6.279  0.4702E-02  0.8287E-01
      6.397  0.4531E-02  0.8341E-01
      6.515  0.4234E-02  0.8394E-01
      6.633  0.4260E-02  0.8444E-01
      6.751  0.4257E-02  0.8495E-01
      6.869  0.3583E-02  0.8540E-01
      6.987  0.3324E-02  0.8580E-01
      7.105  0.3111E-02  0.8618E-01
      7.223  0.2961E-02  0.8654E-01
      7.341  0.2842E-02  0.8688E-01
      7.459  0.2734E-02  0.8721E-01
      7.577  0.2638E-02  0.8753E-01
      7.695  0.2569E-02  0.8784E-01
      7.813  0.2509E-02  0.8814E-01
      7.931  0.2452E-02  0.8843E-01
      8.049  0.2395E-02  0.8872E-01
      8.167  0.2331E-02  0.8899E-01
      8.285  0.2267E-02  0.8927E-01
      8.403  0.2213E-02  0.8953E-01
      8.521  0.2164E-02  0.8979E-01
      8.639  0.2115E-02  0.9004E-01
      8.757  0.2166E-02  0.9029E-01
      8.875  0.2337E-02  0.9056E-01
      8.993  0.2401E-02  0.9084E-01
      9.111  0.2435E-02  0.9112E-01
      9.229  0.2471E-02  0.9141E-01
      9.347  0.2522E-02  0.9171E-01
      9.466  0.2528E-02  0.9201E-01
      9.584  0.2537E-02  0.9230E-01
      9.702  0.2556E-02  0.9260E-01
      9.820  0.2581E-02  0.9291E-01
      9.938  0.2620E-02  0.9321E-01
     10.056  0.2684E-02  0.9353E-01
     10.174  0.2754E-02  0.9385E-01
     10.292  0.2831E-02  0.9418E-01
     10.410  0.2971E-02  0.9452E-01
     10.528  0.3673E-02  0.9492E-01
     10.646  0.3186E-02  0.9533E-01
     10.764  0.2613E-02  0.9566E-01
     10.882  0.2423E-02  0.9596E-01
     11.000  0.2234E-02  0.9624E-01
     11.118  0.2116E-02  0.9649E-01
     11.236  0.2126E-02  0.9674E-01
     11.354  0.2283E-02  0.9700E-01
     11.472  0.2668E-02  0.9729E-01
     11.590  0.2904E-02  0.9762E-01
     11.708  0.3034E-02  0.9797E-01
     11.826  0.3844E-02  0.9836E-01
     11.944  0.5619E-02  0.9892E-01
     12.062  0.7285E-02  0.9967E-01
     12.180  0.8688E-02  0.1006E+00
     12.298  0.9097E-02  0.1017E+00
     12.416  0.8837E-02  0.1027E+00
     12.534  0.7919E-02  0.1037E+00
     12.652  0.7732E-02  0.1047E+00
     12.770  0.8065E-02  0.1056E+00
     12.889  0.1142E-01  0.1066E+00
     13.007  0.1570E-01  0.1083E+00
     13.125  0.1112E-01  0.1099E+00
     13.243  0.6997E-02  0.1109E+00
     13.361  0.5393E-02  0.1116E+00
     13.479  0.4857E-02  0.1122E+00
     13.597  0.4679E-02  0.1128E+00
     13.715  0.4021E-02  0.1133E+00
     13.833  0.4037E-02  0.1138E+00
     13.951  0.3868E-02  0.1143E+00
     14.069  0.3587E-02  0.1147E+00
     14.187  0.2808E-02  0.1151E+00
     14.305  0.2704E-02  0.1154E+00
     14.423  0.2750E-02  0.1157E+00
     14.541  0.3139E-02  0.1161E+00
     14.659  0.3004E-02  0.1165E+00
     14.777  0.2917E-02  0.1168E+00
     14.895  0.3903E-02  0.1172E+00
     15.013  0.4689E-02  0.1177E+00
     15.131  0.4400E-02  0.1182E+00
     15.249  0.3114E-02  0.1187E+00
     15.367  0.2550E-02  0.1190E+00
     15.485  0.2185E-02  0.1193E+00
     15.603  0.1991E-02  0.1195E+00
     15.721  0.1722E-02  0.1198E+00
     15.839  0.8273E-03  0.1199E+00
     15.957  0.1584E-03  0.1200E+00
     16.075  0.5090E-04  0.1200E+00
     16.193  0.1146E-04  0.1200E+00
     16.312  0.1403E-07  0.1200E+00
     16.430  0.0000E+00  0.1200E+00
     16.548  0.0000E+00  0.1200E+00
     16.666  0.0000E+00  0.1200E+00
     16.784  0.0000E+00  0.1200E+00
     16.902  0.0000E+00  0.1200E+00
     17.020  0.0000E+00  0.1200E+00
     17.138  0.0000E+00  0.1200E+00
     17.256  0.0000E+00  0.1200E+00
     17.374  0.0000E+00  0.1200E+00
     17.492  0.0000E+00  0.1200E+00
     17.610  0.0000E+00  0.1200E+00
     17.728  0.0000E+00  0.1200E+00
     17.846  0.0000E+00  0.1200E+00
     17.964  0.0000E+00  0.1200E+00
     18.082  0.0000E+00  0.1200E+00
     18.200  0.0000E+00  0.1200E+00
     18.318  0.0000E+00  0.1200E+00
