    4    4  200    1
  0.8992511E+01  0.2466437E-09  0.2466437E-09  0.6830703E-09  0.5000000E-15
  1.000000000000000E-004
  CAR 
 graphite                                
     16    455     12
 
  0.0000000E+00  0.0000000E+00  0.0000000E+00  0.3858025E-03
    1      -15.092315
    2      -14.831358
    3       -3.904974
    4       -2.111517
    5        1.513464
    6        1.529031
    7        1.529871
    8        1.544937
    9        8.683054
   10       12.854894
   11       12.864936
   12       12.900891
 
  0.5555556E-01  0.0000000E+00  0.0000000E+00  0.1543210E-02
    1      -15.018750
    2      -14.758909
    3       -3.815643
    4       -2.027657
    5        1.224181
    6        1.245700
    7        1.359131
    8        1.378938
    9        8.772532
   10       12.887828
   11       12.944494
   12       13.204594
 
  0.1111111E+00  0.0000000E+00  0.0000000E+00  0.1543210E-02
    1      -14.798254
    2      -14.541905
    3       -3.548476
    4       -1.777072
    5        0.398598
    6        0.434937
    7        0.939175
    8        0.966542
    9        9.041604
   10       12.904239
   11       13.002341
   12       14.083956
 
  0.1666667E+00  0.0000000E+00  0.0000000E+00  0.1543210E-02
    1      -14.431979
    2      -14.181472
    3       -3.106226
    4       -1.363778
    5       -0.785955
    6       -0.731390
    7        0.376341
    8        0.410110
    9        9.490471
   10       12.805039
   11       12.966344
   12       13.714433
 
  0.2222222E+00  0.0000000E+00  0.0000000E+00  0.1543210E-02
    1      -13.921896
    2      -13.679445
    3       -2.493993
    4       -2.171563
    5       -2.097079
    6       -0.795691
    7       -0.220793
    8       -0.182095
    9       10.116797
   10       12.282618
   11       12.598554
   12       12.822323
 
  0.2777778E+00  0.0000000E+00  0.0000000E+00  0.1543210E-02
    1      -13.271008
    2      -13.038820
    3       -3.642829
    4       -3.548238
    5       -1.721295
    6       -0.776112
    7       -0.734348
    8       -0.087608
    9       10.693749
   10       10.912383
   11       11.346919
   12       12.350467
 
  0.3333333E+00  0.0000000E+00  0.0000000E+00  0.1543210E-02
    1      -12.484546
    2      -12.264861
    3       -5.122701
    4       -5.008165
    5       -1.242287
    6       -1.198440
    7       -0.806369
    8        0.729704
    9        9.073135
   10        9.884219
   11       11.812148
   12       12.139570
 
  0.3888889E+00 -0.2775558E-16  0.0000000E+00  0.1543210E-02
    1      -11.572124
    2      -11.367558
    3       -6.555624
    4       -6.422783
    5       -1.591498
    6       -1.545876
    7        0.211683
    8        1.582350
    9        7.565092
   10        8.471397
   11       11.898819
   12       12.202162
 
  0.4444444E+00  0.0000000E+00  0.0000000E+00  0.1543210E-02
    1      -10.561793
    2      -10.379392
    3       -7.880925
    4       -7.737606
    5       -1.806440
    6       -1.759990
    7        1.224806
    8        2.262392
    9        6.421020
   10        7.258952
   11       11.784261
   12       12.122182
 
  0.5000000E+00  0.5551115E-16  0.0000000E+00  0.7716049E-03
    1       -9.768537
    2       -9.671110
    3       -8.704861
    4       -8.631268
    5       -1.878889
    6       -1.832216
    7        1.807457
    8        2.435238
    9        6.032301
   10        6.665755
   11       11.743857
   12       12.089957
 
  0.5555556E-01  0.5555556E-01  0.0000000E+00  0.7716049E-03
    1      -14.871579
    2      -14.614065
    3       -3.637273
    4       -1.860271
    5        0.695372
    6        0.716532
    7        1.044848
    8        1.062256
    9        8.952129
   10       12.990967
   11       13.065286
   12       13.690483
 
  0.1111111E+00  0.5555556E-01  0.0000000E+00  0.1543210E-02
    1      -14.578152
    2      -14.325245
    3       -3.282393
    4       -1.528194
    5       -0.258699
    6       -0.221715
    7        0.500717
    8        0.527229
    9        9.312035
   10       13.078432
   11       13.199037
   12       14.180780
 
  0.1666667E+00  0.5555556E-01  0.0000000E+00  0.1543210E-02
    1      -14.139826
    2      -13.893933
    3       -2.754835
    4       -1.504481
    5       -1.444978
    6       -1.036884
    7       -0.123700
    8       -0.087283
    9        9.851401
   10       12.913836
   11       12.990749
   12       13.181599
 
  0.2222222E+00  0.5555556E-01  0.0000000E+00  0.1543210E-02
    1      -13.559195
    2      -13.322475
    3       -2.907854
    4       -2.826485
    5       -2.061476
    6       -0.728050
    7       -0.685039
    8       -0.397165
    9       10.566263
   10       11.426264
   11       11.961559
   12       12.783916
 
  0.2777778E+00  0.5555556E-01  0.0000000E+00  0.1543210E-02
    1      -12.840256
    2      -12.614974
    3       -4.368971
    4       -4.266389
    5       -1.255242
    6       -1.215386
    7       -1.208156
    8        0.370135
    9        9.836000
   10       10.537880
   11       11.444058
   12       12.548384
 
  0.3333333E+00  0.5555556E-01  0.0000000E+00  0.1543210E-02
    1      -11.990005
    2      -11.778581
    3       -5.817844
    4       -5.695460
    5       -1.671986
    6       -1.622180
    7       -0.242357
    8        1.219252
    9        8.271314
   10        9.110100
   11       12.257500
   12       12.454581
 
  0.3888889E+00  0.5555556E-01  0.0000000E+00  0.1543210E-02
    1      -11.023648
    2      -10.829189
    3       -7.198826
    4       -7.059949
    5       -1.958814
    6       -1.907412
    7        0.795530
    8        2.028481
    9        6.911966
   10        7.785867
   11       12.156126
   12       12.488460
 
  0.4444444E+00  0.5555556E-01  0.0000000E+00  0.1543210E-02
    1      -10.015055
    2       -9.859840
    3       -8.395883
    4       -8.265980
    5       -2.105015
    6       -2.052738
    7        1.695503
    8        2.477479
    9        6.115755
   10        6.798363
   11       12.077325
   12       12.429926
 
  0.5000000E+00  0.5555556E-01  0.0000000E+00  0.1543210E-02
    1      -10.016512
    2       -9.861161
    3       -8.394349
    4       -8.264283
    5       -2.105306
    6       -2.053133
    7        1.694719
    8        2.477354
    9        6.115727
   10        6.799292
   11       12.077793
   12       12.430400
 
 -0.4444444E+00  0.5555556E-01  0.0000000E+00  0.1543210E-02
    1      -11.025230
    2      -10.830761
    3       -7.196629
    4       -7.057714
    5       -1.959997
    6       -1.908563
    7        0.794289
    8        2.027658
    9        6.912392
   10        7.787400
   11       12.157519
   12       12.489787
 
 -0.3888889E+00  0.5555556E-01  0.0000000E+00  0.1543210E-02
    1      -11.991405
    2      -11.779977
    3       -5.815394
    4       -5.693203
    5       -1.673846
    6       -1.623991
    7       -0.243599
    8        1.218187
    9        8.271703
   10        9.111635
   11       12.258893
   12       12.454788
 
 -0.3333333E+00  0.5555556E-01  0.0000000E+00  0.1543210E-02
    1      -12.841444
    2      -12.616157
    3       -4.366612
    4       -4.263988
    5       -1.257544
    6       -1.216523
    7       -1.210407
    8        0.369092
    9        9.835885
   10       10.539210
   11       11.442504
   12       12.551383
 
 -0.2777778E+00  0.5555556E-01  0.0000000E+00  0.1543210E-02
    1      -13.560167
    2      -13.323439
    3       -2.905887
    4       -2.824492
    5       -2.062411
    6       -0.730261
    7       -0.687231
    8       -0.398083
    9       10.564936
   10       11.425296
   11       11.962589
   12       12.787544
 
 -0.2222222E+00  0.5555556E-01  0.0000000E+00  0.1543210E-02
    1      -14.140580
    2      -13.894682
    3       -2.755609
    4       -1.503853
    5       -1.444370
    6       -1.037629
    7       -0.124630
    8       -0.088321
    9        9.850348
   10       12.911876
   11       12.994437
   12       13.185227
 
 -0.1666667E+00  0.5555556E-01  0.0000000E+00  0.1543210E-02
    1      -14.578695
    2      -14.325791
    3       -3.282956
    4       -1.528740
    5       -0.261611
    6       -0.224744
    7        0.503536
    8        0.529705
    9        9.311262
   10       13.081596
   11       13.203136
   12       14.181081
 
 -0.1111111E+00  0.5555556E-01  0.0000000E+00  0.1543210E-02
    1      -14.871905
    2      -14.614394
    3       -3.637614
    4       -1.860603
    5        0.685151
    6        0.706876
    7        1.054765
    8        1.072004
    9        8.951651
   10       12.992736
   11       13.068193
   12       13.719914
 
 -0.5555556E-01  0.5555556E-01  0.0000000E+00  0.7716049E-03
    1      -15.018857
    2      -14.759015
    3       -3.815757
    4       -2.027768
    5        1.211882
    6        1.233740
    7        1.371406
    8        1.390985
    9        8.772370
   10       12.888976
   11       12.945261
   12       13.208466
 
  0.1111111E+00  0.1111111E+00  0.0000000E+00  0.7716049E-03
    1      -14.212604
    2      -13.965541
    3       -2.842067
    4       -1.158897
    5       -1.125566
    6       -1.117704
    7       -0.201668
    8       -0.178036
    9        9.763684
   10       13.159502
   11       13.489054
   12       13.567106
 
  0.1666667E+00  0.1111111E+00  0.0000000E+00  0.1543210E-02
    1      -13.703821
    2      -13.464824
    3       -2.307646
    4       -2.253677
    5       -2.232562
    6       -0.948619
    7       -0.912150
    8       -0.553393
    9       10.394103
   10       11.886710
   11       12.288075
   12       13.652406
 
  0.2222222E+00  0.1111111E+00  0.0000000E+00  0.1543210E-02
    1      -13.055068
    2      -12.826403
    3       -3.635419
    4       -3.553564
    5       -1.596956
    6       -1.546712
    7       -1.463400
    8        0.150349
    9       10.441405
   10       10.972951
   11       11.197950
   12       13.523398
 
  0.2777778E+00  0.1111111E+00  0.0000000E+00  0.1543210E-02
    1      -12.271816
    2      -12.055693
    3       -5.033064
    4       -4.926849
    5       -2.111277
    6       -2.052988
    7       -0.552151
    8        0.964687
    9        8.929186
   10        9.611219
   11       12.162923
   12       13.320389
 
  0.3333333E+00  0.1111111E+00  0.0000000E+00  0.1543210E-02
    1      -11.364329
    2      -11.163238
    3       -6.417850
    4       -6.291131
    5       -2.484026
    6       -2.421301
    7        0.463649
    8        1.820316
    9        7.489130
   10        8.277879
   11       13.072064
   12       13.277380
 
  0.3888889E+00  0.1111111E+00  0.0000000E+00  0.1543210E-02
    1      -10.361798
    2      -10.182772
    3       -7.713850
    4       -7.575196
    5       -2.710172
    6       -2.645115
    7        1.480958
    8        2.515965
    9        6.375214
   10        7.104116
   11       12.996953
   12       13.375303
 
  0.4444444E+00  0.1111111E+00  0.0000000E+00  0.1543210E-02
    1       -9.580046
    2       -9.484342
    3       -8.521316
    4       -8.450863
    5       -2.786409
    6       -2.720667
    7        2.074155
    8        2.696565
    9        6.010130
   10        6.498104
   11       12.957237
   12       13.348161
 
  0.5000000E+00  0.1111111E+00  0.0000000E+00  0.1543210E-02
    1      -10.365032
    2      -10.185950
    3       -7.709854
    4       -7.570960
    5       -2.711533
    6       -2.646460
    7        1.478720
    8        2.514913
    9        6.375305
   10        7.107045
   11       12.998573
   12       13.376860
 
 -0.4444444E+00  0.1111111E+00  0.0000000E+00  0.1543210E-02
    1      -11.367344
    2      -11.166230
    3       -6.413306
    4       -6.286495
    5       -2.486677
    6       -2.423875
    7        0.461126
    8        1.818299
    9        7.489595
   10        8.281114
   11       13.074001
   12       13.275766
 
 -0.3888889E+00  0.1111111E+00  0.0000000E+00  0.1543210E-02
    1      -12.274406
    2      -12.058274
    3       -5.028491
    4       -4.922171
    5       -2.114769
    6       -2.056392
    7       -0.554540
    8        0.962525
    9        8.928841
   10        9.614228
   11       12.159466
   12       13.324983
 
 -0.3333333E+00  0.1111111E+00  0.0000000E+00  0.1543210E-02
    1      -13.057228
    2      -12.828550
    3       -3.631674
    4       -3.549714
    5       -1.600258
    6       -1.549977
    7       -1.465503
    8        0.148362
    9       10.439409
   10       10.975505
   11       11.195027
   12       13.529731
 
 -0.2777778E+00  0.1111111E+00  0.0000000E+00  0.1543210E-02
    1      -13.705545
    2      -13.466537
    3       -2.306878
    4       -2.252774
    5       -2.234310
    6       -0.949374
    7       -0.912940
    8       -0.555072
    9       10.391749
   10       11.882717
   11       12.289982
   12       13.660938
 
 -0.2222222E+00  0.1111111E+00  0.0000000E+00  0.1543210E-02
    1      -14.213895
    2      -13.966821
    3       -2.843403
    4       -1.164598
    5       -1.130475
    6       -1.119002
    7       -0.196412
    8       -0.172564
    9        9.761894
   10       13.154158
   11       13.485451
   12       13.502499
 
 -0.1666667E+00  0.1111111E+00  0.0000000E+00  0.1543210E-02
    1      -14.579016
    2      -14.326110
    3       -3.283296
    4       -1.529076
    5       -0.270563
    6       -0.232963
    7        0.512441
    8        0.539058
    9        9.310817
   10       13.091719
   11       13.212565
   12       14.175446
 
 -0.1111111E+00  0.1111111E+00  0.0000000E+00  0.7716049E-03
    1      -14.798683
    2      -14.542331
    3       -3.548931
    4       -1.777517
    5        0.385456
    6        0.422077
    7        0.952606
    8        0.979805
    9        9.040985
   10       12.913437
   11       13.011439
   12       14.060400
 
  0.1666667E+00  0.1666667E+00  0.0000000E+00  0.7716049E-03
    1      -13.126870
    2      -12.897101
    3       -3.225284
    4       -3.179447
    5       -1.866742
    6       -1.833202
    7       -1.546548
    8        0.076460
    9       10.691937
   10       11.113557
   11       11.115165
   12       14.446334
 
  0.2222222E+00  0.1666667E+00  0.0000000E+00  0.1543210E-02
    1      -12.413590
    2      -12.195104
    3       -4.350549
    4       -4.278887
    5       -2.639260
    6       -2.587986
    7       -0.709039
    8        0.833959
    9        9.369276
   10        9.869428
   11       12.001932
   12       14.635570
 
  0.2777778E+00  0.1666667E+00  0.0000000E+00  0.1543210E-02
    1      -11.571927
    2      -11.367100
    3       -5.621033
    4       -5.517219
    5       -3.181847
    6       -3.113235
    7        0.256149
    8        1.679530
    9        7.997913
   10        8.613567
   11       13.045961
   12       14.487137
 
  0.3333333E+00  0.1666667E+00  0.0000000E+00  0.1543210E-02
    1      -10.618400
    2      -10.430925
    3       -6.907229
    4       -6.780800
    5       -3.524050
    6       -3.446895
    7        1.293615
    8        2.507694
    9        6.741813
   10        7.413166
   11       14.171732
   12       14.376451
 
  0.3888889E+00  0.1666667E+00  0.0000000E+00  0.1543210E-02
    1       -9.628773
    2       -9.479798
    3       -8.051709
    4       -7.931365
    5       -3.691252
    6       -3.610740
    7        2.215569
    8        2.995909
    9        5.994266
   10        6.439768
   11       14.230618
   12       14.712813
 
  0.4444444E+00  0.1666667E+00  0.0000000E+00  0.1543210E-02
    1       -9.633132
    2       -9.483806
    3       -8.047179
    4       -7.926283
    5       -3.692129
    6       -3.611580
    7        2.213148
    8        2.995507
    9        5.992587
   10        6.443860
   11       14.231581
   12       14.713605
 
  0.5000000E+00  0.1666667E+00  0.0000000E+00  0.1543210E-02
    1      -10.623146
    2      -10.435648
    3       -6.900858
    4       -6.774230
    5       -3.526522
    6       -3.449267
    7        1.289942
    8        2.505062
    9        6.741392
   10        7.418437
   11       14.167676
   12       14.375736
 
 -0.4444444E+00  0.1666667E+00  0.0000000E+00  0.1543210E-02
    1      -11.576126
    2      -11.371288
    3       -5.614685
    4       -5.510644
    5       -3.185237
    6       -3.116499
    7        0.252471
    8        1.676242
    9        7.996634
   10        8.618703
   11       13.040210
   12       14.491909
 
 -0.3888889E+00  0.1666667E+00  0.0000000E+00  0.1543210E-02
    1      -12.417153
    2      -12.198653
    3       -4.346175
    4       -4.274164
    5       -2.641607
    6       -2.590201
    7       -0.712390
    8        0.830776
    9        9.365701
   10        9.874010
   11       11.997129
   12       14.643885
 
 -0.3333333E+00  0.1666667E+00  0.0000000E+00  0.1543210E-02
    1      -13.129767
    2      -12.899995
    3       -3.226687
    4       -3.179756
    5       -1.864528
    6       -1.830311
    7       -1.549416
    8        0.073673
    9       10.685926
   10       11.109658
   11       11.118412
   12       14.465460
 
 -0.2777778E+00  0.1666667E+00  0.0000000E+00  0.1543210E-02
    1      -13.706080
    2      -13.467070
    3       -2.315449
    4       -2.260554
    5       -2.234866
    6       -0.940236
    7       -0.903274
    8       -0.555650
    9       10.391068
   10       11.879428
   11       12.288941
   12       13.678643
 
 -0.2222222E+00  0.1666667E+00  0.0000000E+00  0.1543210E-02
    1      -14.141451
    2      -13.895538
    3       -2.756507
    4       -1.516268
    5       -1.456409
    6       -1.038535
    7       -0.110799
    8       -0.074370
    9        9.849216
   10       12.906455
   11       13.014116
   12       13.204157
 
 -0.1666667E+00  0.1666667E+00  0.0000000E+00  0.7716049E-03
    1      -14.432949
    2      -14.182433
    3       -3.107243
    4       -1.364791
    5       -0.799405
    6       -0.744557
    7        0.390948
    8        0.424582
    9        9.489147
   10       12.823423
   11       12.984216
   12       13.708529
 
  0.2222222E+00  0.2222222E+00  0.0000000E+00  0.7716049E-03
    1      -11.641379
    2      -11.435558
    3       -5.145826
    4       -5.087541
    5       -3.602851
    6       -3.559048
    7        0.185758
    8        1.630136
    9        8.218875
   10        8.719999
   11       12.964657
   12       15.749372
 
  0.2777778E+00  0.2222222E+00  0.0000000E+00  0.1543210E-02
    1      -10.750809
    2      -10.559986
    3       -6.161565
    4       -6.072905
    5       -4.273393
    6       -4.207327
    7        1.189530
    8        2.488042
    9        7.030697
   10        7.586807
   11       14.064534
   12       15.803462
 
  0.3333333E+00  0.2222222E+00  0.0000000E+00  0.1543210E-02
    1       -9.773048
    2       -9.604387
    3       -7.286841
    4       -7.170519
    5       -4.625286
    6       -4.540500
    7        2.219750
    8        3.246875
    9        6.005868
   10        6.533130
   11       15.244033
   12       15.678051
 
  0.3888889E+00  0.2222222E+00  0.0000000E+00  0.1543210E-02
    1       -9.015243
    2       -8.924738
    3       -8.033470
    4       -7.981434
    5       -4.733527
    6       -4.643899
    7        2.865329
    8        3.468434
    9        5.775744
   10        5.796261
   11       15.594949
   12       16.289850
 
  0.4444444E+00  0.2222222E+00  0.0000000E+00  0.1543210E-02
    1       -9.779555
    2       -9.610820
    3       -7.279306
    4       -7.162494
    5       -4.626895
    6       -4.541990
    7        2.215306
    8        3.244322
    9        6.003050
   10        6.540946
   11       15.234599
   12       15.678961
 
  0.5000000E+00  0.2222222E+00  0.0000000E+00  0.1543210E-02
    1      -10.756819
    2      -10.565993
    3       -6.154517
    4       -6.065298
    5       -4.275263
    6       -4.208962
    7        1.184667
    8        2.483659
    9        7.027871
   10        7.594373
   11       14.056088
   12       15.806969
 
 -0.4444444E+00  0.2222222E+00  0.0000000E+00  0.1543210E-02
    1      -11.646700
    2      -11.440741
    3       -5.143529
    4       -5.083875
    5       -3.601624
    6       -3.556957
    7        0.181144
    8        1.625622
    9        8.213891
   10        8.726375
   11       12.957661
   12       15.770737
 
 -0.3888889E+00  0.2222222E+00  0.0000000E+00  0.1543210E-02
    1      -12.417909
    2      -12.199410
    3       -4.354358
    4       -4.281546
    5       -2.632498
    6       -2.580505
    7       -0.713130
    8        0.829872
    9        9.362457
   10        9.873049
   11       11.996231
   12       14.670695
 
 -0.3333333E+00  0.2222222E+00  0.0000000E+00  0.1543210E-02
    1      -13.058513
    2      -12.829835
    3       -3.643528
    4       -3.561093
    5       -1.585872
    6       -1.535407
    7       -1.466806
    8        0.146922
    9       10.433532
   10       10.973079
   11       11.193466
   12       13.556603
 
 -0.2777778E+00  0.2222222E+00  0.0000000E+00  0.1543210E-02
    1      -13.561773
    2      -13.325039
    3       -2.919015
    4       -2.837315
    5       -2.064100
    6       -0.713945
    7       -0.670945
    8       -0.399809
    9       10.562936
   10       11.417954
   11       11.958994
   12       12.813298
 
 -0.2222222E+00  0.2222222E+00  0.0000000E+00  0.7716049E-03
    1      -13.923609
    2      -13.681140
    3       -2.495765
    4       -2.184671
    5       -2.109946
    6       -0.797483
    7       -0.205018
    8       -0.166411
    9       10.114565
   10       12.274888
   11       12.623541
   12       12.804623
 
  0.2777778E+00  0.2777778E+00  0.0000000E+00  0.7716049E-03
    1       -9.828966
    2       -9.656639
    3       -6.784209
    4       -6.714217
    5       -5.141782
    6       -5.092863
    7        2.209874
    8        3.336666
    9        6.024065
   10        6.586380
   11       15.172867
   12       15.986899
 
  0.3333333E+00  0.2777778E+00  0.0000000E+00  0.1543210E-02
    1       -8.878721
    2       -8.740683
    3       -7.603353
    4       -7.518775
    5       -5.582588
    6       -5.515147
    7        3.195035
    8        3.988345
    9        5.215652
   10        5.697741
   11       15.766910
   12       15.880108
 
  0.3888889E+00  0.2777778E+00  0.0000000E+00  0.1543210E-02
    1       -8.886408
    2       -8.747955
    3       -7.596567
    4       -7.510315
    5       -5.582768
    6       -5.515149
    7        3.190783
    8        3.987309
    9        5.210421
   10        5.706473
   11       15.782060
   12       15.863765
 
  0.4444444E+00  0.2777778E+00  0.0000000E+00  0.1543210E-02
    1       -9.836999
    2       -9.664719
    3       -6.778885
    4       -6.707244
    5       -5.140255
    6       -5.090300
    7        2.204239
    8        3.330994
    9        6.020630
   10        6.595559
   11       15.161170
   12       16.000656
 
  0.5000000E+00  0.2777778E+00  0.0000000E+00  0.1543210E-02
    1      -10.757870
    2      -10.567079
    3       -6.161609
    4       -6.071697
    5       -4.267035
    6       -4.200109
    7        1.183851
    8        2.481901
    9        7.025890
   10        7.593693
   11       14.055019
   12       15.841516
 
 -0.4444444E+00  0.2777778E+00  0.0000000E+00  0.1543210E-02
    1      -11.577896
    2      -11.373078
    3       -5.625265
    4       -5.520824
    5       -3.171556
    6       -3.102619
    7        0.250879
    8        1.673851
    9        7.991865
   10        8.616558
   11       13.038307
   12       14.525063
 
 -0.3888889E+00  0.2777778E+00  0.0000000E+00  0.1543210E-02
    1      -12.276679
    2      -12.060556
    3       -5.040510
    4       -4.933932
    5       -2.098202
    6       -2.039823
    7       -0.556729
    8        0.959808
    9        8.921958
   10        9.610295
   11       12.157092
   12       13.356053
 
 -0.3333333E+00  0.2777778E+00  0.0000000E+00  0.1543210E-02
    1      -12.844021
    2      -12.618735
    3       -4.379081
    4       -4.276242
    5       -1.239928
    6       -1.219090
    7       -1.192868
    8        0.366226
    9        9.827765
   10       10.534125
   11       11.439821
   12       12.580929
 
 -0.2777778E+00  0.2777778E+00  0.0000000E+00  0.7716049E-03
    1      -13.273689
    2      -13.041494
    3       -3.655058
    4       -3.560242
    5       -1.724009
    6       -0.759312
    7       -0.717633
    8       -0.090454
    9       10.685205
   10       10.909242
   11       11.342128
   12       12.379647
 
  0.3333333E+00  0.3333333E+00  0.0000000E+00  0.7716049E-03
    1       -8.120328
    2       -8.037457
    3       -8.035444
    4       -7.956034
    5       -5.989851
    6       -5.989040
    7        3.953357
    8        4.504995
    9        4.512992
   10        5.166296
   11       15.591756
   12       15.614504
 
  0.3888889E+00  0.3333333E+00  0.0000000E+00  0.1543210E-02
    1       -8.889108
    2       -8.751556
    3       -7.598827
    4       -7.513095
    5       -5.577070
    6       -5.508671
    7        3.190750
    8        3.978804
    9        5.214519
   10        5.707210
   11       15.781629
   12       15.866849
 
  0.4444444E+00  0.3333333E+00  0.0000000E+00  0.1543210E-02
    1       -9.782364
    2       -9.613947
    3       -7.286761
    4       -7.169914
    5       -4.615459
    6       -4.530298
    7        2.214050
    8        3.237861
    9        6.002961
   10        6.539790
   11       15.233167
   12       15.714425
 
  0.5000000E+00  0.3333333E+00  0.0000000E+00  0.1543210E-02
    1      -10.626343
    2      -10.438982
    3       -6.910557
    4       -6.783827
    5       -3.511509
    6       -3.434226
    7        1.287646
    8        2.499659
    9        6.737880
   10        7.415184
   11       14.171836
   12       14.405154
 
 -0.4444444E+00  0.3333333E+00  0.0000000E+00  0.1543210E-02
    1      -11.370911
    2      -11.169855
    3       -6.424029
    4       -6.297089
    5       -2.469388
    6       -2.406644
    7        0.458073
    8        1.813434
    9        7.483688
   10        8.275927
   11       13.096379
   12       13.292468
 
 -0.3888889E+00  0.3333333E+00  0.0000000E+00  0.1543210E-02
    1      -11.995354
    2      -11.783809
    3       -5.826548
    4       -5.704156
    5       -1.655582
    6       -1.605816
    7       -0.247142
    8        1.213637
    9        8.264300
   10        9.105397
   11       12.279425
   12       12.474714
 
 -0.3333333E+00  0.3333333E+00  0.0000000E+00  0.7716049E-03
    1      -12.488428
    2      -12.268751
    3       -5.133591
    4       -5.018872
    5       -1.224648
    6       -1.180885
    7       -0.810119
    8        0.725441
    9        9.065008
   10        9.878324
   11       11.813465
   12       12.169323
 
  0.3888889E+00  0.3888889E+00  0.0000000E+00  0.7716049E-03
    1       -9.024532
    2       -8.936101
    3       -8.032860
    4       -7.982080
    5       -4.722053
    6       -4.632234
    7        2.864616
    8        3.453899
    9        5.781578
   10        5.794841
   11       15.630890
   12       16.318124
 
  0.4444444E+00  0.3888889E+00  0.0000000E+00  0.1543210E-02
    1       -9.639302
    2       -9.491076
    3       -8.052711
    4       -7.932616
    5       -3.677219
    6       -3.596675
    7        2.211592
    8        2.983131
    9        5.994858
   10        6.439136
   11       14.267947
   12       14.750406
 
  0.5000000E+00  0.3888889E+00  0.0000000E+00  0.1543210E-02
    1      -10.370556
    2      -10.191829
    3       -7.718009
    4       -7.579267
    5       -2.694276
    6       -2.629267
    7        1.475510
    8        2.505545
    9        6.373506
   10        7.100526
   11       13.033221
   12       13.411545
 
 -0.4444444E+00  0.3888889E+00  0.0000000E+00  0.1543210E-02
    1      -11.030672
    2      -10.836336
    3       -7.205668
    4       -7.066717
    5       -1.941503
    6       -1.890158
    7        0.790099
    8        2.020138
    9        6.907789
   10        7.780121
   11       12.190619
   12       12.522656
 
 -0.3888889E+00  0.3888889E+00  0.0000000E+00  0.7716049E-03
    1      -11.577510
    2      -11.372995
    3       -6.564780
    4       -6.431825
    5       -1.573248
    6       -1.527707
    7        0.207008
    8        1.575941
    9        7.558851
   10        8.464635
   11       11.931192
   12       12.233648
 
  0.4444444E+00  0.4444444E+00  0.0000000E+00  0.7716049E-03
    1       -9.590338
    2       -9.496816
    3       -8.522671
    4       -8.453757
    5       -2.769660
    6       -2.703976
    7        2.072711
    8        2.680776
    9        6.014137
   10        6.489776
   11       12.993145
   12       13.384361
 
  0.5000000E+00  0.4444444E+00  0.0000000E+00  0.1543210E-02
    1      -10.024813
    2       -9.870475
    3       -8.399434
    4       -8.270063
    5       -2.086927
    6       -2.034831
    7        1.691863
    8        2.463797
    9        6.117254
   10        6.789729
   11       12.112198
   12       12.464872
 
 -0.4444444E+00  0.4444444E+00  0.0000000E+00  0.7716049E-03
    1      -10.569267
    2      -10.387189
    3       -7.887598
    4       -7.744400
    5       -1.787820
    6       -1.741447
    7        1.220177
    8        2.251937
    9        6.419145
   10        7.250702
   11       11.818147
   12       12.156040
 
  0.5000000E+00  0.5000000E+00  0.0000000E+00  0.3858025E-03
    1       -9.779212
    2       -9.683960
    3       -8.706649
    4       -8.634658
    5       -1.860143
    6       -1.813683
    7        1.805736
    8        2.419040
    9        6.035841
   10        6.654559
   11       11.778100
   12       12.124214
 