32   
4    

1    
  0.0033961941722186  -0.0000013213933994   0.0094056293462218
  -0.2206310500    0.0075945000   -0.1343126500
   0.0270621900    0.0066517300   -0.0053350700
  -0.0089540200   -0.0141642100   -0.0052708800
  -0.0090432400    0.0275655100   -0.0054956500
  -0.0126230700    0.0064295700    0.0016977500
  -0.0126069700    0.0064297300    0.0017165600
  -0.0126134400    0.0064282200    0.0017181100
  -0.0126147700    0.0064364400    0.0017188300
   0.0114970100   -0.0073175500   -0.0017499000
   0.0113465700   -0.0073937800   -0.0018005200
   0.0114871800   -0.0072189100   -0.0017732200
   0.0113368100   -0.0073138800   -0.0011780100
   0.0113220100   -0.0056288200   -0.0019700000
   0.0114524500   -0.0057014300   -0.0019207700
   0.0114484100   -0.0057939600   -0.0019463400
   0.0112936000   -0.0057199400   -0.0012770600
   0.0095197400   -0.0062472800    0.0121369900
   0.0363723000   -0.0069710400    0.0473339600
   0.0813344200    0.0195971300    0.0477468800
   0.0814238000   -0.0323004200    0.0468706500
   0.0119525800   -0.0060968500   -0.0003501800
   0.0119580200   -0.0060966100   -0.0003382700
   0.0119559800   -0.0061011500   -0.0003387100
   0.0119549400   -0.0060980700   -0.0003355700
  -0.0111371700    0.0070274200    0.0007809600
  -0.0107333200    0.0071160300    0.0008032900
  -0.0110123500    0.0067291200    0.0007933100
  -0.0108703200    0.0069552700    0.0001670400
  -0.0103006400    0.0051538700    0.0006468900
  -0.0106252400    0.0052506400    0.0006135400
  -0.0105474200    0.0054929800    0.0006205800
  -0.0104049900    0.0053057900    0.0000274500

1    
 -0.0033961941722186   0.0000013213933994  -0.0094056293462218
   0.1980540600    0.0074035700    0.1342982000
  -0.0496154100    0.0064433600    0.0053484500
  -0.0135190200    0.0272955700    0.0054111700
  -0.0136088000   -0.0144150500    0.0053829500
  -0.0105976000    0.0067457100   -0.0016756300
  -0.0106115300    0.0067391800   -0.0016946100
  -0.0106038800    0.0067422200   -0.0016964400
  -0.0106042500    0.0067343900   -0.0016978000
   0.0113004000   -0.0075093900    0.0018722600
   0.0114396000   -0.0074308200    0.0019218500
   0.0113054900   -0.0075922400    0.0018955000
   0.0114550700   -0.0075054300    0.0012331400
   0.0112772500   -0.0057400100    0.0018156400
   0.0111228200   -0.0056652400    0.0017641500
   0.0111393500   -0.0055789300    0.0017915200
   0.0112849000   -0.0056613000    0.0011941300
   0.0116968200   -0.0061243200   -0.0122258100
  -0.0151712800   -0.0066580500   -0.0474274900
  -0.0604035600   -0.0322199100   -0.0470034600
  -0.0599331100    0.0196723600   -0.0477977200
   0.0098864600   -0.0062964500    0.0002977400
   0.0098869700   -0.0062995700    0.0002831300
   0.0098841400   -0.0062949400    0.0002828700
   0.0098914300   -0.0062954900    0.0002838000
  -0.0107606100    0.0070863100   -0.0005807100
  -0.0110993100    0.0069989500   -0.0006005200
  -0.0108513500    0.0073257900   -0.0005933600
  -0.0109957700    0.0071358900    0.0000128700
  -0.0105180700    0.0053994000   -0.0007058300
  -0.0101169300    0.0053054500   -0.0006590100
  -0.0102332300    0.0050117600   -0.0006652900
  -0.0103810400    0.0052472400   -0.0000657000

17   
  0.0033961941722186  -0.0000013213933994   0.0094056293462218
  -0.0127857800    0.0067357200    0.0108111100
   0.0140408900    0.0072688100    0.0460101800
   0.0592931200    0.0328362900    0.0455838600
   0.0588211200   -0.0190684500    0.0463797600
  -0.0117108000    0.0068995300   -0.0016231700
  -0.0117082900    0.0069000100   -0.0016096600
  -0.0117098800    0.0068982400   -0.0016114000
  -0.0117094100    0.0068996000   -0.0016060700
   0.0114352700   -0.0075867900    0.0019447200
   0.0115290600   -0.0075106000    0.0020615800
   0.0114187700   -0.0076030300    0.0019997200
   0.0115453300   -0.0075646000    0.0013877400
   0.0107246400   -0.0053657900    0.0020760800
   0.0106427900   -0.0052474600    0.0019334000
   0.0105838900   -0.0052613500    0.0019964500
   0.0107479500   -0.0052949500    0.0013969600
  -0.1982862500   -0.0072428900   -0.1353821400
   0.0492398000   -0.0062908300   -0.0073266000
   0.0136132500   -0.0268820000   -0.0073865300
   0.0137109800    0.0142960100   -0.0073706900
   0.0109316300   -0.0064513400    0.0002739300
   0.0109256800   -0.0064508500    0.0001696300
   0.0109278900   -0.0064497200    0.0001698200
   0.0109279000   -0.0064525500    0.0001701200
  -0.0112053000    0.0072533100   -0.0000412500
  -0.0108829600    0.0072590600    0.0000499900
  -0.0110470800    0.0069830300   -0.0000090300
  -0.0110411600    0.0071578600   -0.0002430500
  -0.0095756300    0.0047372600    0.0000855200
  -0.0098993400    0.0047404600   -0.0000548800
  -0.0097380300    0.0050173000   -0.0000000000
  -0.0097600300    0.0048407200   -0.0002361000

17   
 -0.0033961941722186   0.0000013213933994  -0.0094056293462218
  -0.0077132600    0.0060997900   -0.0115192200
  -0.0345758300    0.0068082900   -0.0467074500
  -0.0795401500   -0.0197533600   -0.0471185600
  -0.0796183200    0.0321441700   -0.0462555900
  -0.0152272900    0.0058372300    0.0010257200
  -0.0152347500    0.0058355300    0.0010126100
  -0.0152290900    0.0058403800    0.0010102500
  -0.0152336000    0.0058366800    0.0010145000
   0.0129509400   -0.0078410400   -0.0013083500
   0.0128652700   -0.0079131600   -0.0014221200
   0.0129682800   -0.0078232400   -0.0013592400
   0.0128398200   -0.0078599700   -0.0007610800
   0.0125065100   -0.0066718900   -0.0014192600
   0.0125882400   -0.0067996700   -0.0012803000
   0.0126546300   -0.0067954300   -0.0013443000
   0.0124905300   -0.0067624300   -0.0007309100
   0.2173560000   -0.0065169400    0.1353683900
  -0.0300948400   -0.0055941400    0.0073808500
   0.0053877400    0.0149139200    0.0073176600
   0.0054755100   -0.0261958300    0.0075541700
   0.0146431400   -0.0055539300   -0.0001326500
   0.0146560300   -0.0055526100   -0.0000279000
   0.0146493400   -0.0055572700   -0.0000279300
   0.0146500100   -0.0055499500   -0.0000280300
  -0.0121720600    0.0074058400   -0.0000619300
  -0.0124930800    0.0074061900   -0.0001534200
  -0.0123347100    0.0076804800   -0.0000990600
  -0.0123380800    0.0075035800    0.0001315900
  -0.0118936500    0.0064555800   -0.0001552100
  -0.0115634800    0.0064393000   -0.0000095200
  -0.0117173400    0.0061777200   -0.0000686300
  -0.0117024500    0.0063562200    0.0001749200
