mesh: [     9,     9,     4 ]
nqpoint: 50     
reciprocal_lattice:
- [   0.40553429,   0.23434576,   0.00000000 ] # a*
- [   0.00018224,   0.46837588,   0.00000000 ] # b*
- [   0.00000000,   0.00000000,   0.14639781 ] # c*
natom:   4      
lattice:
- [     2.466437248995937,    -0.000959642981403,     0.000000000000000 ] # a
- [    -1.234049699648306,     2.135517492938035,     0.000000000000000 ] # b
- [     0.000000000000000,     0.000000000000000,     6.830703249990070 ] # c
points:
- symbol: C  # 1
  coordinates: [  0.999346608899160,  0.000653437440448,  0.250000000000000 ]
  mass: 12.010700
- symbol: C  # 2
  coordinates: [  0.000653437440448,  0.999346608899160,  0.750000000000000 ]
  mass: 12.010700
- symbol: C  # 3
  coordinates: [  0.332584924946424,  0.667415057713967,  0.250000000000000 ]
  mass: 12.010700
- symbol: C  # 4
  coordinates: [  0.667415057713967,  0.332584924946424,  0.750000000000000 ]
  mass: 12.010700
phonon:
- q-position: [    0.0000000,    0.0000000,    0.1250000 ]
  weight: 2    
  band:
  - # 1
    frequency:    -1.1795804789
  - # 2
    frequency:    -0.6807953363
  - # 3
    frequency:    -0.3091492302
  - # 4
    frequency:     0.6674459142
  - # 5
    frequency:     0.9533305281
  - # 6
    frequency:     1.2779354646
  - # 7
    frequency:    24.9878998271
  - # 8
    frequency:    26.1135911409
  - # 9
    frequency:    44.8289640602
  - # 10
    frequency:    45.1790261173
  - # 11
    frequency:    45.2808500093
  - # 12
    frequency:    45.3191546247

- q-position: [    0.1111111,    0.0000000,    0.1250000 ]
  weight: 8    
  band:
  - # 1
    frequency:     3.8567074620
  - # 2
    frequency:     4.5259397278
  - # 3
    frequency:     5.9308604187
  - # 4
    frequency:     6.0638432331
  - # 5
    frequency:    11.4608123786
  - # 6
    frequency:    11.5172874655
  - # 7
    frequency:    24.4755218673
  - # 8
    frequency:    25.5158924937
  - # 9
    frequency:    44.5961194568
  - # 10
    frequency:    44.9702139548
  - # 11
    frequency:    45.2356068383
  - # 12
    frequency:    45.4045168060

- q-position: [    0.2222222,    0.0000000,    0.1250000 ]
  weight: 8    
  band:
  - # 1
    frequency:     7.6218280163
  - # 2
    frequency:     8.2478621816
  - # 3
    frequency:    11.4566394576
  - # 4
    frequency:    11.5585241615
  - # 5
    frequency:    22.0835503803
  - # 6
    frequency:    22.1407820366
  - # 7
    frequency:    23.0552299101
  - # 8
    frequency:    23.8578978687
  - # 9
    frequency:    43.8245420788
  - # 10
    frequency:    44.0908280172
  - # 11
    frequency:    45.2597049466
  - # 12
    frequency:    45.4072240063

- q-position: [    0.3333333,    0.0000000,    0.1250000 ]
  weight: 8    
  band:
  - # 1
    frequency:    10.9899218453
  - # 2
    frequency:    11.5005411009
  - # 3
    frequency:    15.8915583912
  - # 4
    frequency:    15.9476188982
  - # 5
    frequency:    21.0609400337
  - # 6
    frequency:    21.5314296025
  - # 7
    frequency:    31.0325510529
  - # 8
    frequency:    31.0922863507
  - # 9
    frequency:    42.7819490011
  - # 10
    frequency:    42.9302626433
  - # 11
    frequency:    44.5300908190
  - # 12
    frequency:    44.6325205321

- q-position: [    0.4444444,    0.0000000,    0.1250000 ]
  weight: 8    
  band:
  - # 1
    frequency:    13.5876905822
  - # 2
    frequency:    13.8904732839
  - # 3
    frequency:    18.4709208550
  - # 4
    frequency:    18.4833639462
  - # 5
    frequency:    19.1441041941
  - # 6
    frequency:    19.3037447068
  - # 7
    frequency:    37.7988856863
  - # 8
    frequency:    37.8564319068
  - # 9
    frequency:    41.9898049597
  - # 10
    frequency:    42.0348581885
  - # 11
    frequency:    42.2512326046
  - # 12
    frequency:    42.3212929903

- q-position: [    0.1111111,    0.1111111,    0.1250000 ]
  weight: 4    
  band:
  - # 1
    frequency:     7.1052893487
  - # 2
    frequency:     7.3712936643
  - # 3
    frequency:    10.6390964414
  - # 4
    frequency:    10.7843295489
  - # 5
    frequency:    19.0335950063
  - # 6
    frequency:    19.1138532157
  - # 7
    frequency:    23.4377517086
  - # 8
    frequency:    24.2956756975
  - # 9
    frequency:    44.1033934784
  - # 10
    frequency:    44.4549843732
  - # 11
    frequency:    45.2751568484
  - # 12
    frequency:    45.3772413144

- q-position: [    0.2222222,    0.1111111,    0.1250000 ]
  weight: 8    
  band:
  - # 1
    frequency:    10.2981878479
  - # 2
    frequency:    10.6349391873
  - # 3
    frequency:    15.8699382090
  - # 4
    frequency:    15.9933814706
  - # 5
    frequency:    21.6590029246
  - # 6
    frequency:    22.2147112920
  - # 7
    frequency:    27.3134708045
  - # 8
    frequency:    27.3894306985
  - # 9
    frequency:    43.4011439325
  - # 10
    frequency:    43.6240546286
  - # 11
    frequency:    44.7437680005
  - # 12
    frequency:    44.8324614761

- q-position: [    0.3333333,    0.1111111,    0.1250000 ]
  weight: 8    
  band:
  - # 1
    frequency:    13.0873964781
  - # 2
    frequency:    13.3728205970
  - # 3
    frequency:    19.5965378228
  - # 4
    frequency:    19.6857055175
  - # 5
    frequency:    19.7703669526
  - # 6
    frequency:    19.8158459374
  - # 7
    frequency:    34.3735121961
  - # 8
    frequency:    34.4348855258
  - # 9
    frequency:    42.4495669550
  - # 10
    frequency:    42.5193940055
  - # 11
    frequency:    43.3252196112
  - # 12
    frequency:    43.4306652521

- q-position: [   -0.5555556,    0.1111111,    0.1250000 ]
  weight: 8    
  band:
  - # 1
    frequency:    14.3188011615
  - # 2
    frequency:    14.5929058154
  - # 3
    frequency:    18.4988101354
  - # 4
    frequency:    18.5753407718
  - # 5
    frequency:    21.0998440559
  - # 6
    frequency:    21.1847158666
  - # 7
    frequency:    39.4203106964
  - # 8
    frequency:    39.4476844611
  - # 9
    frequency:    39.7202455216
  - # 10
    frequency:    39.7643349199
  - # 11
    frequency:    42.6383391341
  - # 12
    frequency:    42.6645197550

- q-position: [   -0.4444444,    0.1111111,    0.1250000 ]
  weight: 8    
  band:
  - # 1
    frequency:    12.3768031536
  - # 2
    frequency:    12.9267667244
  - # 3
    frequency:    19.6868820097
  - # 4
    frequency:    19.7863910938
  - # 5
    frequency:    19.9299556006
  - # 6
    frequency:    20.2408447998
  - # 7
    frequency:    34.3807046175
  - # 8
    frequency:    34.4471671265
  - # 9
    frequency:    42.3982416745
  - # 10
    frequency:    42.4803263258
  - # 11
    frequency:    43.3726591516
  - # 12
    frequency:    43.4334914256

- q-position: [   -0.3333333,    0.1111111,    0.1250000 ]
  weight: 8    
  band:
  - # 1
    frequency:     9.3375802049
  - # 2
    frequency:    10.1359058640
  - # 3
    frequency:    15.8817092976
  - # 4
    frequency:    15.9977595439
  - # 5
    frequency:    21.9530913413
  - # 6
    frequency:    22.5942160277
  - # 7
    frequency:    27.3215687647
  - # 8
    frequency:    27.3981765981
  - # 9
    frequency:    43.4540230736
  - # 10
    frequency:    43.6086346766
  - # 11
    frequency:    44.6800703173
  - # 12
    frequency:    44.8213193342

- q-position: [   -0.2222222,    0.1111111,    0.1250000 ]
  weight: 8    
  band:
  - # 1
    frequency:     5.9269455837
  - # 2
    frequency:     7.0159962060
  - # 3
    frequency:    10.6428497858
  - # 4
    frequency:    10.7563816256
  - # 5
    frequency:    19.0375254312
  - # 6
    frequency:    19.1448879399
  - # 7
    frequency:    23.6262746366
  - # 8
    frequency:    24.5440599581
  - # 9
    frequency:    44.2827488517
  - # 10
    frequency:    44.4642097005
  - # 11
    frequency:    45.0872882129
  - # 12
    frequency:    45.3520510983

- q-position: [   -0.1111111,    0.1111111,    0.1250000 ]
  weight: 4    
  band:
  - # 1
    frequency:     2.9621117101
  - # 2
    frequency:     4.3861176538
  - # 3
    frequency:     5.8798501404
  - # 4
    frequency:     6.0005822410
  - # 5
    frequency:    11.4441330881
  - # 6
    frequency:    11.6038978963
  - # 7
    frequency:    24.5400219307
  - # 8
    frequency:    25.6019444058
  - # 9
    frequency:    44.8637056438
  - # 10
    frequency:    44.9655694619
  - # 11
    frequency:    44.9958403716
  - # 12
    frequency:    45.3731860873

- q-position: [    0.2222222,    0.2222222,    0.1250000 ]
  weight: 4    
  band:
  - # 1
    frequency:    12.9148123581
  - # 2
    frequency:    13.1818667505
  - # 3
    frequency:    19.7578512666
  - # 4
    frequency:    19.9959672485
  - # 5
    frequency:    21.5961917639
  - # 6
    frequency:    21.7329917197
  - # 7
    frequency:    32.0238141836
  - # 8
    frequency:    32.1050839547
  - # 9
    frequency:    43.0161115607
  - # 10
    frequency:    43.0484433344
  - # 11
    frequency:    43.3376464713
  - # 12
    frequency:    43.4742343173

- q-position: [    0.3333333,    0.2222222,    0.1250000 ]
  weight: 8    
  band:
  - # 1
    frequency:    14.9950037595
  - # 2
    frequency:    15.2025700882
  - # 3
    frequency:    17.8889669846
  - # 4
    frequency:    17.9376511535
  - # 5
    frequency:    25.4530105944
  - # 6
    frequency:    25.5610220468
  - # 7
    frequency:    36.0993311077
  - # 8
    frequency:    36.1462604271
  - # 9
    frequency:    40.0301224179
  - # 10
    frequency:    40.0439074869
  - # 11
    frequency:    43.4605840904
  - # 12
    frequency:    43.5161747079

- q-position: [   -0.5555556,    0.2222222,    0.1250000 ]
  weight: 8    
  band:
  - # 1
    frequency:    14.2391779065
  - # 2
    frequency:    14.6648729992
  - # 3
    frequency:    18.3804836116
  - # 4
    frequency:    18.5062674780
  - # 5
    frequency:    25.4647688925
  - # 6
    frequency:    25.5580687068
  - # 7
    frequency:    36.1102933401
  - # 8
    frequency:    36.1691949479
  - # 9
    frequency:    40.0011446254
  - # 10
    frequency:    40.0116332763
  - # 11
    frequency:    43.4819219185
  - # 12
    frequency:    43.5028036160

- q-position: [   -0.4444444,    0.2222222,    0.1250000 ]
  weight: 8    
  band:
  - # 1
    frequency:    11.7822971522
  - # 2
    frequency:    12.4392030359
  - # 3
    frequency:    20.2766121703
  - # 4
    frequency:    20.6656216845
  - # 5
    frequency:    21.6308487887
  - # 6
    frequency:    21.7082061114
  - # 7
    frequency:    32.0291501717
  - # 8
    frequency:    32.1334767912
  - # 9
    frequency:    42.9304431918
  - # 10
    frequency:    43.0242290072
  - # 11
    frequency:    43.4010433844
  - # 12
    frequency:    43.4516096232

- q-position: [   -0.3333333,    0.2222222,    0.1250000 ]
  weight: 8    
  band:
  - # 1
    frequency:     9.0548847359
  - # 2
    frequency:     9.9668842053
  - # 3
    frequency:    15.8915428115
  - # 4
    frequency:    15.9553228827
  - # 5
    frequency:    22.0355062420
  - # 6
    frequency:    22.7156226826
  - # 7
    frequency:    27.3019032179
  - # 8
    frequency:    27.4420599450
  - # 9
    frequency:    43.5358711059
  - # 10
    frequency:    43.6231538620
  - # 11
    frequency:    44.5917293303
  - # 12
    frequency:    44.7927909521

- q-position: [   -0.2222222,    0.2222222,    0.1250000 ]
  weight: 4    
  band:
  - # 1
    frequency:     6.6399608414
  - # 2
    frequency:     7.8045461567
  - # 3
    frequency:    11.4440811688
  - # 4
    frequency:    11.5086477562
  - # 5
    frequency:    22.0558473915
  - # 6
    frequency:    22.2184626588
  - # 7
    frequency:    23.2509197947
  - # 8
    frequency:    24.1247212405
  - # 9
    frequency:    43.9976849185
  - # 10
    frequency:    44.1066320433
  - # 11
    frequency:    45.0769869733
  - # 12
    frequency:    45.3703058168

- q-position: [   -0.6666667,    0.3333333,    0.1250000 ]
  weight: 4    
  band:
  - # 1
    frequency:    15.9918629433
  - # 2
    frequency:    16.1694618686
  - # 3
    frequency:    16.7950540139
  - # 4
    frequency:    16.9529271414
  - # 5
    frequency:    28.9737339607
  - # 6
    frequency:    29.0339567963
  - # 7
    frequency:    37.1336103958
  - # 8
    frequency:    37.1479941285
  - # 9
    frequency:    37.1727784797
  - # 10
    frequency:    37.1943386772
  - # 11
    frequency:    43.8166683311
  - # 12
    frequency:    43.8386106126

- q-position: [   -0.5555556,    0.3333333,    0.1250000 ]
  weight: 8    
  band:
  - # 1
    frequency:    14.2543036194
  - # 2
    frequency:    14.6195809317
  - # 3
    frequency:    18.4136120760
  - # 4
    frequency:    18.5138051697
  - # 5
    frequency:    25.4950849526
  - # 6
    frequency:    25.5227830226
  - # 7
    frequency:    36.0930491052
  - # 8
    frequency:    36.1804610111
  - # 9
    frequency:    39.9948855343
  - # 10
    frequency:    40.0174815576
  - # 11
    frequency:    43.4795782526
  - # 12
    frequency:    43.4903069025

- q-position: [   -0.4444444,    0.3333333,    0.1250000 ]
  weight: 8    
  band:
  - # 1
    frequency:    12.2954489035
  - # 2
    frequency:    12.8375067201
  - # 3
    frequency:    19.7129365571
  - # 4
    frequency:    19.7388268135
  - # 5
    frequency:    19.9783777790
  - # 6
    frequency:    20.3272559276
  - # 7
    frequency:    34.3568833070
  - # 8
    frequency:    34.4798066383
  - # 9
    frequency:    42.4437581178
  - # 10
    frequency:    42.5024109878
  - # 11
    frequency:    43.3171591405
  - # 12
    frequency:    43.3820683012

- q-position: [   -0.3333333,    0.3333333,    0.1250000 ]
  weight: 4    
  band:
  - # 1
    frequency:    10.3170347717
  - # 2
    frequency:    11.0812521100
  - # 3
    frequency:    15.8866417575
  - # 4
    frequency:    15.9202782017
  - # 5
    frequency:    21.3021408430
  - # 6
    frequency:    21.8753463194
  - # 7
    frequency:    31.0043409432
  - # 8
    frequency:    31.1517307487
  - # 9
    frequency:    42.8613854304
  - # 10
    frequency:    42.9341930264
  - # 11
    frequency:    44.4350769684
  - # 12
    frequency:    44.5867077507

- q-position: [   -0.5555556,    0.4444444,    0.1250000 ]
  weight: 4    
  band:
  - # 1
    frequency:    14.2586467915
  - # 2
    frequency:    14.5035457796
  - # 3
    frequency:    18.5890971877
  - # 4
    frequency:    18.6424165468
  - # 5
    frequency:    21.1381920395
  - # 6
    frequency:    21.1436363000
  - # 7
    frequency:    39.4287463991
  - # 8
    frequency:    39.4653739230
  - # 9
    frequency:    39.6809641775
  - # 10
    frequency:    39.7379777079
  - # 11
    frequency:    42.6392425545
  - # 12
    frequency:    42.6422833288

- q-position: [   -0.4444444,    0.4444444,    0.1250000 ]
  weight: 4    
  band:
  - # 1
    frequency:    13.4552313596
  - # 2
    frequency:    13.7881437379
  - # 3
    frequency:    18.4687299926
  - # 4
    frequency:    18.4783536908
  - # 5
    frequency:    19.2294210178
  - # 6
    frequency:    19.4295864045
  - # 7
    frequency:    37.7794209206
  - # 8
    frequency:    37.8742887095
  - # 9
    frequency:    42.0032907489
  - # 10
    frequency:    42.0317319928
  - # 11
    frequency:    42.2263547270
  - # 12
    frequency:    42.2719656037

- q-position: [    0.0000000,    0.0000000,    0.3750000 ]
  weight: 2    
  band:
  - # 1
    frequency:    -1.9329846705
  - # 2
    frequency:    -1.7467494374
  - # 3
    frequency:    -1.4055027316
  - # 4
    frequency:    -1.1629642814
  - # 5
    frequency:     2.0792168957
  - # 6
    frequency:     2.2464021606
  - # 7
    frequency:    25.7129905384
  - # 8
    frequency:    26.1790203426
  - # 9
    frequency:    43.0102135507
  - # 10
    frequency:    43.0722354423
  - # 11
    frequency:    43.1212933988
  - # 12
    frequency:    43.3136357810

- q-position: [    0.1111111,    0.0000000,    0.3750000 ]
  weight: 8    
  band:
  - # 1
    frequency:     4.4047695925
  - # 2
    frequency:     4.6711346836
  - # 3
    frequency:     5.8528866913
  - # 4
    frequency:     5.9109212733
  - # 5
    frequency:    11.4162409665
  - # 6
    frequency:    11.4403171362
  - # 7
    frequency:    25.1403082927
  - # 8
    frequency:    25.5709671420
  - # 9
    frequency:    42.9976564851
  - # 10
    frequency:    43.1245186617
  - # 11
    frequency:    43.4069000806
  - # 12
    frequency:    43.5120638670

- q-position: [    0.2222222,    0.0000000,    0.3750000 ]
  weight: 8    
  band:
  - # 1
    frequency:     7.9115299685
  - # 2
    frequency:     8.1697011509
  - # 3
    frequency:    11.5491005926
  - # 4
    frequency:    11.5887975857
  - # 5
    frequency:    22.1141216830
  - # 6
    frequency:    22.1378063751
  - # 7
    frequency:    23.5547119598
  - # 8
    frequency:    23.8868378008
  - # 9
    frequency:    42.7186549939
  - # 10
    frequency:    42.8250081854
  - # 11
    frequency:    44.0536360583
  - # 12
    frequency:    44.1218061116

- q-position: [    0.3333333,    0.0000000,    0.3750000 ]
  weight: 8    
  band:
  - # 1
    frequency:    11.1532315241
  - # 2
    frequency:    11.3640311944
  - # 3
    frequency:    15.9799946423
  - # 4
    frequency:    16.0013000589
  - # 5
    frequency:    21.3363737959
  - # 6
    frequency:    21.5309998613
  - # 7
    frequency:    31.1310672649
  - # 8
    frequency:    31.1555309116
  - # 9
    frequency:    42.2917743667
  - # 10
    frequency:    42.3521142361
  - # 11
    frequency:    43.9687044630
  - # 12
    frequency:    44.0128108329

- q-position: [    0.4444444,    0.0000000,    0.3750000 ]
  weight: 8    
  band:
  - # 1
    frequency:    13.6768218874
  - # 2
    frequency:    13.8021468708
  - # 3
    frequency:    18.4872058680
  - # 4
    frequency:    18.4921454037
  - # 5
    frequency:    19.2158160884
  - # 6
    frequency:    19.2820351684
  - # 7
    frequency:    37.8848961474
  - # 8
    frequency:    37.9085250654
  - # 9
    frequency:    41.9362977119
  - # 10
    frequency:    41.9547302829
  - # 11
    frequency:    42.1394763685
  - # 12
    frequency:    42.1690198352

- q-position: [    0.1111111,    0.1111111,    0.3750000 ]
  weight: 4    
  band:
  - # 1
    frequency:     7.3381126082
  - # 2
    frequency:     7.4587500378
  - # 3
    frequency:    10.5085152543
  - # 4
    frequency:    10.5772909958
  - # 5
    frequency:    18.9921550425
  - # 6
    frequency:    19.0270912829
  - # 7
    frequency:    23.9773406909
  - # 8
    frequency:    24.3324109617
  - # 9
    frequency:    42.9679752888
  - # 10
    frequency:    43.1153207373
  - # 11
    frequency:    43.8412638086
  - # 12
    frequency:    43.8850617986

- q-position: [    0.2222222,    0.1111111,    0.3750000 ]
  weight: 8    
  band:
  - # 1
    frequency:    10.4534576571
  - # 2
    frequency:    10.5943374256
  - # 3
    frequency:    15.8292443517
  - # 4
    frequency:    15.8826448380
  - # 5
    frequency:    21.9926805730
  - # 6
    frequency:    22.2225081664
  - # 7
    frequency:    27.2915690327
  - # 8
    frequency:    27.3236018091
  - # 9
    frequency:    42.8040831244
  - # 10
    frequency:    42.8946868441
  - # 11
    frequency:    44.0013180653
  - # 12
    frequency:    44.0403602319

- q-position: [    0.3333333,    0.1111111,    0.3750000 ]
  weight: 8    
  band:
  - # 1
    frequency:    13.1834752906
  - # 2
    frequency:    13.3014488882
  - # 3
    frequency:    19.6722219694
  - # 4
    frequency:    19.7074699203
  - # 5
    frequency:    19.7193701960
  - # 6
    frequency:    19.8007681580
  - # 7
    frequency:    34.3936340154
  - # 8
    frequency:    34.4190617181
  - # 9
    frequency:    42.3067494388
  - # 10
    frequency:    42.3344245845
  - # 11
    frequency:    43.1862395204
  - # 12
    frequency:    43.2307386677

- q-position: [   -0.5555556,    0.1111111,    0.3750000 ]
  weight: 8    
  band:
  - # 1
    frequency:    14.3920714748
  - # 2
    frequency:    14.5062098035
  - # 3
    frequency:    18.5152553623
  - # 4
    frequency:    18.5475786011
  - # 5
    frequency:    21.1825631274
  - # 6
    frequency:    21.2176254803
  - # 7
    frequency:    39.4379881624
  - # 8
    frequency:    39.4495675361
  - # 9
    frequency:    39.7936765614
  - # 10
    frequency:    39.8128861555
  - # 11
    frequency:    42.6696188502
  - # 12
    frequency:    42.6803089219

- q-position: [   -0.4444444,    0.1111111,    0.3750000 ]
  weight: 8    
  band:
  - # 1
    frequency:    12.4988356779
  - # 2
    frequency:    12.7265554702
  - # 3
    frequency:    19.9576020386
  - # 4
    frequency:    19.9982731507
  - # 5
    frequency:    20.1011488486
  - # 6
    frequency:    20.2298191775
  - # 7
    frequency:    34.5704757031
  - # 8
    frequency:    34.5972662754
  - # 9
    frequency:    42.1627590827
  - # 10
    frequency:    42.1971142270
  - # 11
    frequency:    43.0550574294
  - # 12
    frequency:    43.0801568309

- q-position: [   -0.3333333,    0.1111111,    0.3750000 ]
  weight: 8    
  band:
  - # 1
    frequency:     9.5729822918
  - # 2
    frequency:     9.9029585004
  - # 3
    frequency:    16.2903017475
  - # 4
    frequency:    16.3357565385
  - # 5
    frequency:    22.3384907128
  - # 6
    frequency:    22.6036494445
  - # 7
    frequency:    27.4690368849
  - # 8
    frequency:    27.4995804936
  - # 9
    frequency:    42.6427083867
  - # 10
    frequency:    42.7047903305
  - # 11
    frequency:    43.8722575855
  - # 12
    frequency:    43.9337942322

- q-position: [   -0.2222222,    0.1111111,    0.3750000 ]
  weight: 8    
  band:
  - # 1
    frequency:     6.3781063227
  - # 2
    frequency:     6.8209907982
  - # 3
    frequency:    10.9988194576
  - # 4
    frequency:    11.0419393847
  - # 5
    frequency:    19.1784794952
  - # 6
    frequency:    19.2204838034
  - # 7
    frequency:    24.2002038818
  - # 8
    frequency:    24.5799409629
  - # 9
    frequency:    42.8168019148
  - # 10
    frequency:    42.8862398048
  - # 11
    frequency:    43.7792229535
  - # 12
    frequency:    43.8990409497

- q-position: [   -0.1111111,    0.1111111,    0.3750000 ]
  weight: 4    
  band:
  - # 1
    frequency:     3.8006388562
  - # 2
    frequency:     4.3359483803
  - # 3
    frequency:     6.0662404579
  - # 4
    frequency:     6.1190084214
  - # 5
    frequency:    11.5600412855
  - # 6
    frequency:    11.6230984184
  - # 7
    frequency:    25.2168212189
  - # 8
    frequency:    25.6563465638
  - # 9
    frequency:    42.9117202212
  - # 10
    frequency:    42.9698608468
  - # 11
    frequency:    43.4155209987
  - # 12
    frequency:    43.5884736613

- q-position: [    0.2222222,    0.2222222,    0.3750000 ]
  weight: 4    
  band:
  - # 1
    frequency:    13.0110666021
  - # 2
    frequency:    13.1215139865
  - # 3
    frequency:    19.8821165041
  - # 4
    frequency:    19.9804656362
  - # 5
    frequency:    21.6070093481
  - # 6
    frequency:    21.6642684935
  - # 7
    frequency:    32.0059099940
  - # 8
    frequency:    32.0397864925
  - # 9
    frequency:    42.8058553687
  - # 10
    frequency:    42.8207925212
  - # 11
    frequency:    43.2124542490
  - # 12
    frequency:    43.2703228624

- q-position: [    0.3333333,    0.2222222,    0.3750000 ]
  weight: 8    
  band:
  - # 1
    frequency:    15.0544616669
  - # 2
    frequency:    15.1418831578
  - # 3
    frequency:    17.8677003552
  - # 4
    frequency:    17.8870516706
  - # 5
    frequency:    25.5323064984
  - # 6
    frequency:    25.5768438066
  - # 7
    frequency:    36.1471628966
  - # 8
    frequency:    36.1665851249
  - # 9
    frequency:    40.1805507336
  - # 10
    frequency:    40.1859768403
  - # 11
    frequency:    43.5602758976
  - # 12
    frequency:    43.5832053189

- q-position: [   -0.5555556,    0.2222222,    0.3750000 ]
  weight: 8    
  band:
  - # 1
    frequency:    14.2997082616
  - # 2
    frequency:    14.4775472436
  - # 3
    frequency:    18.4325191700
  - # 4
    frequency:    18.4844649860
  - # 5
    frequency:    25.7553399745
  - # 6
    frequency:    25.7941311767
  - # 7
    frequency:    36.3261504102
  - # 8
    frequency:    36.3491323797
  - # 9
    frequency:    39.9461756786
  - # 10
    frequency:    39.9507842095
  - # 11
    frequency:    43.4958823775
  - # 12
    frequency:    43.5042659467

- q-position: [   -0.4444444,    0.2222222,    0.3750000 ]
  weight: 8    
  band:
  - # 1
    frequency:    11.9096029200
  - # 2
    frequency:    12.1829613362
  - # 3
    frequency:    20.4954961575
  - # 4
    frequency:    20.6561359648
  - # 5
    frequency:    22.0913907515
  - # 6
    frequency:    22.1225316988
  - # 7
    frequency:    32.2173152085
  - # 8
    frequency:    32.2595063942
  - # 9
    frequency:    42.5535732494
  - # 10
    frequency:    42.5930553295
  - # 11
    frequency:    43.0494128214
  - # 12
    frequency:    43.0712879014

- q-position: [   -0.3333333,    0.2222222,    0.3750000 ]
  weight: 8    
  band:
  - # 1
    frequency:     9.3028486884
  - # 2
    frequency:     9.6815949065
  - # 3
    frequency:    16.2794411257
  - # 4
    frequency:    16.3040746793
  - # 5
    frequency:    22.4410221946
  - # 6
    frequency:    22.7221229216
  - # 7
    frequency:    27.5853200034
  - # 8
    frequency:    27.6415062315
  - # 9
    frequency:    42.6437656622
  - # 10
    frequency:    42.6806965377
  - # 11
    frequency:    43.7892204310
  - # 12
    frequency:    43.8730895357

- q-position: [   -0.2222222,    0.2222222,    0.3750000 ]
  weight: 4    
  band:
  - # 1
    frequency:     7.0465424564
  - # 2
    frequency:     7.5250144539
  - # 3
    frequency:    11.7415098367
  - # 4
    frequency:    11.7675185680
  - # 5
    frequency:    22.3856520436
  - # 6
    frequency:    22.4495070158
  - # 7
    frequency:    23.7898919684
  - # 8
    frequency:    24.1512302949
  - # 9
    frequency:    42.6285557385
  - # 10
    frequency:    42.6756991711
  - # 11
    frequency:    43.9314549752
  - # 12
    frequency:    44.0549326137

- q-position: [   -0.6666667,    0.3333333,    0.3750000 ]
  weight: 4    
  band:
  - # 1
    frequency:    15.9832069020
  - # 2
    frequency:    16.0685853529
  - # 3
    frequency:    16.8198506818
  - # 4
    frequency:    16.8743479116
  - # 5
    frequency:    29.1977848684
  - # 6
    frequency:    29.2232588790
  - # 7
    frequency:    37.2244418910
  - # 8
    frequency:    37.2314349168
  - # 9
    frequency:    37.3892342785
  - # 10
    frequency:    37.4109169679
  - # 11
    frequency:    43.9414163950
  - # 12
    frequency:    43.9500742240

- q-position: [   -0.5555556,    0.3333333,    0.3750000 ]
  weight: 8    
  band:
  - # 1
    frequency:    14.2977067196
  - # 2
    frequency:    14.4509241815
  - # 3
    frequency:    18.4575669652
  - # 4
    frequency:    18.4982172451
  - # 5
    frequency:    25.8369233973
  - # 6
    frequency:    25.8483213750
  - # 7
    frequency:    36.2393900064
  - # 8
    frequency:    36.2748333184
  - # 9
    frequency:    39.9642513039
  - # 10
    frequency:    39.9734030830
  - # 11
    frequency:    43.4945730870
  - # 12
    frequency:    43.4992668001

- q-position: [   -0.4444444,    0.3333333,    0.3750000 ]
  weight: 8    
  band:
  - # 1
    frequency:    12.4041162063
  - # 2
    frequency:    12.6305732783
  - # 3
    frequency:    19.9499314119
  - # 4
    frequency:    19.9600735928
  - # 5
    frequency:    20.1668408513
  - # 6
    frequency:    20.3104868373
  - # 7
    frequency:    34.6098560818
  - # 8
    frequency:    34.6599620275
  - # 9
    frequency:    42.1793227769
  - # 10
    frequency:    42.2045497419
  - # 11
    frequency:    42.9907538051
  - # 12
    frequency:    43.0170468196

- q-position: [   -0.3333333,    0.3333333,    0.3750000 ]
  weight: 4    
  band:
  - # 1
    frequency:    10.5034349798
  - # 2
    frequency:    10.8222752712
  - # 3
    frequency:    16.0890667106
  - # 4
    frequency:    16.1023461423
  - # 5
    frequency:    21.6328749895
  - # 6
    frequency:    21.8695640903
  - # 7
    frequency:    31.3576736937
  - # 8
    frequency:    31.4171525164
  - # 9
    frequency:    42.2352022939
  - # 10
    frequency:    42.2659724050
  - # 11
    frequency:    43.7905848837
  - # 12
    frequency:    43.8537627302

- q-position: [   -0.5555556,    0.4444444,    0.3750000 ]
  weight: 4    
  band:
  - # 1
    frequency:    14.3169356740
  - # 2
    frequency:    14.4189152515
  - # 3
    frequency:    18.6038534453
  - # 4
    frequency:    18.6262845510
  - # 5
    frequency:    21.2690176232
  - # 6
    frequency:    21.2712736928
  - # 7
    frequency:    39.4417295221
  - # 8
    frequency:    39.4556415519
  - # 9
    frequency:    39.7396008435
  - # 10
    frequency:    39.7617050430
  - # 11
    frequency:    42.6544979720
  - # 12
    frequency:    42.6559860817

- q-position: [   -0.4444444,    0.4444444,    0.3750000 ]
  weight: 4    
  band:
  - # 1
    frequency:    13.5390931923
  - # 2
    frequency:    13.6781186644
  - # 3
    frequency:    18.5014427712
  - # 4
    frequency:    18.5053449840
  - # 5
    frequency:    19.3230092995
  - # 6
    frequency:    19.4050817045
  - # 7
    frequency:    37.9569653732
  - # 8
    frequency:    37.9959330244
  - # 9
    frequency:    41.9282236973
  - # 10
    frequency:    41.9400140731
  - # 11
    frequency:    42.0444361438
  - # 12
    frequency:    42.0633808739

