# Thermal properties / unit cell (natom)

unit:
  temperature:   K
  free_energy:   kJ/mol
  entropy:       J/K/mol
  heat_capacity: J/K/mol

natom:     4
num_modes: 3888
num_integrated_modes: 3874

zero_point_energy:      66.0231360
high_T_entropy:        229.6469302

thermal_properties:
- temperature:         0.0000000
  free_energy:        66.0231360
  entropy:             0.0000000
  heat_capacity:       0.0000000
  energy:             66.0231360

- temperature:        10.0000000
  free_energy:        66.0231082
  entropy:             0.0129036
  heat_capacity:       0.0391325
  energy:             66.0232373

- temperature:        20.0000000
  free_energy:        66.0227317
  entropy:             0.0660312
  heat_capacity:       0.1249422
  energy:             66.0240523

- temperature:        30.0000000
  free_energy:        66.0217268
  entropy:             0.1388322
  heat_capacity:       0.2578539
  energy:             66.0258918

- temperature:        40.0000000
  free_energy:        66.0198478
  entropy:             0.2436965
  heat_capacity:       0.5045437
  energy:             66.0295957

- temperature:        50.0000000
  free_energy:        66.0166991
  entropy:             0.3944638
  heat_capacity:       0.8826191
  energy:             66.0364222

- temperature:        60.0000000
  free_energy:        66.0117811
  entropy:             0.5983449
  heat_capacity:       1.3910022
  energy:             66.0476818

- temperature:        70.0000000
  free_energy:        66.0045424
  entropy:             0.8591186
  heat_capacity:       2.0309379
  energy:             66.0646807

- temperature:        80.0000000
  free_energy:        65.9944006
  entropy:             1.1793254
  heat_capacity:       2.8045390
  energy:             66.0887466

- temperature:        90.0000000
  free_energy:        65.9807520
  entropy:             1.5606715
  heat_capacity:       3.7102495
  energy:             66.1212124

- temperature:       100.0000000
  free_energy:        65.9629807
  entropy:             2.0038989
  heat_capacity:       4.7415315
  energy:             66.1633706

- temperature:       110.0000000
  free_energy:        65.9404686
  entropy:             2.5087037
  heat_capacity:       5.8876148
  energy:             66.2164261

- temperature:       120.0000000
  free_energy:        65.9126056
  entropy:             3.0737880
  heat_capacity:       7.1348268
  energy:             66.2814602

- temperature:       130.0000000
  free_energy:        65.8787991
  entropy:             3.6969987
  heat_capacity:       8.4679165
  energy:             66.3594089

- temperature:       140.0000000
  free_energy:        65.8384813
  entropy:             4.3755087
  heat_capacity:       9.8712158
  energy:             66.4510525

- temperature:       150.0000000
  free_energy:        65.7911156
  entropy:             5.1060072
  heat_capacity:      11.3295837
  energy:             66.5570166

- temperature:       160.0000000
  free_energy:        65.7361999
  entropy:             5.8848830
  heat_capacity:      12.8290996
  energy:             66.6777811

- temperature:       170.0000000
  free_energy:        65.6732691
  entropy:             6.7083855
  heat_capacity:      14.3574954
  energy:             66.8136947

- temperature:       180.0000000
  free_energy:        65.6018959
  entropy:             7.5727580
  heat_capacity:      15.9043504
  energy:             66.9649924

- temperature:       190.0000000
  free_energy:        65.5216900
  entropy:             8.4743394
  heat_capacity:      17.4610921
  energy:             67.1318145

- temperature:       200.0000000
  free_energy:        65.4322968
  entropy:             9.4096368
  heat_capacity:      19.0208621
  energy:             67.3142241

- temperature:       210.0000000
  free_energy:        65.3333958
  entropy:            10.3753713
  heat_capacity:      20.5782999
  energy:             67.5122238

- temperature:       220.0000000
  free_energy:        65.2246981
  entropy:            11.3685022
  heat_capacity:      22.1292910
  energy:             67.7257685

- temperature:       230.0000000
  free_energy:        65.1059438
  entropy:            12.3862341
  heat_capacity:      23.6707146
  energy:             67.9547776

- temperature:       240.0000000
  free_energy:        64.9768999
  entropy:            13.4260129
  heat_capacity:      25.2002112
  energy:             68.1991430

- temperature:       250.0000000
  free_energy:        64.8373578
  entropy:            14.4855130
  heat_capacity:      26.7159827
  energy:             68.4587361

- temperature:       260.0000000
  free_energy:        64.6871310
  entropy:            15.5626202
  heat_capacity:      28.2166304
  energy:             68.7334122

- temperature:       270.0000000
  free_energy:        64.5260531
  entropy:            16.6554124
  heat_capacity:      29.7010285
  energy:             69.0230145

- temperature:       280.0000000
  free_energy:        64.3539763
  entropy:            17.7621399
  heat_capacity:      31.1682313
  energy:             69.3273755

- temperature:       290.0000000
  free_energy:        64.1707692
  entropy:            18.8812061
  heat_capacity:      32.6174079
  energy:             69.6463190

- temperature:       300.0000000
  free_energy:        63.9763159
  entropy:            20.0111502
  heat_capacity:      34.0477993
  energy:             69.9796610

- temperature:       310.0000000
  free_energy:        63.7705144
  entropy:            21.1506308
  heat_capacity:      35.4586931
  energy:             70.3272100

- temperature:       320.0000000
  free_energy:        63.5532757
  entropy:            22.2984123
  heat_capacity:      36.8494103
  energy:             70.6887676

- temperature:       330.0000000
  free_energy:        63.3245223
  entropy:            23.4533528
  heat_capacity:      38.2193011
  energy:             71.0641288

- temperature:       340.0000000
  free_energy:        63.0841883
  entropy:            24.6143937
  heat_capacity:      39.5677457
  energy:             71.4530821

- temperature:       350.0000000
  free_energy:        62.8322174
  entropy:            25.7805509
  heat_capacity:      40.8941596
  energy:             71.8554103

- temperature:       360.0000000
  free_energy:        62.5685633
  entropy:            26.9509078
  heat_capacity:      42.1979989
  energy:             72.2708901

- temperature:       370.0000000
  free_energy:        62.2931881
  entropy:            28.1246086
  heat_capacity:      43.4787669
  energy:             72.6992933

- temperature:       380.0000000
  free_energy:        62.0060626
  entropy:            29.3008537
  heat_capacity:      44.7360198
  energy:             73.1403870

- temperature:       390.0000000
  free_energy:        61.7071651
  entropy:            30.4788948
  heat_capacity:      45.9693718
  energy:             73.5939340

- temperature:       400.0000000
  free_energy:        61.3964811
  entropy:            31.6580316
  heat_capacity:      47.1784981
  energy:             74.0596937

- temperature:       410.0000000
  free_energy:        61.0740030
  entropy:            32.8376083
  heat_capacity:      48.3631375
  energy:             74.5374224

- temperature:       420.0000000
  free_energy:        60.7397295
  entropy:            34.0170111
  heat_capacity:      49.5230934
  energy:             75.0268742

- temperature:       430.0000000
  free_energy:        60.3936653
  entropy:            35.1956657
  heat_capacity:      50.6582332
  energy:             75.5278015

- temperature:       440.0000000
  free_energy:        60.0358205
  entropy:            36.3730350
  heat_capacity:      51.7684875
  energy:             76.0399559

- temperature:       450.0000000
  free_energy:        59.6662105
  entropy:            37.5486172
  heat_capacity:      52.8538475
  energy:             76.5630883

- temperature:       460.0000000
  free_energy:        59.2848556
  entropy:            38.7219442
  heat_capacity:      53.9143627
  energy:             77.0969500

- temperature:       470.0000000
  free_energy:        58.8917806
  entropy:            39.8925797
  heat_capacity:      54.9501371
  energy:             77.6412931

- temperature:       480.0000000
  free_energy:        58.4870144
  entropy:            41.0601175
  heat_capacity:      55.9613257
  energy:             78.1958708

- temperature:       490.0000000
  free_energy:        58.0705898
  entropy:            42.2241805
  heat_capacity:      56.9481302
  energy:             78.7604383

- temperature:       500.0000000
  free_energy:        57.6425435
  entropy:            43.3844188
  heat_capacity:      57.9107953
  energy:             79.3347529

- temperature:       510.0000000
  free_energy:        57.2029153
  entropy:            44.5405086
  heat_capacity:      58.8496043
  energy:             79.9185747

- temperature:       520.0000000
  free_energy:        56.7517482
  entropy:            45.6921507
  heat_capacity:      59.7648750
  energy:             80.5116665

- temperature:       530.0000000
  free_energy:        56.2890880
  entropy:            46.8390695
  heat_capacity:      60.6569554
  energy:             81.1137949

- temperature:       540.0000000
  free_energy:        55.8149834
  entropy:            47.9810115
  heat_capacity:      61.5262203
  energy:             81.7247296

- temperature:       550.0000000
  free_energy:        55.3294852
  entropy:            49.1177443
  heat_capacity:      62.3730673
  energy:             82.3442445

- temperature:       560.0000000
  free_energy:        54.8326466
  entropy:            50.2490554
  heat_capacity:      63.1979132
  energy:             82.9721176

- temperature:       570.0000000
  free_energy:        54.3245228
  entropy:            51.3747511
  heat_capacity:      64.0011909
  energy:             83.6081309

- temperature:       580.0000000
  free_energy:        53.8051709
  entropy:            52.4946554
  heat_capacity:      64.7833463
  energy:             84.2520710

- temperature:       590.0000000
  free_energy:        53.2746495
  entropy:            53.6086092
  heat_capacity:      65.5448356
  energy:             84.9037289

- temperature:       600.0000000
  free_energy:        52.7330190
  entropy:            54.7164690
  heat_capacity:      66.2861225
  energy:             85.5629004

- temperature:       610.0000000
  free_energy:        52.1803409
  entropy:            55.8181061
  heat_capacity:      67.0076762
  energy:             86.2293856

- temperature:       620.0000000
  free_energy:        51.6166780
  entropy:            56.9134060
  heat_capacity:      67.7099690
  energy:             86.9029897

- temperature:       630.0000000
  free_energy:        51.0420942
  entropy:            58.0022669
  heat_capacity:      68.3934744
  energy:             87.5835224

- temperature:       640.0000000
  free_energy:        50.4566544
  entropy:            59.0845996
  heat_capacity:      69.0586656
  energy:             88.2707981

- temperature:       650.0000000
  free_energy:        49.8604242
  entropy:            60.1603261
  heat_capacity:      69.7060139
  energy:             88.9646362

- temperature:       660.0000000
  free_energy:        49.2534701
  entropy:            61.2293793
  heat_capacity:      70.3359874
  energy:             89.6648605

- temperature:       670.0000000
  free_energy:        48.6358591
  entropy:            62.2917022
  heat_capacity:      70.9490497
  energy:             90.3712996

- temperature:       680.0000000
  free_energy:        48.0076587
  entropy:            63.3472470
  heat_capacity:      71.5456591
  energy:             91.0837867

- temperature:       690.0000000
  free_energy:        47.3689369
  entropy:            64.3959747
  heat_capacity:      72.1262676
  energy:             91.8021594

- temperature:       700.0000000
  free_energy:        46.7197620
  entropy:            65.4378545
  heat_capacity:      72.6913201
  energy:             92.5262602

- temperature:       710.0000000
  free_energy:        46.0602027
  entropy:            66.4728630
  heat_capacity:      73.2412539
  energy:             93.2559354

- temperature:       720.0000000
  free_energy:        45.3903277
  entropy:            67.5009841
  heat_capacity:      73.7764982
  energy:             93.9910363

- temperature:       730.0000000
  free_energy:        44.7102060
  entropy:            68.5222080
  heat_capacity:      74.2974733
  energy:             94.7314178

- temperature:       740.0000000
  free_energy:        44.0199066
  entropy:            69.5365311
  heat_capacity:      74.8045909
  energy:             95.4769395

- temperature:       750.0000000
  free_energy:        43.3194984
  entropy:            70.5439552
  heat_capacity:      75.2982532
  energy:             96.2274648

- temperature:       760.0000000
  free_energy:        42.6090504
  entropy:            71.5444877
  heat_capacity:      75.7788532
  energy:             96.9828611

- temperature:       770.0000000
  free_energy:        41.8886316
  entropy:            72.5381403
  heat_capacity:      76.2467740
  energy:             97.7429996

- temperature:       780.0000000
  free_energy:        41.1583105
  entropy:            73.5249295
  heat_capacity:      76.7023892
  energy:             98.5077555

- temperature:       790.0000000
  free_energy:        40.4181558
  entropy:            74.5048757
  heat_capacity:      77.1460629
  energy:             99.2770076

- temperature:       800.0000000
  free_energy:        39.6682357
  entropy:            75.4780031
  heat_capacity:      77.5781492
  energy:            100.0506382

- temperature:       810.0000000
  free_energy:        38.9086184
  entropy:            76.4443392
  heat_capacity:      77.9989925
  energy:            100.8285331

- temperature:       820.0000000
  free_energy:        38.1393715
  entropy:            77.4039149
  heat_capacity:      78.4089279
  energy:            101.6105817

- temperature:       830.0000000
  free_energy:        37.3605625
  entropy:            78.3567637
  heat_capacity:      78.8082807
  energy:            102.3966764

- temperature:       840.0000000
  free_energy:        36.5722585
  entropy:            79.3029221
  heat_capacity:      79.1973669
  energy:            103.1867130

- temperature:       850.0000000
  free_energy:        35.7745262
  entropy:            80.2424286
  heat_capacity:      79.5764932
  energy:            103.9805905

- temperature:       860.0000000
  free_energy:        34.9674320
  entropy:            81.1753241
  heat_capacity:      79.9459574
  energy:            104.7782107

- temperature:       870.0000000
  free_energy:        34.1510416
  entropy:            82.1016515
  heat_capacity:      80.3060479
  energy:            105.5794784

- temperature:       880.0000000
  free_energy:        33.3254207
  entropy:            83.0214553
  heat_capacity:      80.6570449
  energy:            106.3843014

- temperature:       890.0000000
  free_energy:        32.4906341
  entropy:            83.9347818
  heat_capacity:      80.9992196
  energy:            107.1925899

- temperature:       900.0000000
  free_energy:        31.6467465
  entropy:            84.8416786
  heat_capacity:      81.3328350
  energy:            108.0042572

- temperature:       910.0000000
  free_energy:        30.7938218
  entropy:            85.7421946
  heat_capacity:      81.6581459
  energy:            108.8192189

- temperature:       920.0000000
  free_energy:        29.9319237
  entropy:            86.6363800
  heat_capacity:      81.9753990
  energy:            109.6373933

- temperature:       930.0000000
  free_energy:        29.0611151
  entropy:            87.5242857
  heat_capacity:      82.2848334
  energy:            110.4587009

- temperature:       940.0000000
  free_energy:        28.1814587
  entropy:            88.4059638
  heat_capacity:      82.5866806
  energy:            111.2830647

- temperature:       950.0000000
  free_energy:        27.2930164
  entropy:            89.2814668
  heat_capacity:      82.8811647
  energy:            112.1104099

- temperature:       960.0000000
  free_energy:        26.3958498
  entropy:            90.1508483
  heat_capacity:      83.1685026
  energy:            112.9406641

- temperature:       970.0000000
  free_energy:        25.4900197
  entropy:            91.0141620
  heat_capacity:      83.4489044
  energy:            113.7737569

- temperature:       980.0000000
  free_energy:        24.5755866
  entropy:            91.8714624
  heat_capacity:      83.7225734
  energy:            114.6096198

- temperature:       990.0000000
  free_energy:        23.6526103
  entropy:            92.7228043
  heat_capacity:      83.9897062
  energy:            115.4481865

- temperature:      1000.0000000
  free_energy:        22.7211502
  entropy:            93.5682426
  heat_capacity:      84.2504934
  energy:            116.2893927
