  32  32   0   0
  0.8119452E+01  0.4932875E-09  0.4932875E-09  0.1233506E-08  0.5000000E-15
  1.000000000000000E-004
  CAR 
 graphite                                
     17.30115984    -16.29862914  301      5.42835941      1.00000000
    -16.299  0.0000E+00  0.0000E+00
    -16.187  0.0000E+00  0.0000E+00
    -16.075  0.0000E+00  0.0000E+00
    -15.963  0.0000E+00  0.0000E+00
    -15.851  0.0000E+00  0.0000E+00
    -15.739  0.0000E+00  0.0000E+00
    -15.627  0.0000E+00  0.0000E+00
    -15.515  0.0000E+00  0.0000E+00
    -15.403  0.0000E+00  0.0000E+00
    -15.291  0.0000E+00  0.0000E+00
    -15.179  0.0000E+00  0.0000E+00
    -15.067  0.0000E+00  0.0000E+00
    -14.955  0.0000E+00  0.0000E+00
    -14.843  0.0000E+00  0.0000E+00
    -14.731  0.0000E+00  0.0000E+00
    -14.619  0.0000E+00  0.0000E+00
    -14.507  0.0000E+00  0.0000E+00
    -14.395  0.0000E+00  0.0000E+00
    -14.283  0.9034E-01  0.4814E-03
    -14.171  0.1427E+01  0.1039E+00
    -14.059  0.2245E+01  0.3092E+00
    -13.947  0.2795E+01  0.5912E+00
    -13.835  0.3541E+01  0.9440E+00
    -13.723  0.4761E+01  0.1399E+01
    -13.611  0.4896E+01  0.1948E+01
    -13.499  0.4906E+01  0.2500E+01
    -13.387  0.4980E+01  0.3052E+01
    -13.275  0.4966E+01  0.3610E+01
    -13.163  0.4927E+01  0.4161E+01
    -13.051  0.5371E+01  0.4734E+01
    -12.939  0.5559E+01  0.5347E+01
    -12.827  0.6236E+01  0.6014E+01
    -12.715  0.5589E+01  0.6696E+01
    -12.603  0.4809E+01  0.7263E+01
    -12.491  0.2631E+01  0.7632E+01
    -12.379  0.3754E+01  0.8009E+01
    -12.267  0.3482E+01  0.8403E+01
    -12.155  0.5687E+01  0.9066E+01
    -12.043  0.5231E+01  0.9664E+01
    -11.931  0.5252E+01  0.1024E+02
    -11.819  0.5507E+01  0.1087E+02
    -11.707  0.4854E+01  0.1143E+02
    -11.595  0.5253E+01  0.1200E+02
    -11.483  0.5032E+01  0.1257E+02
    -11.371  0.4986E+01  0.1313E+02
    -11.259  0.5083E+01  0.1369E+02
    -11.147  0.5397E+01  0.1428E+02
    -11.035  0.5068E+01  0.1489E+02
    -10.923  0.5015E+01  0.1545E+02
    -10.811  0.5106E+01  0.1601E+02
    -10.699  0.5209E+01  0.1659E+02
    -10.587  0.5282E+01  0.1718E+02
    -10.475  0.5346E+01  0.1777E+02
    -10.363  0.5580E+01  0.1838E+02
    -10.251  0.5733E+01  0.1902E+02
    -10.139  0.5933E+01  0.1967E+02
    -10.027  0.6139E+01  0.2035E+02
     -9.915  0.6059E+01  0.2104E+02
     -9.803  0.5102E+01  0.2167E+02
     -9.691  0.4105E+01  0.2218E+02
     -9.579  0.4155E+01  0.2263E+02
     -9.467  0.4921E+01  0.2314E+02
     -9.355  0.5357E+01  0.2372E+02
     -9.243  0.5600E+01  0.2434E+02
     -9.131  0.6314E+01  0.2499E+02
     -9.019  0.6980E+01  0.2573E+02
     -8.907  0.8385E+01  0.2658E+02
     -8.795  0.8984E+01  0.2760E+02
     -8.683  0.6054E+01  0.2849E+02
     -8.571  0.4889E+01  0.2910E+02
     -8.459  0.4194E+01  0.2965E+02
     -8.347  0.3251E+01  0.3004E+02
     -8.235  0.2853E+01  0.3038E+02
     -8.123  0.2558E+01  0.3068E+02
     -8.011  0.2756E+01  0.3100E+02
     -7.899  0.2285E+01  0.3127E+02
     -7.787  0.1868E+01  0.3151E+02
     -7.675  0.2123E+01  0.3172E+02
     -7.563  0.4593E+01  0.3203E+02
     -7.451  0.5966E+01  0.3270E+02
     -7.339  0.4225E+01  0.3322E+02
     -7.227  0.4142E+01  0.3369E+02
     -7.115  0.6020E+01  0.3425E+02
     -7.003  0.6543E+01  0.3492E+02
     -6.891  0.6756E+01  0.3572E+02
     -6.779  0.7960E+01  0.3655E+02
     -6.667  0.8099E+01  0.3748E+02
     -6.555  0.7278E+01  0.3835E+02
     -6.443  0.6093E+01  0.3907E+02
     -6.331  0.5797E+01  0.3974E+02
     -6.219  0.5565E+01  0.4037E+02
     -6.107  0.5365E+01  0.4099E+02
     -5.995  0.5178E+01  0.4158E+02
     -5.883  0.4988E+01  0.4215E+02
     -5.771  0.4863E+01  0.4270E+02
     -5.659  0.4828E+01  0.4324E+02
     -5.547  0.4765E+01  0.4378E+02
     -5.435  0.4619E+01  0.4430E+02
     -5.323  0.4515E+01  0.4481E+02
     -5.211  0.3695E+01  0.4528E+02
     -5.099  0.3857E+01  0.4569E+02
     -4.987  0.4531E+01  0.4616E+02
     -4.875  0.5258E+01  0.4671E+02
     -4.763  0.6010E+01  0.4734E+02
     -4.651  0.8154E+01  0.4811E+02
     -4.539  0.9265E+01  0.4909E+02
     -4.427  0.8279E+01  0.5014E+02
     -4.315  0.5492E+01  0.5092E+02
     -4.203  0.2867E+01  0.5138E+02
     -4.091  0.2407E+01  0.5165E+02
     -3.979  0.3431E+01  0.5197E+02
     -3.867  0.4913E+01  0.5243E+02
     -3.755  0.6714E+01  0.5308E+02
     -3.643  0.7918E+01  0.5392E+02
     -3.531  0.7726E+01  0.5481E+02
     -3.419  0.6266E+01  0.5559E+02
     -3.307  0.5880E+01  0.5627E+02
     -3.195  0.8580E+01  0.5708E+02
     -3.083  0.8210E+01  0.5802E+02
     -2.971  0.7852E+01  0.5892E+02
     -2.859  0.7606E+01  0.5978E+02
     -2.747  0.7409E+01  0.6063E+02
     -2.635  0.7786E+01  0.6158E+02
     -2.523  0.9169E+01  0.6257E+02
     -2.411  0.9085E+01  0.6363E+02
     -2.299  0.7603E+01  0.6457E+02
     -2.187  0.7259E+01  0.6537E+02
     -2.075  0.8370E+01  0.6624E+02
     -1.963  0.1027E+02  0.6728E+02
     -1.851  0.1109E+02  0.6848E+02
     -1.739  0.1231E+02  0.6980E+02
     -1.627  0.9878E+01  0.7105E+02
     -1.515  0.1159E+02  0.7224E+02
     -1.403  0.1312E+02  0.7362E+02
     -1.291  0.1425E+02  0.7518E+02
     -1.179  0.1291E+02  0.7673E+02
     -1.067  0.1524E+02  0.7822E+02
     -0.955  0.1033E+02  0.7968E+02
     -0.843  0.1899E+02  0.8126E+02
     -0.731  0.1776E+02  0.8338E+02
     -0.619  0.1470E+02  0.8523E+02
     -0.507  0.1369E+02  0.8682E+02
     -0.395  0.1174E+02  0.8826E+02
     -0.283  0.9827E+01  0.8946E+02
     -0.171  0.9915E+01  0.9055E+02
     -0.059  0.1027E+02  0.9167E+02
      0.053  0.1314E+02  0.9296E+02
      0.165  0.1493E+02  0.9446E+02
      0.277  0.9820E+01  0.9591E+02
      0.389  0.9119E+01  0.9695E+02
      0.501  0.9189E+01  0.9793E+02
      0.613  0.1006E+02  0.9901E+02
      0.725  0.1098E+02  0.1002E+03
      0.837  0.1089E+02  0.1015E+03
      0.949  0.1048E+02  0.1027E+03
      1.061  0.9368E+01  0.1038E+03
      1.173  0.9254E+01  0.1048E+03
      1.285  0.9357E+01  0.1058E+03
      1.397  0.9426E+01  0.1069E+03
      1.509  0.9113E+01  0.1079E+03
      1.621  0.9883E+01  0.1090E+03
      1.733  0.9864E+01  0.1101E+03
      1.845  0.9554E+01  0.1112E+03
      1.957  0.8944E+01  0.1122E+03
      2.069  0.8602E+01  0.1132E+03
      2.181  0.9219E+01  0.1142E+03
      2.293  0.9456E+01  0.1152E+03
      2.405  0.8411E+01  0.1163E+03
      2.517  0.6084E+01  0.1171E+03
      2.629  0.6999E+01  0.1178E+03
      2.741  0.6717E+01  0.1186E+03
      2.853  0.3483E+01  0.1192E+03
      2.965  0.3156E+01  0.1196E+03
      3.077  0.6634E+01  0.1201E+03
      3.189  0.8545E+01  0.1209E+03
      3.301  0.8280E+01  0.1219E+03
      3.413  0.5220E+01  0.1226E+03
      3.525  0.5723E+01  0.1232E+03
      3.637  0.5296E+01  0.1238E+03
      3.749  0.5975E+01  0.1244E+03
      3.861  0.5431E+01  0.1251E+03
      3.973  0.3925E+01  0.1256E+03
      4.085  0.3230E+01  0.1260E+03
      4.197  0.2873E+01  0.1264E+03
      4.309  0.2522E+01  0.1267E+03
      4.421  0.2136E+01  0.1269E+03
      4.533  0.1777E+01  0.1271E+03
      4.645  0.1581E+01  0.1273E+03
      4.757  0.1370E+01  0.1275E+03
      4.869  0.1182E+01  0.1276E+03
      4.981  0.1020E+01  0.1277E+03
      5.093  0.8885E+00  0.1279E+03
      5.205  0.5714E+00  0.1279E+03
      5.317  0.2592E+00  0.1280E+03
      5.429  0.0000E+00  0.1280E+03
      5.541  0.1264E+00  0.1280E+03
      5.653  0.2860E+00  0.1280E+03
      5.765  0.4533E+00  0.1281E+03
      5.877  0.6286E+00  0.1281E+03
      5.989  0.8168E+00  0.1282E+03
      6.101  0.9830E+00  0.1283E+03
      6.213  0.1192E+01  0.1284E+03
      6.325  0.1455E+01  0.1286E+03
      6.437  0.1716E+01  0.1288E+03
      6.549  0.2032E+01  0.1290E+03
      6.661  0.2578E+01  0.1292E+03
      6.773  0.3860E+01  0.1296E+03
      6.885  0.4842E+01  0.1301E+03
      6.997  0.8567E+01  0.1308E+03
      7.109  0.9016E+01  0.1320E+03
      7.221  0.7479E+01  0.1330E+03
      7.333  0.7186E+01  0.1338E+03
      7.445  0.6927E+01  0.1346E+03
      7.557  0.7104E+01  0.1353E+03
      7.669  0.5641E+01  0.1361E+03
      7.781  0.4691E+01  0.1367E+03
      7.893  0.4115E+01  0.1372E+03
      8.005  0.4051E+01  0.1376E+03
      8.117  0.3549E+01  0.1380E+03
      8.229  0.3629E+01  0.1384E+03
      8.341  0.3954E+01  0.1389E+03
      8.453  0.4404E+01  0.1393E+03
      8.565  0.4795E+01  0.1398E+03
      8.677  0.4977E+01  0.1404E+03
      8.789  0.4846E+01  0.1410E+03
      8.901  0.4415E+01  0.1415E+03
      9.013  0.4087E+01  0.1419E+03
      9.125  0.4011E+01  0.1424E+03
      9.237  0.3892E+01  0.1428E+03
      9.349  0.3698E+01  0.1433E+03
      9.461  0.3578E+01  0.1437E+03
      9.573  0.3499E+01  0.1441E+03
      9.685  0.3380E+01  0.1445E+03
      9.797  0.3263E+01  0.1448E+03
      9.909  0.3209E+01  0.1452E+03
     10.021  0.3205E+01  0.1455E+03
     10.133  0.3062E+01  0.1459E+03
     10.245  0.2973E+01  0.1462E+03
     10.357  0.2993E+01  0.1466E+03
     10.469  0.2950E+01  0.1469E+03
     10.581  0.2938E+01  0.1472E+03
     10.693  0.3011E+01  0.1476E+03
     10.805  0.3205E+01  0.1479E+03
     10.917  0.3420E+01  0.1483E+03
     11.029  0.3459E+01  0.1487E+03
     11.141  0.3428E+01  0.1491E+03
     11.253  0.3893E+01  0.1495E+03
     11.365  0.3972E+01  0.1499E+03
     11.477  0.4026E+01  0.1504E+03
     11.589  0.3861E+01  0.1508E+03
     11.701  0.3791E+01  0.1512E+03
     11.813  0.3840E+01  0.1517E+03
     11.925  0.4006E+01  0.1521E+03
     12.037  0.4685E+01  0.1526E+03
     12.149  0.3431E+01  0.1530E+03
     12.261  0.3396E+01  0.1534E+03
     12.373  0.2399E+01  0.1538E+03
     12.485  0.2755E+01  0.1540E+03
     12.597  0.4070E+01  0.1544E+03
     12.709  0.5563E+01  0.1550E+03
     12.821  0.7708E+01  0.1558E+03
     12.933  0.9205E+01  0.1567E+03
     13.045  0.1021E+02  0.1578E+03
     13.157  0.1107E+02  0.1590E+03
     13.269  0.1209E+02  0.1603E+03
     13.381  0.1135E+02  0.1617E+03
     13.493  0.1069E+02  0.1629E+03
     13.605  0.9975E+01  0.1641E+03
     13.717  0.1013E+02  0.1652E+03
     13.829  0.9890E+01  0.1663E+03
     13.941  0.5206E+01  0.1671E+03
     14.053  0.2948E+01  0.1676E+03
     14.165  0.1412E+01  0.1678E+03
     14.277  0.4509E+00  0.1679E+03
     14.389  0.1717E+00  0.1680E+03
     14.501  0.1114E+00  0.1680E+03
     14.613  0.7417E-01  0.1680E+03
     14.725  0.5194E-01  0.1680E+03
     14.837  0.3371E-01  0.1680E+03
     14.949  0.1940E-01  0.1680E+03
     15.061  0.9018E-02  0.1680E+03
     15.173  0.2565E-02  0.1680E+03
     15.285  0.4002E-04  0.1680E+03
     15.397  0.0000E+00  0.1680E+03
     15.509  0.0000E+00  0.1680E+03
     15.621  0.0000E+00  0.1680E+03
     15.733  0.0000E+00  0.1680E+03
     15.845  0.0000E+00  0.1680E+03
     15.957  0.0000E+00  0.1680E+03
     16.069  0.0000E+00  0.1680E+03
     16.181  0.0000E+00  0.1680E+03
     16.293  0.0000E+00  0.1680E+03
     16.405  0.0000E+00  0.1680E+03
     16.517  0.0000E+00  0.1680E+03
     16.629  0.0000E+00  0.1680E+03
     16.741  0.0000E+00  0.1680E+03
     16.853  0.0000E+00  0.1680E+03
     16.965  0.0000E+00  0.1680E+03
     17.077  0.0000E+00  0.1680E+03
     17.189  0.0000E+00  0.1680E+03
     17.301  0.0000E+00  0.1680E+03
