   32   32    1    1
  0.8119452E+01  0.4932875E-09  0.4932875E-09  0.1233506E-08  0.5000000E-15
  1.000000000000000E-004
  CAR 
 graphite                                
    128    163     84
 
  0.0000000E+00  0.0000000E+00  0.0000000E+00  0.3086420E-02
    1      -14.298629
    2      -14.035815
    3      -14.035000
    4      -13.740040
    5       -8.914304
    6       -8.904846
    7       -8.901504
    8       -8.790518
    9       -8.788556
   10       -8.778407
   11       -8.776822
   12       -8.776781
   13       -8.772532
   14       -8.704584
   15       -8.690221
   16       -8.688086
   17       -7.781982
   18       -7.780224
   19       -7.779294
   20       -7.740518
   21       -7.739195
   22       -7.737101
   23       -7.736667
   24       -7.736645
   25       -7.733772
   26       -7.626142
   27       -7.625015
   28       -7.622194
   29       -3.456967
   30       -2.148738
   31       -2.146372
   32       -0.965636
   33       -0.963075
   34       -0.947540
   35       -0.906370
   36       -0.905178
   37       -0.905160
   38       -0.900929
   39       -0.888610
   40       -0.886499
   41       -0.844489
   42       -0.841621
   43       -0.826472
   44       -0.506038
   45        2.413382
   46        2.415474
   47        2.417444
   48        2.454176
   49        2.464672
   50        2.473649
   51        2.479137
   52        2.485587
   53        2.489697
   54        2.500901
   55        2.509389
   56        3.090575
   57        3.093526
   58        3.100561
   59        3.101082
   60        3.101251
   61        3.105347
   62        3.428455
   63        3.452078
   64        3.453367
   65        7.062707
   66        7.064993
   67        7.075891
   68        7.088818
   69        7.092556
   70        7.094854
   71        7.096898
   72        7.097416
   73        7.102524
   74        7.914339
   75        7.921073
   76        7.924653
   77       10.617580
   78       12.500014
   79       12.504185
   80       12.535620
   81       12.841923
   82       12.846547
   83       12.852621
   84       12.865325
 
  0.1111111E+00  0.0000000E+00  0.0000000E+00  0.6172840E-02
    1      -14.224442
    2      -13.962610
    3      -13.961799
    4      -13.668068
    5       -9.729664
    6       -9.534811
    7       -9.534067
    8       -9.324972
    9       -9.180988
   10       -9.172412
   11       -9.010443
   12       -9.009268
   13       -9.000570
   14       -8.999566
   15       -8.838454
   16       -8.827515
   17       -7.526322
   18       -7.523027
   19       -7.398373
   20       -7.396098
   21       -7.392979
   22       -7.391839
   23       -7.238051
   24       -7.233061
   25       -7.025419
   26       -6.872379
   27       -6.870586
   28       -6.701473
   29       -3.366862
   30       -2.061989
   31       -2.059627
   32       -1.195236
   33       -1.178100
   34       -1.129522
   35       -1.129296
   36       -1.113198
   37       -1.111099
   38       -1.061928
   39       -1.044885
   40       -0.890940
   41       -0.832717
   42       -0.829630
   43       -0.770316
   44       -0.424088
   45        1.781265
   46        2.154550
   47        2.181811
   48        2.186965
   49        2.214026
   50        2.280772
   51        2.282742
   52        2.297347
   53        2.321289
   54        2.327658
   55        2.352729
   56        2.674820
   57        2.677544
   58        3.038992
   59        3.041916
   60        3.048723
   61        3.049664
   62        3.485309
   63        3.541679
   64        3.562320
   65        7.084355
   66        7.093057
   67        7.221737
   68        7.225953
   69        7.227283
   70        7.232597
   71        7.259653
   72        7.632873
   73        7.638085
   74        8.052409
   75        8.060147
   76        8.552974
   77       10.701909
   78       12.545826
   79       12.837622
   80       12.871865
   81       12.884134
   82       12.886070
   83       13.190338
   84       13.210958
 
  0.2222222E+00  0.2775558E-16  0.0000000E+00  0.6172840E-02
    1      -14.002259
    2      -13.743409
    3      -13.742611
    4      -13.452670
    5      -10.750969
    6      -10.536385
    7      -10.535717
    8      -10.301483
    9       -9.536789
   10       -9.530935
   11       -9.345706
   12       -9.344884
   13       -9.339376
   14       -9.338278
   15       -9.140020
   16       -9.133315
   17       -6.857866
   18       -6.850846
   19       -6.709630
   20       -6.707450
   21       -6.701459
   22       -6.700504
   23       -6.543764
   24       -6.536317
   25       -5.696195
   26       -5.549782
   27       -5.548086
   28       -5.391600
   29       -3.097598
   30       -1.810032
   31       -1.802732
   32       -1.800383
   33       -1.793903
   34       -1.731148
   35       -1.730861
   36       -1.715760
   37       -1.713676
   38       -1.648827
   39       -1.632823
   40       -0.675129
   41       -0.618020
   42       -0.614844
   43       -0.556773
   44       -0.179641
   45        0.721349
   46        1.318624
   47        1.363147
   48        1.367700
   49        1.412387
   50        1.786896
   51        1.789219
   52        1.870414
   53        1.904790
   54        1.909843
   55        1.944849
   56        2.031917
   57        2.035727
   58        2.918142
   59        2.921087
   60        2.926191
   61        2.927200
   62        3.000335
   63        3.723334
   64        3.738414
   65        7.217310
   66        7.221466
   67        7.556685
   68        7.560262
   69        7.562351
   70        7.566976
   71        8.253869
   72        8.344705
   73        8.349333
   74        8.854351
   75        8.858696
   76        9.759786
   77       10.955983
   78       12.671612
   79       12.999475
   80       13.001234
   81       13.323725
   82       13.764799
   83       13.789176
   84       13.794805
 
  0.3333333E+00 -0.2775558E-16  0.0000000E+00  0.6172840E-02
    1      -13.633209
    2      -13.379239
    3      -13.378460
    4      -13.094808
    5      -11.670919
    6      -11.443220
    7      -11.442524
    8      -11.191767
    9       -9.796650
   10       -9.792950
   11       -9.597896
   12       -9.597052
   13       -9.593927
   14       -9.592614
   15       -9.381456
   16       -9.377431
   17       -6.044890
   18       -6.035978
   19       -5.906071
   20       -5.903787
   21       -5.896454
   22       -5.895203
   23       -5.755136
   24       -5.746399
   25       -4.252987
   26       -4.124265
   27       -4.122323
   28       -3.985934
   29       -2.651397
   30       -2.632271
   31       -2.618327
   32       -2.542497
   33       -2.541908
   34       -2.529154
   35       -2.526936
   36       -2.445984
   37       -2.431939
   38       -1.374287
   39       -1.371938
   40       -0.325225
   41       -0.321478
   42       -0.269661
   43       -0.266302
   44       -0.210152
   45        0.121604
   46        0.187316
   47        0.191001
   48        0.222882
   49        0.257342
   50        0.835546
   51        0.837751
   52        1.302183
   53        1.344688
   54        1.349375
   55        1.392714
   56        1.820430
   57        1.823505
   58        2.231518
   59        2.794562
   60        2.797661
   61        2.800732
   62        2.801839
   63        3.835759
   64        3.844922
   65        7.482618
   66        7.484879
   67        7.948818
   68        7.951334
   69        7.953528
   70        7.957666
   71        8.607410
   72        8.610278
   73        9.735692
   74       10.329680
   75       10.333546
   76       11.131143
   77       11.380005
   78       12.858514
   79       13.181063
   80       13.183037
   81       13.362543
   82       13.672970
   83       13.694177
   84       13.699435
 
  0.4444444E+00  0.5551115E-16  0.0000000E+00  0.6172840E-02
    1      -13.119193
    2      -12.872035
    3      -12.871287
    4      -12.596405
    5      -12.463424
    6      -12.224958
    7      -12.224222
    8      -11.960295
    9       -9.929946
   10       -9.927826
   11       -9.728505
   12       -9.727295
   13       -9.726290
   14       -9.724494
   15       -9.508065
   16       -9.505849
   17       -5.276514
   18       -5.269426
   19       -5.172886
   20       -5.170388
   21       -5.166142
   22       -5.163385
   23       -5.067785
   24       -5.062008
   25       -3.369701
   26       -3.362429
   27       -3.301151
   28       -3.299178
   29       -3.293178
   30       -3.290572
   31       -3.213547
   32       -3.204899
   33       -2.761260
   34       -2.652759
   35       -2.650413
   36       -2.536545
   37       -2.032952
   38       -1.277317
   39       -1.250970
   40       -1.191660
   41       -1.188984
   42       -1.096520
   43       -0.779319
   44       -0.777253
   45       -0.037469
   46       -0.035273
   47        0.142971
   48        0.195690
   49        0.199320
   50        0.252851
   51        0.701113
   52        0.749772
   53        0.754013
   54        0.774211
   55        0.803135
   56        1.456544
   57        1.705005
   58        1.707338
   59        2.720308
   60        2.723849
   61        2.724966
   62        2.726232
   63        3.878063
   64        3.881902
   65        7.723221
   66        7.726066
   67        8.217271
   68        8.218136
   69        8.219226
   70        8.223757
   71        8.734500
   72        8.737209
   73       11.377245
   74       11.862469
   75       11.866583
   76       11.967719
   77       12.539073
   78       12.677802
   79       13.005484
   80       13.188347
   81       13.233814
   82       13.239215
   83       13.416211
   84       13.432730
 
  0.0000000E+00  0.1111111E+00  0.0000000E+00  0.6172840E-02
    1      -14.224440
    2      -13.962609
    3      -13.961797
    4      -13.668066
    5       -9.729772
    6       -9.534879
    7       -9.534274
    8       -9.325163
    9       -9.180962
   10       -9.172074
   11       -9.010370
   12       -9.009267
   13       -9.000548
   14       -8.998837
   15       -8.838421
   16       -8.827064
   17       -7.526769
   18       -7.524065
   19       -7.398445
   20       -7.397845
   21       -7.393063
   22       -7.392597
   23       -7.238431
   24       -7.233895
   25       -7.024302
   26       -6.870730
   27       -6.870128
   28       -6.700462
   29       -3.366866
   30       -2.061994
   31       -2.059633
   32       -1.193906
   33       -1.178103
   34       -1.129410
   35       -1.126571
   36       -1.113417
   37       -1.111099
   38       -1.060524
   39       -1.044972
   40       -0.892175
   41       -0.832736
   42       -0.832276
   43       -0.771757
   44       -0.424096
   45        1.780373
   46        2.158055
   47        2.186955
   48        2.187102
   49        2.216152
   50        2.279855
   51        2.284330
   52        2.295808
   53        2.321289
   54        2.322579
   55        2.348886
   56        2.674556
   57        2.675715
   58        3.039397
   59        3.041913
   60        3.048773
   61        3.051922
   62        3.484143
   63        3.541711
   64        3.563338
   65        7.082512
   66        7.093045
   67        7.220835
   68        7.224393
   69        7.227242
   70        7.230649
   71        7.261610
   72        7.635513
   73        7.639264
   74        8.052156
   75        8.058028
   76        8.554826
   77       10.701898
   78       12.545134
   79       12.838437
   80       12.871147
   81       12.884005
   82       12.885166
   83       13.180096
   84       13.188697
 
  0.1111111E+00  0.1111111E+00  0.0000000E+00  0.6172840E-02
    1      -14.076134
    2      -13.816294
    3      -13.815491
    4      -13.524250
    5      -10.200520
    6      -10.197333
    7       -9.996243
    8       -9.993310
    9       -9.993282
   10       -9.989754
   11       -9.771329
   12       -9.768069
   13       -8.723580
   14       -8.601658
   15       -8.600310
   16       -8.517323
   17       -7.594084
   18       -7.556039
   19       -7.552206
   20       -7.446957
   21       -6.341579
   22       -6.338114
   23       -6.191269
   24       -6.187189
   25       -6.187168
   26       -6.184315
   27       -6.024952
   28       -6.021469
   29       -3.187035
   30       -1.888890
   31       -1.886536
   32       -1.869865
   33       -1.790957
   34       -1.788732
   35       -1.707125
   36       -1.049984
   37       -1.047279
   38       -0.985730
   39       -0.984469
   40       -0.984451
   41       -0.979995
   42       -0.918628
   43       -0.915573
   44       -0.260777
   45        1.322318
   46        1.324872
   47        1.624293
   48        1.652444
   49        1.657518
   50        1.681361
   51        1.986196
   52        2.005170
   53        2.010936
   54        2.035056
   55        2.315016
   56        2.316658
   57        2.316839
   58        2.320663
   59        2.681462
   60        3.355927
   61        3.358794
   62        3.366400
   63        3.368647
   64        3.684253
   65        7.019137
   66        7.024862
   67        7.082657
   68        7.654468
   69        7.657108
   70        7.679116
   71        8.173960
   72        8.179440
   73        8.180096
   74        8.182189
   75        9.070259
   76        9.073286
   77       10.871621
   78       12.922305
   79       12.926603
   80       13.254905
   81       13.258584
   82       13.258632
   83       13.263636
   84       13.610683
 
  0.2222222E+00  0.1111111E+00  0.0000000E+00  0.6172840E-02
    1      -13.780437
    2      -13.524502
    3      -13.523716
    4      -13.237572
    5      -11.173760
    6      -10.953141
    7      -10.952463
    8      -10.710536
    9      -10.544306
   10      -10.333010
   11      -10.332288
   12      -10.101628
   13       -8.791803
   14       -8.626971
   15       -8.626229
   16       -8.461486
   17       -7.174743
   18       -7.055132
   19       -7.051959
   20       -6.905600
   21       -5.549261
   22       -5.408368
   23       -5.407643
   24       -5.257510
   25       -4.950204
   26       -4.813745
   27       -4.812058
   28       -4.666808
   29       -2.829172
   30       -2.786321
   31       -2.693231
   32       -2.691071
   33       -2.592212
   34       -1.583396
   35       -1.544777
   36       -1.542435
   37       -1.507133
   38       -1.506868
   39       -1.427432
   40       -0.760516
   41       -0.698979
   42       -0.695882
   43       -0.632811
   44        0.062960
   45        0.252559
   46        0.659638
   47        0.705269
   48        0.710366
   49        0.753754
   50        0.972880
   51        1.367342
   52        1.369468
   53        1.434364
   54        1.465165
   55        1.471211
   56        1.505524
   57        2.028737
   58        2.030335
   59        2.684999
   60        2.799341
   61        3.232762
   62        3.557997
   63        3.560504
   64        4.055174
   65        6.983730
   66        7.028962
   67        7.034453
   68        7.602287
   69        8.187896
   70        8.748297
   71        8.751276
   72        8.941565
   73        9.513051
   74        9.544935
   75        9.548564
   76       10.366204
   77       11.212536
   78       13.084844
   79       13.407852
   80       13.409514
   81       13.679770
   82       13.888333
   83       13.924699
   84       13.958400
 
  0.3333333E+00  0.1111111E+00  0.0000000E+00  0.6172840E-02
    1      -13.338790
    2      -13.088725
    3      -13.087963
    4      -12.809307
    5      -12.030567
    6      -11.797994
    7      -11.797278
    8      -11.540554
    9      -10.754981
   10      -10.540326
   11      -10.539591
   12      -10.304968
   13       -8.942967
   14       -8.761039
   15       -8.760504
   16       -8.566712
   17       -6.414696
   18       -6.287457
   19       -6.284472
   20       -6.148111
   21       -4.737319
   22       -4.619211
   23       -4.617778
   24       -4.495257
   25       -3.725342
   26       -3.632054
   27       -3.629686
   28       -3.524640
   29       -3.489689
   30       -3.372897
   31       -3.370971
   32       -3.248210
   33       -2.296536
   34       -2.284558
   35       -2.205946
   36       -2.204933
   37       -2.118482
   38       -1.035441
   39       -1.033009
   40       -0.739177
   41       -0.600511
   42       -0.528372
   43       -0.524461
   44       -0.454676
   45       -0.342216
   46       -0.283864
   47       -0.280640
   48       -0.220518
   49        0.446198
   50        0.448321
   51        0.540663
   52        0.754272
   53        0.801258
   54        0.845297
   55        0.850610
   56        0.896885
   57        1.844744
   58        1.846482
   59        1.893358
   60        2.772824
   61        3.130208
   62        3.648188
   63        3.650323
   64        4.463619
   65        6.799726
   66        7.149412
   67        7.153511
   68        7.709618
   69        8.688577
   70        9.203110
   71        9.205486
   72        9.774869
   73       10.510454
   74       11.047512
   75       11.050865
   76       11.720920
   77       11.744563
   78       13.124259
   79       13.422530
   80       13.610752
   81       13.612541
   82       13.661385
   83       13.713517
   84       13.721434
 
  0.4444444E+00  0.1111111E+00  0.0000000E+00  0.6172840E-02
    1      -12.755869
    2      -12.752743
    3      -12.514562
    4      -12.512165
    5      -12.511224
    6      -12.508382
    7      -12.243940
    8      -12.240730
    9      -10.825950
   10      -10.610576
   11      -10.609834
   12      -10.373875
   13       -8.999308
   14       -8.814067
   15       -8.813496
   16       -8.614543
   17       -5.885234
   18       -5.798964
   19       -5.796178
   20       -5.718857
   21       -4.241280
   22       -4.219426
   23       -4.177572
   24       -4.175249
   25       -4.167993
   26       -4.164544
   27       -4.105122
   28       -4.099517
   29       -2.679951
   30       -2.638965
   31       -2.635892
   32       -2.574839
   33       -2.019123
   34       -2.014964
   35       -1.926295
   36       -1.921148
   37       -1.919292
   38       -1.919105
   39       -1.823485
   40       -1.819562
   41       -1.597244
   42       -1.594586
   43       -0.366519
   44       -0.363995
   45       -0.363129
   46       -0.359588
   47        0.186984
   48        0.192082
   49        0.241379
   50        0.241763
   51        0.243986
   52        0.251857
   53        0.298344
   54        0.304994
   55        0.680321
   56        1.157579
   57        1.160568
   58        1.781112
   59        1.782918
   60        2.751954
   61        3.091437
   62        3.671791
   63        3.673431
   64        4.642681
   65        6.716199
   66        7.217508
   67        7.220232
   68        7.763531
   69        8.911338
   70        9.380138
   71        9.382547
   72        9.842753
   73       12.130592
   74       12.134656
   75       12.388792
   76       12.391381
   77       12.531027
   78       12.536328
   79       12.537791
   80       12.540812
   81       13.107570
   82       13.112102
   83       13.614526
   84       13.618841
 
 -0.4444444E+00  0.1111111E+00  0.0000000E+00  0.6172840E-02
    1      -13.339535
    2      -13.089471
    3      -13.088704
    4      -12.810045
    5      -12.029400
    6      -11.796815
    7      -11.796106
    8      -11.539386
    9      -10.756736
   10      -10.542173
   11      -10.541436
   12      -10.306781
   13       -8.940178
   14       -8.757964
   15       -8.757373
   16       -8.563133
   17       -6.408381
   18       -6.280046
   19       -6.278925
   20       -6.141744
   21       -4.747265
   22       -4.629602
   23       -4.626544
   24       -4.504279
   25       -3.735615
   26       -3.641827
   27       -3.641238
   28       -3.535493
   29       -3.492214
   30       -3.375679
   31       -3.373368
   32       -3.250796
   33       -2.297324
   34       -2.272108
   35       -2.194131
   36       -2.191172
   37       -2.105500
   38       -1.036224
   39       -1.033808
   40       -0.737979
   41       -0.599075
   42       -0.526223
   43       -0.523828
   44       -0.453273
   45       -0.339609
   46       -0.281558
   47       -0.277826
   48       -0.218134
   49        0.447338
   50        0.449513
   51        0.539848
   52        0.752686
   53        0.799613
   54        0.844285
   55        0.847911
   56        0.894750
   57        1.842616
   58        1.844474
   59        1.894413
   60        2.773639
   61        3.126723
   62        3.652345
   63        3.653472
   64        4.475228
   65        6.794860
   66        7.151247
   67        7.153620
   68        7.708984
   69        8.684844
   70        9.199111
   71        9.202462
   72        9.774698
   73       10.511033
   74       11.046279
   75       11.049995
   76       11.719625
   77       11.742063
   78       13.124664
   79       13.421071
   80       13.608089
   81       13.610724
   82       13.658492
   83       13.715691
   84       13.723658
 
 -0.3333333E+00  0.1111111E+00  0.0000000E+00  0.6172840E-02
    1      -13.780968
    2      -13.525033
    3      -13.524241
    4      -13.238096
    5      -11.172363
    6      -10.951745
    7      -10.951069
    8      -10.709130
    9      -10.547862
   10      -10.336550
   11      -10.335839
   12      -10.105327
   13       -8.785751
   14       -8.619748
   15       -8.619197
   16       -8.452734
   17       -7.171472
   18       -7.049260
   19       -7.048652
   20       -6.900313
   21       -5.559062
   22       -5.418955
   23       -5.416413
   24       -5.266986
   25       -4.952639
   26       -4.816365
   27       -4.814463
   28       -4.669365
   29       -2.829757
   30       -2.800010
   31       -2.706049
   32       -2.705710
   33       -2.606076
   34       -1.567395
   35       -1.545354
   36       -1.543015
   37       -1.492281
   38       -1.489690
   39       -1.411487
   40       -0.758501
   41       -0.697124
   42       -0.693799
   43       -0.630822
   44        0.062366
   45        0.253890
   46        0.658599
   47        0.705462
   48        0.707491
   49        0.752150
   50        0.969890
   51        1.368569
   52        1.370754
   53        1.436139
   54        1.467754
   55        1.470606
   56        1.505590
   57        2.024435
   58        2.026323
   59        2.686069
   60        2.799851
   61        3.225555
   62        3.565712
   63        3.566365
   64        4.074686
   65        6.974965
   66        7.031588
   67        7.034652
   68        7.604351
   69        8.184397
   70        8.742254
   71        8.746556
   72        8.941645
   73        9.510813
   74        9.543370
   75        9.547439
   76       10.363582
   77       11.211654
   78       13.082847
   79       13.405818
   80       13.407979
   81       13.678553
   82       13.922256
   83       13.926679
   84       13.948603
 
 -0.2222222E+00  0.1111111E+00  0.0000000E+00  0.6172840E-02
    1      -14.076456
    2      -13.816612
    3      -13.815806
    4      -13.524576
    5      -10.204287
    6      -10.197323
    7       -9.999025
    8       -9.998372
    9       -9.991909
   10       -9.991234
   11       -9.775487
   12       -9.768164
   13       -8.713543
   14       -8.588988
   15       -8.588568
   16       -8.502696
   17       -7.595316
   18       -7.554000
   19       -7.553618
   20       -7.445242
   21       -6.347303
   22       -6.342518
   23       -6.196157
   24       -6.193776
   25       -6.191056
   26       -6.189313
   27       -6.030694
   28       -6.026056
   29       -3.187388
   30       -1.889257
   31       -1.886930
   32       -1.885248
   33       -1.805540
   34       -1.805128
   35       -1.722500
   36       -1.046653
   37       -1.032127
   38       -0.983263
   39       -0.980153
   40       -0.968517
   41       -0.966019
   42       -0.915229
   43       -0.900904
   44       -0.261138
   45        1.319222
   46        1.325290
   47        1.617301
   48        1.647687
   49        1.648110
   50        1.674535
   51        1.993970
   52        2.014930
   53        2.015109
   54        2.040599
   55        2.309740
   56        2.311678
   57        2.317708
   58        2.320205
   59        2.681452
   60        3.355271
   61        3.365589
   62        3.366151
   63        3.369309
   64        3.707524
   65        7.022272
   66        7.025936
   67        7.071150
   68        7.655032
   69        7.656128
   70        7.685255
   71        8.171148
   72        8.175063
   73        8.176125
   74        8.179816
   75        9.068283
   76        9.068512
   77       10.871064
   78       12.923602
   79       12.956718
   80       13.257264
   81       13.259140
   82       13.290240
   83       13.291796
   84       13.609352
 
 -0.1111111E+00  0.1111111E+00  0.0000000E+00  0.6172840E-02
    1      -14.224547
    2      -13.962715
    3      -13.961901
    4      -13.668170
    5       -9.737155
    6       -9.542651
    7       -9.542080
    8       -9.333365
    9       -9.172179
   10       -9.169727
   11       -9.000933
   12       -8.999133
   13       -8.999073
   14       -8.995954
   15       -8.827406
   16       -8.824988
   17       -7.526313
   18       -7.524270
   19       -7.397597
   20       -7.394583
   21       -7.394535
   22       -7.393491
   23       -7.236586
   24       -7.234598
   25       -7.029733
   26       -6.877360
   27       -6.874854
   28       -6.706169
   29       -3.366984
   30       -2.062112
   31       -2.059752
   32       -1.195316
   33       -1.192884
   34       -1.129960
   35       -1.129013
   36       -1.128994
   37       -1.124752
   38       -1.062138
   39       -1.059351
   40       -0.874989
   41       -0.816594
   42       -0.814175
   43       -0.754659
   44       -0.424217
   45        1.776161
   46        2.147763
   47        2.174901
   48        2.180437
   49        2.208114
   50        2.281621
   51        2.286431
   52        2.304638
   53        2.329020
   54        2.333381
   55        2.358277
   56        2.666306
   57        2.668378
   58        3.048482
   59        3.049256
   60        3.049494
   61        3.053558
   62        3.468313
   63        3.561797
   64        3.563455
   65        7.083096
   66        7.085333
   67        7.221406
   68        7.227843
   69        7.228317
   70        7.230612
   71        7.265218
   72        7.630072
   73        7.635570
   74        8.055513
   75        8.058825
   76        8.549563
   77       10.701707
   78       12.578465
   79       12.835775
   80       12.839847
   81       12.916654
   82       12.918070
   83       13.178295
   84       13.179694
 
  0.0000000E+00  0.2222222E+00  0.0000000E+00  0.6172840E-02
    1      -14.002251
    2      -13.743404
    3      -13.742600
    4      -13.452661
    5      -10.750949
    6      -10.536375
    7      -10.535696
    8      -10.301474
    9       -9.536975
   10       -9.530675
   11       -9.346157
   12       -9.344933
   13       -9.339350
   14       -9.337549
   15       -9.140147
   16       -9.133002
   17       -6.858268
   18       -6.851731
   19       -6.709683
   20       -6.708933
   21       -6.701619
   22       -6.701159
   23       -6.544139
   24       -6.537033
   25       -5.695192
   26       -5.548228
   27       -5.547671
   28       -5.390625
   29       -3.097617
   30       -1.808752
   31       -1.802759
   32       -1.800408
   33       -1.793809
   34       -1.730962
   35       -1.728412
   36       -1.715641
   37       -1.713675
   38       -1.647465
   39       -1.632774
   40       -0.676439
   41       -0.618043
   42       -0.617640
   43       -0.558298
   44       -0.179672
   45        0.720855
   46        1.321363
   47        1.367683
   48        1.367958
   49        1.414534
   50        1.786596
   51        1.788284
   52        1.868264
   53        1.904756
   54        1.904879
   55        1.941851
   56        2.032128
   57        2.036562
   58        2.918498
   59        2.921053
   60        2.926255
   61        2.929264
   62        2.999519
   63        3.723459
   64        3.739588
   65        7.215325
   66        7.221266
   67        7.555552
   68        7.558596
   69        7.562315
   70        7.565319
   71        8.255589
   72        8.343525
   73        8.348310
   74        8.856270
   75        8.859648
   76        9.761122
   77       10.955953
   78       12.670883
   79       12.999220
   80       12.999992
   81       13.322942
   82       13.779911
   83       13.788328
   84       13.798485
 
  0.1111111E+00  0.2222222E+00  0.0000000E+00  0.6172840E-02
    1      -13.780431
    2      -13.524498
    3      -13.523708
    4      -13.237565
    5      -11.173719
    6      -10.953114
    7      -10.952408
    8      -10.710495
    9      -10.544336
   10      -10.333025
   11      -10.332329
   12      -10.101652
   13       -8.791790
   14       -8.626948
   15       -8.626226
   16       -8.461473
   17       -7.174813
   18       -7.055132
   19       -7.052140
   20       -6.905712
   21       -5.550357
   22       -5.409916
   23       -5.408268
   24       -5.258597
   25       -4.949116
   26       -4.812158
   27       -4.811482
   28       -4.665724
   29       -2.829187
   30       -2.786219
   31       -2.693059
   32       -2.691070
   33       -2.592138
   34       -1.582020
   35       -1.544792
   36       -1.542454
   37       -1.506960
   38       -1.504196
   39       -1.425950
   40       -0.761928
   41       -0.699042
   42       -0.698810
   43       -0.634403
   44        0.062941
   45        0.252151
   46        0.661194
   47        0.707560
   48        0.710367
   49        0.754568