 vasp.5.3.5 31Mar14 (build Nov 02 2014 15:17:37) complex                        
  
 executed on        ion-Intel-MKL date 2016.08.30  23:19:46
 running on    6 total cores
 distrk:  each k-point on    6 cores,    1 groups
 distr:  one band on NCORES_PER_BAND=   1 cores,    6 groups


--------------------------------------------------------------------------------------------------------


 INCAR:
 POTCAR:   PAW_PBE C 08Apr2002                    

 ----------------------------------------------------------------------------- 
|                                                                             |
|           W    W    AA    RRRRR   N    N  II  N    N   GGGG   !!!           |
|           W    W   A  A   R    R  NN   N  II  NN   N  G    G  !!!           |
|           W    W  A    A  R    R  N N  N  II  N N  N  G       !!!           |
|           W WW W  AAAAAA  RRRRR   N  N N  II  N  N N  G  GGG   !            |
|           WW  WW  A    A  R   R   N   NN  II  N   NN  G    G                |
|           W    W  A    A  R    R  N    N  II  N    N   GGGG   !!!           |
|                                                                             |
|      For optimal performance we recommend to set                            |
|        NCORE= 4 - approx SQRT( number of cores)                             |
|      NCORE specifies how many cores store one orbital (NPAR=cpu/NCORE).     |
|      This setting can  greatly improve the performance of VASP for DFT.     |
|      The default, NPAR=number of cores might be grossly inefficient         |
|      on modern multi-core architectures or massively parallel machines.     |
|      Do your own testing !!!!                                               |
|      Unfortunately you need to use the default for GW and RPA calculations. |
|      (for HF NCORE is supported but not extensively tested yet)             |
|                                                                             |
 ----------------------------------------------------------------------------- 

 POTCAR:   PAW_PBE C 08Apr2002                    
   VRHFIN =C: s2p2                                                              
   LEXCH  = PE                                                                  
   EATOM  =   147.1560 eV,   10.8157 Ry                                         
                                                                                
   TITEL  = PAW_PBE C 08Apr2002                                                 
   LULTRA =        F    use ultrasoft PP ?                                      
   IUNSCR =        0    unscreen: 0-lin 1-nonlin 2-no                           
   RPACOR =     .000    partial core radius                                     
   POMASS =   12.011; ZVAL   =    4.000    mass and valenz                      
   RCORE  =    1.500    outmost cutoff radius                                   
   RWIGS  =    1.630; RWIGS  =     .863    wigner-seitz radius (au A)           
   ENMAX  =  400.000; ENMIN  =  300.000 eV                                      
   ICORE  =        2    local potential                                         
   LCOR   =        T    correct aug charges                                     
   LPAW   =        T    paw PP                                                  
   EAUG   =  644.873                                                            
   DEXC   =     .000                                                            
   RMAX   =    2.266    core radius for proj-oper                               
   RAUG   =    1.300    factor for augmentation sphere                          
   RDEP   =    1.501    radius for radial grids                                 
   RDEPT  =    1.300    core radius for aug-charge                              
   QCUT   =   -5.516; QGAM   =   11.032    optimization parameters              
                                                                                
   Description                                                                  
     l     E      TYP  RCUT    TYP  RCUT                                        
     0   .000     23  1.200                                                     
     0   .000     23  1.200                                                     
     1   .000     23  1.500                                                     
     1  2.500     23  1.500                                                     
     2   .000      7  1.500                                                     
  local pseudopotential read in
  atomic valenz-charges read in
  non local Contribution for L=           0  read in
    real space projection operators read in
  non local Contribution for L=           0  read in
    real space projection operators read in
  non local Contribution for L=           1  read in
    real space projection operators read in
  non local Contribution for L=           1  read in
    real space projection operators read in
    PAW grid and wavefunctions read in
 
   number of l-projection  operators is LMAX  =           4
   number of lm-projection operators is LMMAX =           8
 

 ----------------------------------------------------------------------------- 
|                                                                             |
|  ADVICE TO THIS USER RUNNING 'VASP/VAMP'   (HEAR YOUR MASTER'S VOICE ...):  |
|                                                                             |
|      You have a (more or less) 'large supercell' and for larger cells       |
|      it might be more efficient to use real space projection operators      |
|      So try LREAL= Auto  in the INCAR   file.                               |
|      Mind: If you want to do a very accurate calculations keep the          |
|      reciprocal projection scheme          (i.e. LREAL=.FALSE.)             |
|                                                                             |
 ----------------------------------------------------------------------------- 

 PAW_PBE C 08Apr2002                    :
 energy of atom  1       EATOM= -147.1560
 kinetic energy error for atom=    0.0057 (will be added to EATOM!!)
 
 
 POSCAR: C                                       
  positions in direct lattice
  No initial velocities read in
 exchange correlation table for  LEXCH =        8
   RHO(1)=    0.500       N(1)  =     2000
   RHO(2)=  100.500       N(2)  =     4000
 


--------------------------------------------------------------------------------------------------------


 ion  position               nearest neighbor table
   1  0.500  0.000  0.125-  18 1.42  19 1.42  20 1.42
   2  1.000  0.000  0.125-  20 1.42  17 1.42  19 1.42
   3  0.500  0.500  0.125-  17 1.42  20 1.42  18 1.42
   4  1.000  0.500  0.125-  19 1.42  18 1.42  17 1.43
   5  0.500  0.000  0.625-  22 1.42  23 1.42  24 1.42
   6  1.000  0.000  0.625-  21 1.42  24 1.42  23 1.42
   7  0.500  0.500  0.625-  24 1.42  21 1.42  22 1.42
   8  1.000  0.500  0.625-  23 1.42  22 1.42  21 1.42
   9  0.000  0.500  0.375-  27 1.42  26 1.42  28 1.42
  10  0.500  0.500  0.375-  28 1.42  25 1.42  27 1.42
  11  0.000  1.000  0.375-  25 1.42  28 1.42  26 1.42
  12  0.500  1.000  0.375-  26 1.42  27 1.42  25 1.42
  13  0.000  0.500  0.875-  31 1.42  30 1.42  32 1.42
  14  0.500  0.500  0.875-  32 1.42  29 1.42  31 1.42
  15  0.000  1.000  0.875-  29 1.42  32 1.42  30 1.42
  16  0.500  1.000  0.875-  30 1.42  31 1.42  29 1.42
  17  0.167  0.334  0.126-   3 1.42   2 1.42   4 1.43
  18  0.666  0.334  0.125-   1 1.42   4 1.42   3 1.42
  19  0.166  0.834  0.125-   4 1.42   1 1.42   2 1.42
  20  0.666  0.834  0.125-   3 1.42   2 1.42   1 1.42
  21  0.166  0.334  0.625-   6 1.42   7 1.42   8 1.42
  22  0.666  0.334  0.625-   5 1.42   8 1.42   7 1.42
  23  0.166  0.834  0.625-   8 1.42   5 1.42   6 1.42
  24  0.666  0.834  0.625-   7 1.42   6 1.42   5 1.42
  25  0.334  0.166  0.375-  11 1.42  10 1.42  12 1.42
  26  0.834  0.166  0.375-  12 1.42   9 1.42  11 1.42
  27  0.334  0.666  0.375-   9 1.42  12 1.42  10 1.42
  28  0.834  0.666  0.375-  10 1.42  11 1.42   9 1.42
  29  0.334  0.166  0.875-  15 1.42  14 1.42  16 1.42
  30  0.834  0.166  0.875-  16 1.42  13 1.42  15 1.42
  31  0.334  0.666  0.875-  13 1.42  16 1.42  14 1.42
  32  0.834  0.666  0.875-  14 1.42  15 1.42  13 1.42
 
  LATTYP: Found a base centered orthorhombic cell.
 ALAT       =     4.9295501972
 B/A-ratio  =     1.7336081796
 C/A-ratio  =     2.5022681302
  
  Lattice vectors:
  
 A1 = (   4.9328744980,  -0.0019192860,   0.0000000000)
 A2 = (  -2.4680993993,   4.2710349859,   0.0000000000)
 A3 = (   0.0000000000,   0.0000000000,  12.3350563544)


Analysis of symmetry for initial positions (statically):
=====================================================================
 Subroutine PRICEL returns:
 Original cell was already a primitive cell.
 

 Routine SETGRP: Setting up the symmetry group for a 
 base centered orthorhombic supercell.


 Subroutine GETGRP returns: Found  1 space group operations
 (whereof  1 operations were pure point group operations)
 out of a pool of  8 trial point group operations.


The static configuration has the point symmetry C_1 .


Analysis of symmetry for dynamics (positions and initial velocities):
=====================================================================
 Subroutine PRICEL returns:
 Original cell was already a primitive cell.
 

 Routine SETGRP: Setting up the symmetry group for a 
 base centered orthorhombic supercell.


 Subroutine GETGRP returns: Found  1 space group operations
 (whereof  1 operations were pure point group operations)
 out of a pool of  8 trial point group operations.


The dynamic configuration has the point symmetry C_1 .
 
 
 KPOINTS: B4C B11C-CBC                            

Automatic generation of k-mesh.
Space group operators:
 irot       det(A)        alpha          n_x          n_y          n_z        tau_x        tau_y        tau_z
    1     1.000000     0.000000     1.000000     0.000000     0.000000     0.000000     0.000000     0.000000
 
 Subroutine IBZKPT returns following result:
 ===========================================
 
 Found    163 irreducible k-points:
 
 Following reciprocal coordinates:
            Coordinates               Weight
  0.000000  0.000000  0.000000      1.000000
  0.111111  0.000000  0.000000      2.000000
  0.222222  0.000000  0.000000      2.000000
  0.333333 -0.000000  0.000000      2.000000
  0.444444  0.000000  0.000000      2.000000
  0.000000  0.111111  0.000000      2.000000
  0.111111  0.111111  0.000000      2.000000
  0.222222  0.111111  0.000000      2.000000
  0.333333  0.111111  0.000000      2.000000
  0.444444  0.111111  0.000000      2.000000
 -0.444444  0.111111  0.000000      2.000000
 -0.333333  0.111111  0.000000      2.000000
 -0.222222  0.111111  0.000000      2.000000
 -0.111111  0.111111  0.000000      2.000000
  0.000000  0.222222  0.000000      2.000000
  0.111111  0.222222  0.000000      2.000000
  0.222222  0.222222  0.000000      2.000000
  0.333333  0.222222  0.000000      2.000000
  0.444444  0.222222  0.000000      2.000000
 -0.444444  0.222222  0.000000      2.000000
 -0.333333  0.222222  0.000000      2.000000
 -0.222222  0.222222  0.000000      2.000000
 -0.111111  0.222222  0.000000      2.000000
 -0.000000  0.333333  0.000000      2.000000
  0.111111  0.333333  0.000000      2.000000
  0.222222  0.333333  0.000000      2.000000
  0.333333  0.333333  0.000000      2.000000
  0.444444  0.333333  0.000000      2.000000
 -0.444444  0.333333  0.000000      2.000000
 -0.333333  0.333333  0.000000      2.000000
 -0.222222  0.333333  0.000000      2.000000
 -0.111111  0.333333  0.000000      2.000000
  0.000000  0.444444  0.000000      2.000000
  0.111111  0.444444  0.000000      2.000000
  0.222222  0.444444  0.000000      2.000000
  0.333333  0.444444  0.000000      2.000000
  0.444444  0.444444  0.000000      2.000000
 -0.444444  0.444444  0.000000      2.000000
 -0.333333  0.444444  0.000000      2.000000
 -0.222222  0.444444  0.000000      2.000000
 -0.111111  0.444444  0.000000      2.000000
  0.000000  0.000000  0.250000      2.000000
  0.111111  0.000000  0.250000      2.000000
  0.222222  0.000000  0.250000      2.000000
  0.333333 -0.000000  0.250000      2.000000
  0.444444  0.000000  0.250000      2.000000
 -0.444444 -0.000000  0.250000      2.000000
 -0.333333  0.000000  0.250000      2.000000
 -0.222222 -0.000000  0.250000      2.000000
 -0.111111  0.000000  0.250000      2.000000
  0.000000  0.111111  0.250000      2.000000
  0.111111  0.111111  0.250000      2.000000
  0.222222  0.111111  0.250000      2.000000
  0.333333  0.111111  0.250000      2.000000
  0.444444  0.111111  0.250000      2.000000
 -0.444444  0.111111  0.250000      2.000000
 -0.333333  0.111111  0.250000      2.000000
 -0.222222  0.111111  0.250000      2.000000
 -0.111111  0.111111  0.250000      2.000000
  0.000000  0.222222  0.250000      2.000000
  0.111111  0.222222  0.250000      2.000000
  0.222222  0.222222  0.250000      2.000000
  0.333333  0.222222  0.250000      2.000000
  0.444444  0.222222  0.250000      2.000000
 -0.444444  0.222222  0.250000      2.000000
 -0.333333  0.222222  0.250000      2.000000
 -0.222222  0.222222  0.250000      2.000000
 -0.111111  0.222222  0.250000      2.000000
 -0.000000  0.333333  0.250000      2.000000
  0.111111  0.333333  0.250000      2.000000
  0.222222  0.333333  0.250000      2.000000
  0.333333  0.333333  0.250000      2.000000
  0.444444  0.333333  0.250000      2.000000
 -0.444444  0.333333  0.250000      2.000000
 -0.333333  0.333333  0.250000      2.000000
 -0.222222  0.333333  0.250000      2.000000
 -0.111111  0.333333  0.250000      2.000000
  0.000000  0.444444  0.250000      2.000000
  0.111111  0.444444  0.250000      2.000000
  0.222222  0.444444  0.250000      2.000000
  0.333333  0.444444  0.250000      2.000000
  0.444444  0.444444  0.250000      2.000000
 -0.444444  0.444444  0.250000      2.000000
 -0.333333  0.444444  0.250000      2.000000
 -0.222222  0.444444  0.250000      2.000000
 -0.111111  0.444444  0.250000      2.000000
  0.000000 -0.444444  0.250000      2.000000
  0.111111 -0.444444  0.250000      2.000000
  0.222222 -0.444444  0.250000      2.000000
  0.333333 -0.444444  0.250000      2.000000
  0.444444 -0.444444  0.250000      2.000000
 -0.444444 -0.444444  0.250000      2.000000
 -0.333333 -0.444444  0.250000      2.000000
 -0.222222 -0.444444  0.250000      2.000000
 -0.111111 -0.444444  0.250000      2.000000
  0.000000 -0.333333  0.250000      2.000000
  0.111111 -0.333333  0.250000      2.000000
  0.222222 -0.333333  0.250000      2.000000
  0.333333 -0.333333  0.250000      2.000000
  0.444444 -0.333333  0.250000      2.000000
 -0.444444 -0.333333  0.250000      2.000000
 -0.333333 -0.333333  0.250000      2.000000
 -0.222222 -0.333333  0.250000      2.000000
 -0.111111 -0.333333  0.250000      2.000000
  0.000000 -0.222222  0.250000      2.000000
  0.111111 -0.222222  0.250000      2.000000
  0.222222 -0.222222  0.250000      2.000000
  0.333333 -0.222222  0.250000      2.000000
  0.444444 -0.222222  0.250000      2.000000
 -0.444444 -0.222222  0.250000      2.000000
 -0.333333 -0.222222  0.250000      2.000000
 -0.222222 -0.222222  0.250000      2.000000
 -0.111111 -0.222222  0.250000      2.000000
  0.000000 -0.111111  0.250000      2.000000
  0.111111 -0.111111  0.250000      2.000000
  0.222222 -0.111111  0.250000      2.000000
  0.333333 -0.111111  0.250000      2.000000
  0.444444 -0.111111  0.250000      2.000000
 -0.444444 -0.111111  0.250000      2.000000
 -0.333333 -0.111111  0.250000      2.000000
 -0.222222 -0.111111  0.250000      2.000000
 -0.111111 -0.111111  0.250000      2.000000
  0.000000  0.000000  0.500000      1.000000
  0.111111  0.000000  0.500000      2.000000
  0.222222  0.000000  0.500000      2.000000
  0.333333 -0.000000  0.500000      2.000000
  0.444444  0.000000  0.500000      2.000000
  0.000000  0.111111  0.500000      2.000000
  0.111111  0.111111  0.500000      2.000000
  0.222222  0.111111  0.500000      2.000000
  0.333333  0.111111  0.500000      2.000000
  0.444444  0.111111  0.500000      2.000000
 -0.444444  0.111111  0.500000      2.000000
 -0.333333  0.111111  0.500000      2.000000
 -0.222222  0.111111  0.500000      2.000000
 -0.111111  0.111111  0.500000      2.000000
  0.000000  0.222222  0.500000      2.000000
  0.111111  0.222222  0.500000      2.000000
  0.222222  0.222222  0.500000      2.000000
  0.333333  0.222222  0.500000      2.000000
  0.444444  0.222222  0.500000      2.000000
 -0.444444  0.222222  0.500000      2.000000
 -0.333333  0.222222  0.500000      2.000000
 -0.222222  0.222222  0.500000      2.000000
 -0.111111  0.222222  0.500000      2.000000
 -0.000000  0.333333  0.500000      2.000000
  0.111111  0.333333  0.500000      2.000000
  0.222222  0.333333  0.500000      2.000000
  0.333333  0.333333  0.500000      2.000000
  0.444444  0.333333  0.500000      2.000000
 -0.444444  0.333333  0.500000      2.000000
 -0.333333  0.333333  0.500000      2.000000
 -0.222222  0.333333  0.500000      2.000000
 -0.111111  0.333333  0.500000      2.000000
  0.000000  0.444444  0.500000      2.000000
  0.111111  0.444444  0.500000      2.000000
  0.222222  0.444444  0.500000      2.000000
  0.333333  0.444444  0.500000      2.000000
  0.444444  0.444444  0.500000      2.000000
 -0.444444  0.444444  0.500000      2.000000
 -0.333333  0.444444  0.500000      2.000000
 -0.222222  0.444444  0.500000      2.000000
 -0.111111  0.444444  0.500000      2.000000
 
 Following cartesian coordinates:
            Coordinates               Weight
  0.000000  0.000000  0.000000      1.000000
  0.022530  0.013019  0.000000      2.000000
  0.045059  0.026038  0.000000      2.000000
  0.067589  0.039058  0.000000      2.000000
  0.090119  0.052077  0.000000      2.000000
  0.000010  0.026021  0.000000      2.000000
  0.022540  0.039040  0.000000      2.000000
  0.045069  0.052059  0.000000      2.000000
  0.067599  0.065079  0.000000      2.000000
  0.090129  0.078098  0.000000      2.000000
 -0.090109 -0.026056  0.000000      2.000000
 -0.067579 -0.013037  0.000000      2.000000
 -0.045049 -0.000018  0.000000      2.000000
 -0.022520  0.013002  0.000000      2.000000
  0.000020  0.052042  0.000000      2.000000
  0.022550  0.065061  0.000000      2.000000
  0.045080  0.078080  0.000000      2.000000
  0.067609  0.091099  0.000000      2.000000
  0.090139  0.104119  0.000000      2.000000
 -0.090098 -0.000035  0.000000      2.000000
 -0.067569  0.012984  0.000000      2.000000
 -0.045039  0.026003  0.000000      2.000000
 -0.022509  0.039023  0.000000      2.000000
  0.000030  0.078063  0.000000      2.000000
  0.022560  0.091082  0.000000      2.000000
  0.045090  0.104101  0.000000      2.000000
  0.067619  0.117120  0.000000      2.000000
  0.090149  0.130139  0.000000      2.000000
 -0.090088  0.025986  0.000000      2.000000
 -0.067559  0.039005  0.000000      2.000000
 -0.045029  0.052024  0.000000      2.000000
 -0.022499  0.065043  0.000000      2.000000
  0.000040  0.104084  0.000000      2.000000
  0.022570  0.117103  0.000000      2.000000
  0.045100  0.130122  0.000000      2.000000
  0.067630  0.143141  0.000000      2.000000
  0.090159  0.156160  0.000000      2.000000
 -0.090078  0.052007  0.000000      2.000000
 -0.067549  0.065026  0.000000      2.000000
 -0.045019  0.078045  0.000000      2.000000
 -0.022489  0.091064  0.000000      2.000000
  0.000000  0.000000  0.020267      2.000000
  0.022530  0.013019  0.020267      2.000000
  0.045059  0.026038  0.020267      2.000000
  0.067589  0.039058  0.020267      2.000000
  0.090119  0.052077  0.020267      2.000000
 -0.090119 -0.052077  0.020267      2.000000
 -0.067589 -0.039058  0.020267      2.000000
 -0.045059 -0.026038  0.020267      2.000000
 -0.022530 -0.013019  0.020267      2.000000
  0.000010  0.026021  0.020267      2.000000
  0.022540  0.039040  0.020267      2.000000
  0.045069  0.052059  0.020267      2.000000
  0.067599  0.065079  0.020267      2.000000
  0.090129  0.078098  0.020267      2.000000
 -0.090109 -0.026056  0.020267      2.000000
 -0.067579 -0.013037  0.020267      2.000000
 -0.045049 -0.000018  0.020267      2.000000
 -0.022520  0.013002  0.020267      2.000000
  0.000020  0.052042  0.020267      2.000000
  0.022550  0.065061  0.020267      2.000000
  0.045080  0.078080  0.020267      2.000000
  0.067609  0.091099  0.020267      2.000000
  0.090139  0.104119  0.020267      2.000000
 -0.090098 -0.000035  0.020267      2.000000
 -0.067569  0.012984  0.020267      2.000000
 -0.045039  0.026003  0.020267      2.000000
 -0.022509  0.039023  0.020267      2.000000
  0.000030  0.078063  0.020267      2.000000
  0.022560  0.091082  0.020267      2.000000
  0.045090  0.104101  0.020267      2.000000
  0.067619  0.117120  0.020267      2.000000
  0.090149  0.130139  0.020267      2.000000
 -0.090088  0.025986  0.020267      2.000000
 -0.067559  0.039005  0.020267      2.000000
 -0.045029  0.052024  0.020267      2.000000
 -0.022499  0.065043  0.020267      2.000000
  0.000040  0.104084  0.020267      2.000000
  0.022570  0.117103  0.020267      2.000000
  0.045100  0.130122  0.020267      2.000000
  0.067630  0.143141  0.020267      2.000000
  0.090159  0.156160  0.020267      2.000000
 -0.090078  0.052007  0.020267      2.000000
 -0.067549  0.065026  0.020267      2.000000
 -0.045019  0.078045  0.020267      2.000000
 -0.022489  0.091064  0.020267      2.000000
 -0.000040 -0.104084  0.020267      2.000000
  0.022489 -0.091064  0.020267      2.000000
  0.045019 -0.078045  0.020267      2.000000
  0.067549 -0.065026  0.020267      2.000000
  0.090078 -0.052007  0.020267      2.000000
 -0.090159 -0.156160  0.020267      2.000000
 -0.067630 -0.143141  0.020267      2.000000
 -0.045100 -0.130122  0.020267      2.000000
 -0.022570 -0.117103  0.020267      2.000000
 -0.000030 -0.078063  0.020267      2.000000
  0.022499 -0.065043  0.020267      2.000000
  0.045029 -0.052024  0.020267      2.000000
  0.067559 -0.039005  0.020267      2.000000
  0.090088 -0.025986  0.020267      2.000000
 -0.090149 -0.130139  0.020267      2.000000
 -0.067619 -0.117120  0.020267      2.000000
 -0.045090 -0.104101  0.020267      2.000000
 -0.022560 -0.091082  0.020267      2.000000
 -0.000020 -0.052042  0.020267      2.000000
  0.022509 -0.039023  0.020267      2.000000
  0.045039 -0.026003  0.020267      2.000000
  0.067569 -0.012984  0.020267      2.000000
  0.090098  0.000035  0.020267      2.000000
 -0.090139 -0.104119  0.020267      2.000000
 -0.067609 -0.091099  0.020267      2.000000
 -0.045080 -0.078080  0.020267      2.000000
 -0.022550 -0.065061  0.020267      2.000000
 -0.000010 -0.026021  0.020267      2.000000
  0.022520 -0.013002  0.020267      2.000000
  0.045049  0.000018  0.020267      2.000000
  0.067579  0.013037  0.020267      2.000000
  0.090109  0.026056  0.020267      2.000000
 -0.090129 -0.078098  0.020267      2.000000
 -0.067599 -0.065079  0.020267      2.000000
 -0.045069 -0.052059  0.020267      2.000000
 -0.022540 -0.039040  0.020267      2.000000
  0.000000  0.000000  0.040535      1.000000
  0.022530  0.013019  0.040535      2.000000
  0.045059  0.026038  0.040535      2.000000
  0.067589  0.039058  0.040535      2.000000
  0.090119  0.052077  0.040535      2.000000
  0.000010  0.026021  0.040535      2.000000
  0.022540  0.039040  0.040535      2.000000
  0.045069  0.052059  0.040535      2.000000
  0.067599  0.065079  0.040535      2.000000
  0.090129  0.078098  0.040535      2.000000
 -0.090109 -0.026056  0.040535      2.000000
 -0.067579 -0.013037  0.040535      2.000000
 -0.045049 -0.000018  0.040535      2.000000
 -0.022520  0.013002  0.040535      2.000000
  0.000020  0.052042  0.040535      2.000000
  0.022550  0.065061  0.040535      2.000000
  0.045080  0.078080  0.040535      2.000000
  0.067609  0.091099  0.040535      2.000000
  0.090139  0.104119  0.040535      2.000000
 -0.090098 -0.000035  0.040535      2.000000
 -0.067569  0.012984  0.040535      2.000000
 -0.045039  0.026003  0.040535      2.000000
 -0.022509  0.039023  0.040535      2.000000
  0.000030  0.078063  0.040535      2.000000
  0.022560  0.091082  0.040535      2.000000
  0.045090  0.104101  0.040535      2.000000
  0.067619  0.117120  0.040535      2.000000
  0.090149  0.130139  0.040535      2.000000
 -0.090088  0.025986  0.040535      2.000000
 -0.067559  0.039005  0.040535      2.000000
 -0.045029  0.052024  0.040535      2.000000
 -0.022499  0.065043  0.040535      2.000000
  0.000040  0.104084  0.040535      2.000000
  0.022570  0.117103  0.040535      2.000000
  0.045100  0.130122  0.040535      2.000000
  0.067630  0.143141  0.040535      2.000000
  0.090159  0.156160  0.040535      2.000000
 -0.090078  0.052007  0.040535      2.000000
 -0.067549  0.065026  0.040535      2.000000
 -0.045019  0.078045  0.040535      2.000000
 -0.022489  0.091064  0.040535      2.000000
 
 TETIRR: Found    970 inequivalent tetrahedra from     1944


--------------------------------------------------------------------------------------------------------




 Dimension of arrays:
   k-points           NKPTS =    163   k-points in BZ     NKDIM =    163   number of bands    NBANDS=     84
   number of dos      NEDOS =    301   number of ions     NIONS =     32
   non local maximal  LDIM  =      4   non local SUM 2l+1 LMDIM =      8
   total plane-waves  NPLWV = 160000
   max r-space proj   IRMAX =      1   max aug-charges    IRDMAX=   7466
   dimension x,y,z NGX =    40 NGY =   40 NGZ =  100
   dimension x,y,z NGXF=    80 NGYF=   80 NGZF=  200
   support grid    NGXF=    80 NGYF=   80 NGZF=  200
   ions per type =              32
 NGX,Y,Z   is equivalent  to a cutoff of  13.48, 13.48, 13.48 a.u.
 NGXF,Y,Z  is equivalent  to a cutoff of  26.96, 26.96, 26.96 a.u.


 I would recommend the setting:
   dimension x,y,z NGX =    39 NGY =   39 NGZ =   99
 SYSTEM =  graphite                                
 POSCAR =  C                                       

 Startparameter for this run:
   NWRITE =      2    write-flag & timer
   PREC   = accura    normal or accurate (medium, high low for compatibility)
   ISTART =      0    job   : 0-new  1-cont  2-samecut
   ICHARG =      2    charge: 1-file 2-atom 10-const
   ISPIN  =      1    spin polarized calculation?
   LNONCOLLINEAR =      F non collinear calculations
   LSORBIT =      F    spin-orbit coupling
   INIWAV =      1    electr: 0-lowe 1-rand  2-diag
   LASPH  =      F    aspherical Exc in radial PAW
   METAGGA=      F    non-selfconsistent MetaGGA calc.

 Electronic Relaxation 1
   ENCUT  =  600.0 eV  44.10 Ry    6.64 a.u.   9.85  9.85 24.64*2*pi/ulx,y,z
   ENINI  =  600.0     initial cutoff
   ENAUG  =  644.9 eV  augmentation charge cutoff
   NELM   =    200;   NELMIN=  2; NELMDL=  0     # of ELM steps 
   EDIFF  = 0.1E-05   stopping-criterion for ELM
   LREAL  =      F    real-space projection
   NLSPLINE    = F    spline interpolate recip. space projectors
   LCOMPAT=      F    compatible to vasp.4.4
   GGA_COMPAT  = T    GGA compatible to vasp.4.4-vasp.4.6
   LMAXPAW     = -100 max onsite density
   LMAXMIX     =    2 max onsite mixed and CHGCAR
   VOSKOWN=      0    Vosko Wilk Nusair interpolation
   ROPT   =    0.00000
 Ionic relaxation
   EDIFFG = 0.1E-02   stopping-criterion for IOM
   NSW    =      0    number of steps for IOM
   NBLOCK =      1;   KBLOCK =      1    inner block; outer block 
   IBRION =     -1    ionic relax: 0-MD 1-quasi-New 2-CG
   NFREE  =      0    steps in history (QN), initial steepest desc. (CG)
   ISIF   =      2    stress and relaxation
   IWAVPR =     10    prediction:  0-non 1-charg 2-wave 3-comb
   ISYM   =      2    0-nonsym 1-usesym 2-fastsym
   LCORR  =      T    Harris-Foulkes like correction to forces

   POTIM  = 0.5000    time-step for ionic-motion
   TEIN   =    0.0    initial temperature
   TEBEG  =    0.0;   TEEND  =   0.0 temperature during run
   SMASS  =  -3.00    Nose mass-parameter (am)
   estimated Nose-frequenzy (Omega)   =  0.10E-29 period in steps =****** mass=  -0.556E-27a.u.
   SCALEE = 1.0000    scale energy and forces
   NPACO  =    256;   APACO  = 16.0  distance and # of slots for P.C.
   PSTRESS=    0.0 pullay stress

  Mass of Ions in am
   POMASS =  12.01
  Ionic Valenz
   ZVAL   =   4.00
  Atomic Wigner-Seitz radii
   RWIGS  =  -1.00
  virtual crystal weights 
   VCA    =   1.00
   NELECT =     128.0000    total number of electrons
   NUPDOWN=      -1.0000    fix difference up-down

 DOS related values:
   EMIN   =  10.00;   EMAX   =-10.00  energy-range for DOS
   EFERMI =   0.00
   ISMEAR =    -5;   SIGMA  =   0.20  broadening in eV -4-tet -1-fermi 0-gaus

 Electronic relaxation 2 (details)
   IALGO  =     38    algorithm
   LDIAG  =      T    sub-space diagonalisation (order eigenvalues)
   LSUBROT=      F    optimize rotation matrix (better conditioning)
   TURBO    =      0    0=normal 1=particle mesh
   IRESTART =      0    0=no restart 2=restart with 2 vectors
   NREBOOT  =      0    no. of reboots
   NMIN     =      0    reboot dimension
   EREF     =   0.00    reference energy to select bands
   IMIX   =      4    mixing-type and parameters
     AMIX     =   0.40;   BMIX     =  1.00
     AMIX_MAG =   1.60;   BMIX_MAG =  1.00
     AMIN     =   0.10
     WC   =   100.;   INIMIX=   1;  MIXPRE=   1;  MAXMIX= -45

 Intra band minimization:
   WEIMIN = 0.0000     energy-eigenvalue tresh-hold
   EBREAK =  0.30E-08  absolut break condition
   DEPER  =   0.30     relativ break condition  

   TIME   =   0.40     timestep for ELM

  volume/ion in A,a.u.               =       8.12        54.79
  Fermi-wavevector in a.u.,A,eV,Ry     =   1.292962  2.443345 22.745567  1.671752
  Thomas-Fermi vector in A             =   2.424638
 
 Write flags
   LWAVE  =      F    write WAVECAR
   LCHARG =      F    write CHGCAR
   LVTOT  =      F    write LOCPOT, total local potential
   LVHAR  =      F    write LOCPOT, Hartree potential only
   LELF   =      F    write electronic localiz. function (ELF)
   LORBIT =      0    0 simple, 1 ext, 2 COOP (PROOUT)


 Dipole corrections
   LMONO  =      F    monopole corrections only (constant potential shift)
   LDIPOL =      F    correct potential (dipole corrections)
   IDIPOL =      0    1-x, 2-y, 3-z, 4-all directions 
   EPSILON=  1.0000000 bulk dielectric constant

 Exchange correlation treatment:
   GGA     =    PE    GGA type
   LEXCH   =     8    internal setting for exchange type
   VOSKOWN=      0    Vosko Wilk Nusair interpolation
   LHFCALC =     F    Hartree Fock is set to
   LHFONE  =     F    Hartree Fock one center treatment
   AEXX    =    0.0000 exact exchange contribution

 Linear response parameters
   LEPSILON=     F    determine dielectric tensor
   LRPA    =     F    only Hartree local field effects (RPA)
   LNABLA  =     F    use nabla operator in PAW spheres
   LVEL    =     F    velocity operator in full k-point grid
   LINTERFAST=   F  fast interpolation
   KINTER  =     0    interpolate to denser k-point grid
   CSHIFT  =0.1000    complex shift for real part using Kramers Kronig
   OMEGAMAX=  -1.0    maximum frequency
   DEG_THRESHOLD= 0.2000000E-02 threshold for treating states as degnerate
   RTIME   =    0.100 relaxation time in fs

 Orbital magnetization related:
   ORBITALMAG=     F  switch on orbital magnetization
   LCHIMAG   =     F  perturbation theory with respect to B field
   DQ        =  0.001000  dq finite difference perturbation B field



--------------------------------------------------------------------------------------------------------


 Static calculation
 charge density and potential will be updated during run
 non-spin polarized calculation
 Variant of blocked Davidson
 Davidson routine will perform the subspace rotation
 perform sub-space diagonalisation
    after iterative eigenvector-optimisation
 modified Broyden-mixing scheme, WC =      100.0
 initial mixing is a Kerker type mixing with AMIX =  0.4000 and BMIX =      1.0000
 Hartree-type preconditioning will be used
 using additional bands           20
 reciprocal scheme for non local part
 calculate Harris-corrections to forces 
   (improved forces if not selfconsistent)
 use gradient corrections 
 use of overlap-Matrix (Vanderbilt PP)
 Fermi weights with tetrahedron method with Bloechl corrections


--------------------------------------------------------------------------------------------------------


  energy-cutoff  :      600.00
  volume of cell :      259.82
      direct lattice vectors                 reciprocal lattice vectors
     4.932874498 -0.001919286  0.000000000     0.202767147  0.117172881  0.000000000
    -2.468099399  4.271034986  0.000000000     0.000091118  0.234187941  0.000000000
     0.000000000  0.000000000 12.335056354     0.000000000  0.000000000  0.081069755

  length of vectors
     4.932874871  4.932874871 12.335056354     0.234187958  0.234187958  0.081069755


 
 k-points in units of 2pi/SCALE and weight: B4C B11C-CBC                            
   0.00000000  0.00000000  0.00000000       0.003
   0.02252968  0.01301921  0.00000000       0.006
   0.04505937  0.02603842  0.00000000       0.006
   0.06758905  0.03905763  0.00000000       0.006
   0.09011873  0.05207684  0.00000000       0.006
   0.00001012  0.02602088  0.00000000       0.006
   0.02253981  0.03904009  0.00000000       0.006
   0.04506949  0.05205930  0.00000000       0.006
   0.06759917  0.06507851  0.00000000       0.006
   0.09012886  0.07809772  0.00000000       0.006
  -0.09010861 -0.02605595  0.00000000       0.006
  -0.06757892 -0.01303674  0.00000000       0.006
  -0.04504924 -0.00001754  0.00000000       0.006
  -0.02251956  0.01300167  0.00000000       0.006
   0.00002025  0.05204176  0.00000000       0.006
   0.02254993  0.06506097  0.00000000       0.006
   0.04507961  0.07808018  0.00000000       0.006
   0.06760930  0.09109939  0.00000000       0.006
   0.09013898  0.10411860  0.00000000       0.006
  -0.09009848 -0.00003507  0.00000000       0.006
  -0.06756880  0.01298414  0.00000000       0.006
  -0.04503912  0.02600335  0.00000000       0.006
  -0.02250943  0.03902256  0.00000000       0.006
   0.00003037  0.07806265  0.00000000       0.006
   0.02256006  0.09108186  0.00000000       0.006
   0.04508974  0.10410106  0.00000000       0.006
   0.06761942  0.11712027  0.00000000       0.006
   0.09014910  0.13013948  0.00000000       0.006
  -0.09008836  0.02598581  0.00000000       0.006
  -0.06755868  0.03900502  0.00000000       0.006
  -0.04502899  0.05202423  0.00000000       0.006
  -0.02249931  0.06504344  0.00000000       0.006
   0.00004050  0.10408353  0.00000000       0.006
   0.02257018  0.11710274  0.00000000       0.006
   0.04509986  0.13012195  0.00000000       0.006
   0.06762955  0.14314116  0.00000000       0.006
   0.09015923  0.15616037  0.00000000       0.006
  -0.09007824  0.05200669  0.00000000       0.006
  -0.06754855  0.06502590  0.00000000       0.006
  -0.04501887  0.07804511  0.00000000       0.006
  -0.02248919  0.09106432  0.00000000       0.006
   0.00000000  0.00000000  0.02026744       0.006
   0.02252968  0.01301921  0.02026744       0.006
   0.04505937  0.02603842  0.02026744       0.006
   0.06758905  0.03905763  0.02026744       0.006
   0.09011873  0.05207684  0.02026744       0.006
  -0.09011873 -0.05207684  0.02026744       0.006
  -0.06758905 -0.03905763  0.02026744       0.006
  -0.04505937 -0.02603842  0.02026744       0.006
  -0.02252968 -0.01301921  0.02026744       0.006
   0.00001012  0.02602088  0.02026744       0.006
   0.02253981  0.03904009  0.02026744       0.006
   0.04506949  0.05205930  0.02026744       0.006
   0.06759917  0.06507851  0.02026744       0.006
   0.09012886  0.07809772  0.02026744       0.006
  -0.09010861 -0.02605595  0.02026744       0.006
  -0.06757892 -0.01303674  0.02026744       0.006
  -0.04504924 -0.00001754  0.02026744       0.006
  -0.02251956  0.01300167  0.02026744       0.006
   0.00002025  0.05204176  0.02026744       0.006
   0.02254993  0.06506097  0.02026744       0.006
   0.04507961  0.07808018  0.02026744       0.006
   0.06760930  0.09109939  0.02026744       0.006
   0.09013898  0.10411860  0.02026744       0.006
  -0.09009848 -0.00003507  0.02026744       0.006
  -0.06756880  0.01298414  0.02026744       0.006
  -0.04503912  0.02600335  0.02026744       0.006
  -0.02250943  0.03902256  0.02026744       0.006
   0.00003037  0.07806265  0.02026744       0.006
   0.02256006  0.09108186  0.02026744       0.006
   0.04508974  0.10410106  0.02026744       0.006
   0.06761942  0.11712027  0.02026744       0.006
   0.09014910  0.13013948  0.02026744       0.006
  -0.09008836  0.02598581  0.02026744       0.006
  -0.06755868  0.03900502  0.02026744       0.006
  -0.04502899  0.05202423  0.02026744       0.006
  -0.02249931  0.06504344  0.02026744       0.006
   0.00004050  0.10408353  0.02026744       0.006
   0.02257018  0.11710274  0.02026744       0.006
   0.04509986  0.13012195  0.02026744       0.006
   0.06762955  0.14314116  0.02026744       0.006
   0.09015923  0.15616037  0.02026744       0.006
  -0.09007824  0.05200669  0.02026744       0.006
  -0.06754855  0.06502590  0.02026744       0.006
  -0.04501887  0.07804511  0.02026744       0.006
  -0.02248919  0.09106432  0.02026744       0.006
  -0.00004050 -0.10408353  0.02026744       0.006
   0.02248919 -0.09106432  0.02026744       0.006
   0.04501887 -0.07804511  0.02026744       0.006
   0.06754855 -0.06502590  0.02026744       0.006
   0.09007824 -0.05200669  0.02026744       0.006
  -0.09015923 -0.15616037  0.02026744       0.006
  -0.06762955 -0.14314116  0.02026744       0.006
  -0.04509986 -0.13012195  0.02026744       0.006
  -0.02257018 -0.11710274  0.02026744       0.006
  -0.00003037 -0.07806265  0.02026744       0.006
   0.02249931 -0.06504344  0.02026744       0.006
   0.04502899 -0.05202423  0.02026744       0.006
   0.06755868 -0.03900502  0.02026744       0.006
   0.09008836 -0.02598581  0.02026744       0.006
  -0.09014910 -0.13013948  0.02026744       0.006
  -0.06761942 -0.11712027  0.02026744       0.006
  -0.04508974 -0.10410106  0.02026744       0.006
  -0.02256006 -0.09108186  0.02026744       0.006
  -0.00002025 -0.05204176  0.02026744       0.006
   0.02250943 -0.03902256  0.02026744       0.006
   0.04503912 -0.02600335  0.02026744       0.006
   0.06756880 -0.01298414  0.02026744       0.006
   0.09009848  0.00003507  0.02026744       0.006
  -0.09013898 -0.10411860  0.02026744       0.006
  -0.06760930 -0.09109939  0.02026744       0.006
  -0.04507961 -0.07808018  0.02026744       0.006
  -0.02254993 -0.06506097  0.02026744       0.006
  -0.00001012 -0.02602088  0.02026744       0.006
   0.02251956 -0.01300167  0.02026744       0.006
   0.04504924  0.00001754  0.02026744       0.006
   0.06757892  0.01303674  0.02026744       0.006
   0.09010861  0.02605595  0.02026744       0.006
  -0.09012886 -0.07809772  0.02026744       0.006
  -0.06759917 -0.06507851  0.02026744       0.006
  -0.04506949 -0.05205930  0.02026744       0.006
  -0.02253981 -0.03904009  0.02026744       0.006
   0.00000000  0.00000000  0.04053488       0.003
   0.02252968  0.01301921  0.04053488       0.006
   0.04505937  0.02603842  0.04053488       0.006
   0.06758905  0.03905763  0.04053488       0.006
   0.09011873  0.05207684  0.04053488       0.006
   0.00001012  0.02602088  0.04053488       0.006
   0.02253981  0.03904009  0.04053488       0.006
   0.04506949  0.05205930  0.04053488       0.006
   0.06759917  0.06507851  0.04053488       0.006
   0.09012886  0.07809772  0.04053488       0.006
  -0.09010861 -0.02605595  0.04053488       0.006
  -0.06757892 -0.01303674  0.04053488       0.006
  -0.04504924 -0.00001754  0.04053488       0.006
  -0.02251956  0.01300167  0.04053488       0.006
   0.00002025  0.05204176  0.04053488       0.006
   0.02254993  0.06506097  0.04053488       0.006
   0.04507961  0.07808018  0.04053488       0.006
   0.06760930  0.09109939  0.04053488       0.006
   0.09013898  0.10411860  0.04053488       0.006
  -0.09009848 -0.00003507  0.04053488       0.006
  -0.06756880  0.01298414  0.04053488       0.006
  -0.04503912  0.02600335  0.04053488       0.006
  -0.02250943  0.03902256  0.04053488       0.006
   0.00003037  0.07806265  0.04053488       0.006
   0.02256006  0.09108186  0.04053488       0.006
   0.04508974  0.10410106  0.04053488       0.006
   0.06761942  0.11712027  0.04053488       0.006
   0.09014910  0.13013948  0.04053488       0.006
  -0.09008836  0.02598581  0.04053488       0.006
  -0.06755868  0.03900502  0.04053488       0.006
  -0.04502899  0.05202423  0.04053488       0.006
  -0.02249931  0.06504344  0.04053488       0.006
   0.00004050  0.10408353  0.04053488       0.006
   0.02257018  0.11710274  0.04053488       0.006
   0.04509986  0.13012195  0.04053488       0.006
   0.06762955  0.14314116  0.04053488       0.006
   0.09015923  0.15616037  0.04053488       0.006
  -0.09007824  0.05200669  0.04053488       0.006
  -0.06754855  0.06502590  0.04053488       0.006
  -0.04501887  0.07804511  0.04053488       0.006
  -0.02248919  0.09106432  0.04053488       0.006
 
 k-points in reciprocal lattice and weights: B4C B11C-CBC                            
   0.00000000  0.00000000  0.00000000       0.003
   0.11111111  0.00000000  0.00000000       0.006
   0.22222222  0.00000000  0.00000000       0.006
   0.33333333 -0.00000000  0.00000000       0.006
   0.44444444  0.00000000  0.00000000       0.006
   0.00000000  0.11111111  0.00000000       0.006
   0.11111111  0.11111111  0.00000000       0.006
   0.22222222  0.11111111  0.00000000       0.006
   0.33333333  0.11111111  0.00000000       0.006
   0.44444444  0.11111111  0.00000000       0.006
  -0.44444444  0.11111111  0.00000000       0.006
  -0.33333333  0.11111111  0.00000000       0.006
  -0.22222222  0.11111111  0.00000000       0.006
  -0.11111111  0.11111111  0.00000000       0.006
   0.00000000  0.22222222  0.00000000       0.006
   0.11111111  0.22222222  0.00000000       0.006
   0.22222222  0.22222222  0.00000000       0.006
   0.33333333  0.22222222  0.00000000       0.006
   0.44444444  0.22222222  0.00000000       0.006
  -0.44444444  0.22222222  0.00000000       0.006
  -0.33333333  0.22222222  0.00000000       0.006
  -0.22222222  0.22222222  0.00000000       0.006
  -0.11111111  0.22222222  0.00000000       0.006
  -0.00000000  0.33333333  0.00000000       0.006
   0.11111111  0.33333333  0.00000000       0.006
   0.22222222  0.33333333  0.00000000       0.006
   0.33333333  0.33333333  0.00000000       0.006
   0.44444444  0.33333333  0.00000000       0.006
  -0.44444444  0.33333333  0.00000000       0.006
  -0.33333333  0.33333333  0.00000000       0.006
  -0.22222222  0.33333333  0.00000000       0.006
  -0.11111111  0.33333333  0.00000000       0.006
   0.00000000  0.44444444  0.00000000       0.006
   0.11111111  0.44444444  0.00000000       0.006
   0.22222222  0.44444444  0.00000000       0.006
   0.33333333  0.44444444  0.00000000       0.006
   0.44444444  0.44444444  0.00000000       0.006
  -0.44444444  0.44444444  0.00000000       0.006
  -0.33333333  0.44444444  0.00000000       0.006
  -0.22222222  0.44444444  0.00000000       0.006
  -0.11111111  0.44444444  0.00000000       0.006
   0.00000000  0.00000000  0.25000000       0.006
   0.11111111  0.00000000  0.25000000       0.006
   0.22222222  0.00000000  0.25000000       0.006
   0.33333333 -0.00000000  0.25000000       0.006
   0.44444444  0.00000000  0.25000000       0.006
  -0.44444444 -0.00000000  0.25000000       0.006
  -0.33333333  0.00000000  0.25000000       0.006
  -0.22222222 -0.00000000  0.25000000       0.006
  -0.11111111  0.00000000  0.25000000       0.006
   0.00000000  0.11111111  0.25000000       0.006
   0.11111111  0.11111111  0.25000000       0.006
   0.22222222  0.11111111  0.25000000       0.006
   0.33333333  0.11111111  0.25000000       0.006
   0.44444444  0.11111111  0.25000000       0.006
  -0.44444444  0.11111111  0.25000000       0.006
  -0.33333333  0.11111111  0.25000000       0.006
  -0.22222222  0.11111111  0.25000000       0.006
  -0.11111111  0.11111111  0.25000000       0.006
   0.00000000  0.22222222  0.25000000       0.006
   0.11111111  0.22222222  0.25000000       0.006
   0.22222222  0.22222222  0.25000000       0.006
   0.33333333  0.22222222  0.25000000       0.006
   0.44444444  0.22222222  0.25000000       0.006
  -0.44444444  0.22222222  0.25000000       0.006
  -0.33333333  0.22222222  0.25000000       0.006
  -0.22222222  0.22222222  0.25000000       0.006
  -0.11111111  0.22222222  0.25000000       0.006
  -0.00000000  0.33333333  0.25000000       0.006
   0.11111111  0.33333333  0.25000000       0.006
   0.22222222  0.33333333  0.25000000       0.006
   0.33333333  0.33333333  0.25000000       0.006
   0.44444444  0.33333333  0.25000000       0.006
  -0.44444444  0.33333333  0.25000000       0.006
  -0.33333333  0.33333333  0.25000000       0.006
  -0.22222222  0.33333333  0.25000000       0.006
  -0.11111111  0.33333333  0.25000000       0.006
   0.00000000  0.44444444  0.25000000       0.006
   0.11111111  0.44444444  0.25000000       0.006
   0.22222222  0.44444444  0.25000000       0.006
   0.33333333  0.44444444  0.25000000       0.006
   0.44444444  0.44444444  0.25000000       0.006
  -0.44444444  0.44444444  0.25000000       0.006
  -0.33333333  0.44444444  0.25000000       0.006
  -0.22222222  0.44444444  0.25000000       0.006
  -0.11111111  0.44444444  0.25000000       0.006
   0.00000000 -0.44444444  0.25000000       0.006
   0.11111111 -0.44444444  0.25000000       0.006
   0.22222222 -0.44444444  0.25000000       0.006
   0.33333333 -0.44444444  0.25000000       0.006
   0.44444444 -0.44444444  0.25000000       0.006
  -0.44444444 -0.44444444  0.25000000       0.006
  -0.33333333 -0.44444444  0.25000000       0.006
  -0.22222222 -0.44444444  0.25000000       0.006
  -0.11111111 -0.44444444  0.25000000       0.006
   0.00000000 -0.33333333  0.25000000       0.006
   0.11111111 -0.33333333  0.25000000       0.006
   0.22222222 -0.33333333  0.25000000       0.006
   0.33333333 -0.33333333  0.25000000       0.006
   0.44444444 -0.33333333  0.25000000       0.006
  -0.44444444 -0.33333333  0.25000000       0.006
  -0.33333333 -0.33333333  0.25000000       0.006
  -0.22222222 -0.33333333  0.25000000       0.006
  -0.11111111 -0.33333333  0.25000000       0.006
   0.00000000 -0.22222222  0.25000000       0.006
   0.11111111 -0.22222222  0.25000000       0.006
   0.22222222 -0.22222222  0.25000000       0.006
   0.33333333 -0.22222222  0.25000000       0.006
   0.44444444 -0.22222222  0.25000000       0.006
  -0.44444444 -0.22222222  0.25000000       0.006
  -0.33333333 -0.22222222  0.25000000       0.006
  -0.22222222 -0.22222222  0.25000000       0.006
  -0.11111111 -0.22222222  0.25000000       0.006
   0.00000000 -0.11111111  0.25000000       0.006
   0.11111111 -0.11111111  0.25000000       0.006
   0.22222222 -0.11111111  0.25000000       0.006
   0.33333333 -0.11111111  0.25000000       0.006
   0.44444444 -0.11111111  0.25000000       0.006
  -0.44444444 -0.11111111  0.25000000       0.006
  -0.33333333 -0.11111111  0.25000000       0.006
  -0.22222222 -0.11111111  0.25000000       0.006
  -0.11111111 -0.11111111  0.25000000       0.006
   0.00000000  0.00000000  0.50000000       0.003
   0.11111111  0.00000000  0.50000000       0.006
   0.22222222  0.00000000  0.50000000       0.006
   0.33333333 -0.00000000  0.50000000       0.006
   0.44444444  0.00000000  0.50000000       0.006
   0.00000000  0.11111111  0.50000000       0.006
   0.11111111  0.11111111  0.50000000       0.006
   0.22222222  0.11111111  0.50000000       0.006
   0.33333333  0.11111111  0.50000000       0.006
   0.44444444  0.11111111  0.50000000       0.006
  -0.44444444  0.11111111  0.50000000       0.006
  -0.33333333  0.11111111  0.50000000       0.006
  -0.22222222  0.11111111  0.50000000       0.006
  -0.11111111  0.11111111  0.50000000       0.006
   0.00000000  0.22222222  0.50000000       0.006
   0.11111111  0.22222222  0.50000000       0.006
   0.22222222  0.22222222  0.50000000       0.006
   0.33333333  0.22222222  0.50000000       0.006
   0.44444444  0.22222222  0.50000000       0.006
  -0.44444444  0.22222222  0.50000000       0.006
  -0.33333333  0.22222222  0.50000000       0.006
  -0.22222222  0.22222222  0.50000000       0.006
  -0.11111111  0.22222222  0.50000000       0.006
  -0.00000000  0.33333333  0.50000000       0.006
   0.11111111  0.33333333  0.50000000       0.006
   0.22222222  0.33333333  0.50000000       0.006
   0.33333333  0.33333333  0.50000000       0.006
   0.44444444  0.33333333  0.50000000       0.006
  -0.44444444  0.33333333  0.50000000       0.006
  -0.33333333  0.33333333  0.50000000       0.006
  -0.22222222  0.33333333  0.50000000       0.006
  -0.11111111  0.33333333  0.50000000       0.006
   0.00000000  0.44444444  0.50000000       0.006
   0.11111111  0.44444444  0.50000000       0.006
   0.22222222  0.44444444  0.50000000       0.006
   0.33333333  0.44444444  0.50000000       0.006
   0.44444444  0.44444444  0.50000000       0.006
  -0.44444444  0.44444444  0.50000000       0.006
  -0.33333333  0.44444444  0.50000000       0.006
  -0.22222222  0.44444444  0.50000000       0.006
  -0.11111111  0.44444444  0.50000000       0.006
 
 position of ions in fractional coordinates (direct lattice) 
   0.49967330  0.00032672  0.12500000
   0.99967330  0.00032672  0.12500000
   0.49967330  0.50032672  0.12500000
   0.99967330  0.50032672  0.12500000
   0.49967330  0.00032672  0.62500000
   0.99967330  0.00032672  0.62500000
   0.49967330  0.50032672  0.62500000
   0.99967330  0.50032672  0.62500000
   0.00032672  0.49967330  0.37500000
   0.50032672  0.49967330  0.37500000
   0.00032672  0.99967330  0.37500000
   0.50032672  0.99967330  0.37500000
   0.00032672  0.49967330  0.87500000
   0.50032672  0.49967330  0.87500000
   0.00032672  0.99967330  0.87500000
   0.50032672  0.99967330  0.87500000
   0.16704520  0.33370753  0.12575274
   0.66629246  0.33370753  0.12500000
   0.16629246  0.83370753  0.12500000
   0.66629246  0.83370753  0.12500000
   0.16629246  0.33370753  0.62500000
   0.66629246  0.33370753  0.62500000
   0.16629246  0.83370753  0.62500000
   0.66629246  0.83370753  0.62500000
   0.33370753  0.16629246  0.37500000
   0.83370753  0.16629246  0.37500000
   0.33370753  0.66629246  0.37500000
   0.83370753  0.66629246  0.37500000
   0.33370753  0.16629246  0.87500000
   0.83370753  0.16629246  0.87500000
   0.33370753  0.66629246  0.87500000
   0.83370753  0.66629246  0.87500000
 
 position of ions in cartesian coordinates  (Angst):
   2.46401933  0.00043641  1.54188204
   4.93045658 -0.00052323  1.54188204
   1.22996963  2.13595390  1.54188204
   3.69640688  2.13499426  1.54188204
   2.46401933  0.00043641  7.70941022
   4.93045658 -0.00052323  7.70941022
   1.22996963  2.13595390  7.70941022
   3.69640688  2.13499426  7.70941022
  -1.23163172  2.13412154  4.62564613
   1.23480553  2.13316189  4.62564613
  -2.46568142  4.26963903  4.62564613
   0.00075583  4.26867939  4.62564613
  -1.23163172  2.13412154 10.79317431
   1.23480553  2.13316189 10.79317431
  -2.46568142  4.26963903 10.79317431
   0.00075583  4.26867939 10.79317431
   0.00038966  1.42495592  1.55116711
   2.46311374  1.42399773  1.54188204
  -1.23737320  3.56047486  1.54188204
   1.22906405  3.55951522  1.54188204
  -0.00332350  1.42495737  7.70941022
   2.46311374  1.42399773  7.70941022
  -1.23737320  3.56047486  7.70941022
   1.22906405  3.55951522  7.70941022
   1.23571103  0.70960044  4.62564613
   3.70214828  0.70864080  4.62564613
   0.00166133  2.84511794  4.62564613
   2.46809858  2.84415829  4.62564613
   1.23571103  0.70960044 10.79317431
   3.70214828  0.70864080 10.79317431
   0.00166133  2.84511794 10.79317431
   2.46809858  2.84415829 10.79317431
 


--------------------------------------------------------------------------------------------------------


 k-point  1 :   0.0000 0.0000 0.0000  plane waves:    8629
 k-point  2 :   0.1111 0.0000 0.0000  plane waves:    8647
 k-point  3 :   0.2222 0.0000 0.0000  plane waves:    8683
 k-point  4 :   0.3333-0.0000 0.0000  plane waves:    8699
 k-point  5 :   0.4444 0.0000 0.0000  plane waves:    8699
 k-point  6 :   0.0000 0.1111 0.0000  plane waves:    8647
 k-point  7 :   0.1111 0.1111 0.0000  plane waves:    8672
 k-point  8 :   0.2222 0.1111 0.0000  plane waves:    8656
 k-point  9 :   0.3333 0.1111 0.0000  plane waves:    8688
 k-point 10 :   0.4444 0.1111 0.0000  plane waves:    8670
 k-point 11 :  -0.4444 0.1111 0.0000  plane waves:    8692
 k-point 12 :  -0.3333 0.1111 0.0000  plane waves:    8654
 k-point 13 :  -0.2222 0.1111 0.0000  plane waves:    8672
 k-point 14 :  -0.1111 0.1111 0.0000  plane waves:    8647
 k-point 15 :   0.0000 0.2222 0.0000  plane waves:    8683
 k-point 16 :   0.1111 0.2222 0.0000  plane waves:    8656
 k-point 17 :   0.2222 0.2222 0.0000  plane waves:    8658
 k-point 18 :   0.3333 0.2222 0.0000  plane waves:    8666
 k-point 19 :   0.4444 0.2222 0.0000  plane waves:    8664
 k-point 20 :  -0.4444 0.2222 0.0000  plane waves:    8650
 k-point 21 :  -0.3333 0.2222 0.0000  plane waves:    8658
 k-point 22 :  -0.2222 0.2222 0.0000  plane waves:    8681
 k-point 23 :  -0.1111 0.2222 0.0000  plane waves:    8672
 k-point 24 :  -0.0000 0.3333 0.0000  plane waves:    8699
 k-point 25 :   0.1111 0.3333 0.0000  plane waves:    8688
 k-point 26 :   0.2222 0.3333 0.0000  plane waves:    8666
 k-point 27 :   0.3333 0.3333 0.0000  plane waves:    8660
 k-point 28 :   0.4444 0.3333 0.0000  plane waves:    8666
 k-point 29 :  -0.4444 0.3333 0.0000  plane waves:    8688
 k-point 30 :  -0.3333 0.3333 0.0000  plane waves:    8689
 k-point 31 :  -0.2222 0.3333 0.0000  plane waves:    8658
 k-point 32 :  -0.1111 0.3333 0.0000  plane waves:    8654
 k-point 33 :   0.0000 0.4444 0.0000  plane waves:    8699
 k-point 34 :   0.1111 0.4444 0.0000  plane waves:    8670
 k-point 35 :   0.2222 0.4444 0.0000  plane waves:    8664
 k-point 36 :   0.3333 0.4444 0.0000  plane waves:    8666
 k-point 37 :   0.4444 0.4444 0.0000  plane waves:    8672
 k-point 38 :  -0.4444 0.4444 0.0000  plane waves:    8701
 k-point 39 :  -0.3333 0.4444 0.0000  plane waves:    8688
 k-point 40 :  -0.2222 0.4444 0.0000  plane waves:    8650
 k-point 41 :  -0.1111 0.4444 0.0000  plane waves:    8692
 k-point 42 :   0.0000 0.0000 0.2500  plane waves:    8637
 k-point 43 :   0.1111 0.0000 0.2500  plane waves:    8645
 k-point 44 :   0.2222 0.0000 0.2500  plane waves:    8666
 k-point 45 :   0.3333-0.0000 0.2500  plane waves:    8669
 k-point 46 :   0.4444 0.0000 0.2500  plane waves:    8693
 k-point 47 :  -0.4444-0.0000 0.2500  plane waves:    8693
 k-point 48 :  -0.3333 0.0000 0.2500  plane waves:    8669
 k-point 49 :  -0.2222-0.0000 0.2500  plane waves:    8666
 k-point 50 :  -0.1111 0.0000 0.2500  plane waves:    8645
 k-point 51 :   0.0000 0.1111 0.2500  plane waves:    8645
 k-point 52 :   0.1111 0.1111 0.2500  plane waves:    8653
 k-point 53 :   0.2222 0.1111 0.2500  plane waves:    8672
 k-point 54 :   0.3333 0.1111 0.2500  plane waves:    8673
 k-point 55 :   0.4444 0.1111 0.2500  plane waves:    8687
 k-point 56 :  -0.4444 0.1111 0.2500  plane waves:    8676
 k-point 57 :  -0.3333 0.1111 0.2500  plane waves:    8673
 k-point 58 :  -0.2222 0.1111 0.2500  plane waves:    8661
 k-point 59 :  -0.1111 0.1111 0.2500  plane waves:    8649
 k-point 60 :   0.0000 0.2222 0.2500  plane waves:    8666
 k-point 61 :   0.1111 0.2222 0.2500  plane waves:    8672
 k-point 62 :   0.2222 0.2222 0.2500  plane waves:    8669
 k-point 63 :   0.3333 0.2222 0.2500  plane waves:    8676
 k-point 64 :   0.4444 0.2222 0.2500  plane waves:    8677
 k-point 65 :  -0.4444 0.2222 0.2500  plane waves:    8667
 k-point 66 :  -0.3333 0.2222 0.2500  plane waves:    8675
 k-point 67 :  -0.2222 0.2222 0.2500  plane waves:    8666
 k-point 68 :  -0.1111 0.2222 0.2500  plane waves:    8661
 k-point 69 :  -0.0000 0.3333 0.2500  plane waves:    8669
 k-point 70 :   0.1111 0.3333 0.2500  plane waves:    8673
 k-point 71 :   0.2222 0.3333 0.2500  plane waves:    8676
 k-point 72 :   0.3333 0.3333 0.2500  plane waves:    8685
 k-point 73 :   0.4444 0.3333 0.2500  plane waves:    8680
 k-point 74 :  -0.4444 0.3333 0.2500  plane waves:    8673
 k-point 75 :  -0.3333 0.3333 0.2500  plane waves:    8672
 k-point 76 :  -0.2222 0.3333 0.2500  plane waves:    8675
 k-point 77 :  -0.1111 0.3333 0.2500  plane waves:    8673
 k-point 78 :   0.0000 0.4444 0.2500  plane waves:    8693
 k-point 79 :   0.1111 0.4444 0.2500  plane waves:    8687
 k-point 80 :   0.2222 0.4444 0.2500  plane waves:    8677
 k-point 81 :   0.3333 0.4444 0.2500  plane waves:    8680
 k-point 82 :   0.4444 0.4444 0.2500  plane waves:    8692
 k-point 83 :  -0.4444 0.4444 0.2500  plane waves:    8688
 k-point 84 :  -0.3333 0.4444 0.2500  plane waves:    8673
 k-point 85 :  -0.2222 0.4444 0.2500  plane waves:    8667
 k-point 86 :  -0.1111 0.4444 0.2500  plane waves:    8676
 k-point 87 :   0.0000-0.4444 0.2500  plane waves:    8693
 k-point 88 :   0.1111-0.4444 0.2500  plane waves:    8676
 k-point 89 :   0.2222-0.4444 0.2500  plane waves:    8667
 k-point 90 :   0.3333-0.4444 0.2500  plane waves:    8673
 k-point 91 :   0.4444-0.4444 0.2500  plane waves:    8688
 k-point 92 :  -0.4444-0.4444 0.2500  plane waves:    8692
 k-point 93 :  -0.3333-0.4444 0.2500  plane waves:    8680
 k-point 94 :  -0.2222-0.4444 0.2500  plane waves:    8677
 k-point 95 :  -0.1111-0.4444 0.2500  plane waves:    8687
 k-point 96 :   0.0000-0.3333 0.2500  plane waves:    8669
 k-point 97 :   0.1111-0.3333 0.2500  plane waves:    8673
 k-point 98 :   0.2222-0.3333 0.2500  plane waves:    8675
 k-point 99 :   0.3333-0.3333 0.2500  plane waves:    8672
 k-point ** :   0.4444-0.3333 0.2500  plane waves:    8673
 k-point ** :  -0.4444-0.3333 0.2500  plane waves:    8680
 k-point ** :  -0.3333-0.3333 0.2500  plane waves:    8685
 k-point ** :  -0.2222-0.3333 0.2500  plane waves:    8676
 k-point ** :  -0.1111-0.3333 0.2500  plane waves:    8673
 k-point ** :   0.0000-0.2222 0.2500  plane waves:    8666
 k-point ** :   0.1111-0.2222 0.2500  plane waves:    8661
 k-point ** :   0.2222-0.2222 0.2500  plane waves:    8666
 k-point ** :   0.3333-0.2222 0.2500  plane waves:    8675
 k-point ** :   0.4444-0.2222 0.2500  plane waves:    8667
 k-point ** :  -0.4444-0.2222 0.2500  plane waves:    8677
 k-point ** :  -0.3333-0.2222 0.2500  plane waves:    8676
 k-point ** :  -0.2222-0.2222 0.2500  plane waves:    8669
 k-point ** :  -0.1111-0.2222 0.2500  plane waves:    8672
 k-point ** :   0.0000-0.1111 0.2500  plane waves:    8645
 k-point ** :   0.1111-0.1111 0.2500  plane waves:    8649
 k-point ** :   0.2222-0.1111 0.2500  plane waves:    8661
 k-point ** :   0.3333-0.1111 0.2500  plane waves:    8673
 k-point ** :   0.4444-0.1111 0.2500  plane waves:    8676
 k-point ** :  -0.4444-0.1111 0.2500  plane waves:    8687
 k-point ** :  -0.3333-0.1111 0.2500  plane waves:    8673
 k-point ** :  -0.2222-0.1111 0.2500  plane waves:    8672
 k-point ** :  -0.1111-0.1111 0.2500  plane waves:    8653
 k-point ** :   0.0000 0.0000 0.5000  plane waves:    8606
 k-point ** :   0.1111 0.0000 0.5000  plane waves:    8652
 k-point ** :   0.2222 0.0000 0.5000  plane waves:    8652
 k-point ** :   0.3333-0.0000 0.5000  plane waves:    8682
 k-point ** :   0.4444 0.0000 0.5000  plane waves:    8672
 k-point ** :   0.0000 0.1111 0.5000  plane waves:    8652
 k-point ** :   0.1111 0.1111 0.5000  plane waves:    8646
 k-point ** :   0.2222 0.1111 0.5000  plane waves:    8678
 k-point ** :   0.3333 0.1111 0.5000  plane waves:    8678
 k-point ** :   0.4444 0.1111 0.5000  plane waves:    8700
 k-point ** :  -0.4444 0.1111 0.5000  plane waves:    8678
 k-point ** :  -0.3333 0.1111 0.5000  plane waves:    8680
 k-point ** :  -0.2222 0.1111 0.5000  plane waves:    8642
 k-point ** :  -0.1111 0.1111 0.5000  plane waves:    8658
 k-point ** :   0.0000 0.2222 0.5000  plane waves:    8652
 k-point ** :   0.1111 0.2222 0.5000  plane waves:    8678
 k-point ** :   0.2222 0.2222 0.5000  plane waves:    8684
 k-point ** :   0.3333 0.2222 0.5000  plane waves:    8690
 k-point ** :   0.4444 0.2222 0.5000  plane waves:    8684
 k-point ** :  -0.4444 0.2222 0.5000  plane waves:    8686
 k-point ** :  -0.3333 0.2222 0.5000  plane waves:    8678
 k-point ** :  -0.2222 0.2222 0.5000  plane waves:    8656
 k-point ** :  -0.1111 0.2222 0.5000  plane waves:    8642
 k-point ** :  -0.0000 0.3333 0.5000  plane waves:    8682
 k-point ** :   0.1111 0.3333 0.5000  plane waves:    8678
 k-point ** :   0.2222 0.3333 0.5000  plane waves:    8690
 k-point ** :   0.3333 0.3333 0.5000  plane waves:    8674
 k-point ** :   0.4444 0.3333 0.5000  plane waves:    8688
 k-point ** :  -0.4444 0.3333 0.5000  plane waves:    8678
 k-point ** :  -0.3333 0.3333 0.5000  plane waves:    8680
 k-point ** :  -0.2222 0.3333 0.5000  plane waves:    8678
 k-point ** :  -0.1111 0.3333 0.5000  plane waves:    8680
 k-point ** :   0.0000 0.4444 0.5000  plane waves:    8672
 k-point ** :   0.1111 0.4444 0.5000  plane waves:    8700
 k-point ** :   0.2222 0.4444 0.5000  plane waves:    8684
 k-point ** :   0.3333 0.4444 0.5000  plane waves:    8688
 k-point ** :   0.4444 0.4444 0.5000  plane waves:    8702
 k-point ** :  -0.4444 0.4444 0.5000  plane waves:    8672
 k-point ** :  -0.3333 0.4444 0.5000  plane waves:    8678
 k-point ** :  -0.2222 0.4444 0.5000  plane waves:    8686
 k-point ** :  -0.1111 0.4444 0.5000  plane waves:    8678

 maximum and minimum number of plane-waves per node :      8702     8606

 maximum number of plane-waves:      8702
 maximum index in each direction: 
   IXMAX=   10   IYMAX=   10   IZMAX=   24
   IXMIN=  -10   IYMIN=  -10   IZMIN=  -25

 WARNING: aliasing errors must be expected set NGX to  42 to avoid them
 WARNING: aliasing errors must be expected set NGY to  42 to avoid them
 NGZ is ok and might be reduce to 100
 aliasing errors are usually negligible using standard VASP settings
 and one can safely disregard these warnings

 serial   3D FFT for wavefunctions
 parallel 3D FFT for charge:
    minimum data exchange during FFTs selected (reduces bandwidth)


 total amount of memory used by VASP on root node   478060. kBytes
========================================================================

   base      :      30000. kBytes
   nonl-proj :      95278. kBytes
   fftplans  :       8142. kBytes
   grid      :      17249. kBytes
   one-center:         98. kBytes
   wavefun   :     327293. kBytes
 
     INWAV:  cpu time    0.00: real time    0.00
 Broyden mixing: mesh for mixing (old mesh)
   NGX = 19   NGY = 19   NGZ = 49
  (NGX  = 80   NGY  = 80   NGZ  =200)
  gives a total of  17689 points

 initial charge density was supplied:
 charge density of overlapping atoms calculated
 number of electron     128.0000000 magnetization 
 keeping initial charge density in first step


--------------------------------------------------------------------------------------------------------


 Maximum index for augmentation-charges         1440 (set IRDMAX)


--------------------------------------------------------------------------------------------------------


 First call to EWALD:  gamma=   0.278
 Maximum number of real-space cells 4x 4x 2
 Maximum number of reciprocal cells 2x 2x 5

 FEWALD executed in parallel
    FEWALD:  cpu time    0.00: real time    0.00


----------------------------------------- Iteration    1(   1)  ---------------------------------------


    POTLOK:  cpu time    0.54: real time    0.54
    SETDIJ:  cpu time    0.01: real time    0.01
     EDDAV:  cpu time  109.50: real time  109.56
 BZINTS: Fermi energy: 16.666208;128.000000 electrons
         Band energy: 143.693835;  BLOECHL correction: -0.118542
       DOS:  cpu time    0.20: real time    0.20
    --------------------------------------------
      LOOP:  cpu time  110.26: real time  110.33

 eigenvalue-minimisations  : 27384
 total energy-change (2. order) : 0.5561092E+03  (-0.7274334E+04)
 number of electron     128.0000000 magnetization 
 augmentation part      128.0000000 magnetization 

 Free energy of the ion-electron system (eV)
  ---------------------------------------------------
  alpha Z        PSCENC =       321.12578185
  Ewald energy   TEWEN  =     -4083.58552775
  -Hartree energ DENC   =      -941.65728758
  -exchange      EXHF   =         0.00000000
  -V(xc)+E(xc)   XCENC  =       444.53849700
  PAW double counting   =      1210.60617908    -1247.42152856
  entropy T*S    EENTRO =         0.00000000
  eigenvalues    EBANDS =       143.69383476
  atomic energy  EATOM  =      4708.80920826
  ---------------------------------------------------
  free energy    TOTEN  =       556.10915705 eV

  energy without entropy =      556.10915705  energy(sigma->0) =      556.10915705


--------------------------------------------------------------------------------------------------------




----------------------------------------- Iteration    1(   2)  ---------------------------------------


     EDDAV:  cpu time  121.63: real time  121.73
 BZINTS: Fermi energy:  4.790220;128.000000 electrons
         Band energy:-678.714490;  BLOECHL correction: -0.000758
       DOS:  cpu time    0.09: real time    0.09
    --------------------------------------------
      LOOP:  cpu time  121.73: real time  121.83

 eigenvalue-minimisations  : 33852
 total energy-change (2. order) :-0.8224083E+03  (-0.7919904E+03)
 number of electron     128.0000000 magnetization 
 augmentation part      128.0000000 magnetization 

 Free energy of the ion-electron system (eV)
  ---------------------------------------------------
  alpha Z        PSCENC =       321.12578185
  Ewald energy   TEWEN  =     -4083.58552775
  -Hartree energ DENC   =      -941.65728758
  -exchange      EXHF   =         0.00000000
  -V(xc)+E(xc)   XCENC  =       444.53849700
  PAW double counting   =      1210.60617908    -1247.42152856
  entropy T*S    EENTRO =         0.00000000
  eigenvalues    EBANDS =      -678.71448960
  atomic energy  EATOM  =      4708.80920826
  ---------------------------------------------------
  free energy    TOTEN  =      -266.29916731 eV

  energy without entropy =     -266.29916731  energy(sigma->0) =     -266.29916731


--------------------------------------------------------------------------------------------------------




----------------------------------------- Iteration    1(   3)  ---------------------------------------


     EDDAV:  cpu time  139.46: real time  139.53
 BZINTS: Fermi energy:  4.143825;128.000000 electrons
         Band energy:-723.759188;  BLOECHL correction: -0.000225
       DOS:  cpu time    0.15: real time    0.15
    --------------------------------------------
      LOOP:  cpu time  139.61: real time  139.68

 eigenvalue-minimisations  : 33348
 total energy-change (2. order) :-0.4504470E+02  (-0.4458721E+02)
 number of electron     128.0000000 magnetization 
 augmentation part      128.0000000 magnetization 

 Free energy of the ion-electron system (eV)
  ---------------------------------------------------
  alpha Z        PSCENC =       321.12578185
  Ewald energy   TEWEN  =     -4083.58552775
  -Hartree energ DENC   =      -941.65728758
  -exchange      EXHF   =         0.00000000
  -V(xc)+E(xc)   XCENC  =       444.53849700
  PAW double counting   =      1210.60617908    -1247.42152856
  entropy T*S    EENTRO =         0.00000000
  eigenvalues    EBANDS =      -723.75918794
  atomic energy  EATOM  =      4708.80920826
  ---------------------------------------------------
  free energy    TOTEN  =      -311.34386565 eV

  energy without entropy =     -311.34386565  energy(sigma->0) =     -311.34386565


--------------------------------------------------------------------------------------------------------




----------------------------------------- Iteration    1(   4)  ---------------------------------------


     EDDAV:  cpu time  142.62: real time  142.70
 BZINTS: Fermi energy:  4.124161;128.000000 electrons
         Band energy:-724.566941;  BLOECHL correction: -0.000005
       DOS:  cpu time    0.08: real time    0.08
    --------------------------------------------
      LOOP:  cpu time  142.70: real time  142.78

 eigenvalue-minimisations  : 33960
 total energy-change (2. order) :-0.8077529E+00  (-0.8064174E+00)
 number of electron     128.0000000 magnetization 
 augmentation part      128.0000000 magnetization 

 Free energy of the ion-electron system (eV)
  ---------------------------------------------------
  alpha Z        PSCENC =       321.12578185
  Ewald energy   TEWEN  =     -4083.58552775
  -Hartree energ DENC   =      -941.65728758
  -exchange      EXHF   =         0.00000000
  -V(xc)+E(xc)   XCENC  =       444.53849700
  PAW double counting   =      1210.60617908    -1247.42152856
  entropy T*S    EENTRO =         0.00000000
  eigenvalues    EBANDS =      -724.56694085
  atomic energy  EATOM  =      4708.80920826
  ---------------------------------------------------
  free energy    TOTEN  =      -312.15161856 eV

  energy without entropy =     -312.15161856  energy(sigma->0) =     -312.15161856


--------------------------------------------------------------------------------------------------------




----------------------------------------- Iteration    1(   5)  ---------------------------------------


     EDDAV:  cpu time  159.47: real time  159.56
 BZINTS: Fermi energy:  4.124121;128.000000 electrons
         Band energy:-724.590336;  BLOECHL correction: -0.000005
       DOS:  cpu time    0.13: real time    0.13
    CHARGE:  cpu time    6.73: real time    6.73
    MIXING:  cpu time    0.01: real time    0.01
    --------------------------------------------
      LOOP:  cpu time  166.39: real time  166.48

 eigenvalue-minimisations  : 34152
 total energy-change (2. order) :-0.2339504E-01  (-0.2338514E-01)
 number of electron     128.0000013 magnetization 
 augmentation part        3.3927618 magnetization 

 Broyden mixing:
  rms(total) = 0.22062E+01    rms(broyden)= 0.22060E+01
  rms(prec ) = 0.26615E+01
  weight for this iteration     100.00

 Free energy of the ion-electron system (eV)
  ---------------------------------------------------
  alpha Z        PSCENC =       321.12578185
  Ewald energy   TEWEN  =     -4083.58552775
  -Hartree energ DENC   =      -941.65728758
  -exchange      EXHF   =         0.00000000
  -V(xc)+E(xc)   XCENC  =       444.53849700
  PAW double counting   =      1210.60617908    -1247.42152856
  entropy T*S    EENTRO =         0.00000000
  eigenvalues    EBANDS =      -724.59033589
  atomic energy  EATOM  =      4708.80920826
  ---------------------------------------------------
  free energy    TOTEN  =      -312.17501359 eV

  energy without entropy =     -312.17501359  energy(sigma->0) =     -312.17501359


--------------------------------------------------------------------------------------------------------




----------------------------------------- Iteration    1(   6)  ---------------------------------------


    POTLOK:  cpu time    0.40: real time    0.40
    SETDIJ:  cpu time    0.01: real time    0.01
     EDDAV:  cpu time  119.20: real time  119.26
 BZINTS: Fermi energy:  4.795794;128.000000 electrons
         Band energy:-595.411979;  BLOECHL correction:  0.000000
       DOS:  cpu time    0.04: real time    0.04
    CHARGE:  cpu time    6.36: real time    6.36
    MIXING:  cpu time    0.01: real time    0.01
    --------------------------------------------
      LOOP:  cpu time  126.02: real time  126.09

 eigenvalue-minimisations  : 31296
 total energy-change (2. order) : 0.1401954E+02  (-0.1444846E+01)
 number of electron     128.0000012 magnetization 
 augmentation part        3.2399943 magnetization 

 Broyden mixing:
  rms(total) = 0.11561E+01    rms(broyden)= 0.11561E+01
  rms(prec ) = 0.13822E+01
  weight for this iteration     100.00

 eigenvalues of (default mixing * dielectric matrix)
  average eigenvalue GAMMA=   2.0357
  2.0357

 Free energy of the ion-electron system (eV)
  ---------------------------------------------------
  alpha Z        PSCENC =       321.12578185
  Ewald energy   TEWEN  =     -4083.58552775
  -Hartree energ DENC   =     -1062.08366084
  -exchange      EXHF   =         0.00000000
  -V(xc)+E(xc)   XCENC  =       452.71977900
  PAW double counting   =      1640.66204872    -1680.39112412
  entropy T*S    EENTRO =         0.00000000
  eigenvalues    EBANDS =      -595.41197869
  atomic energy  EATOM  =      4708.80920826
  ---------------------------------------------------
  free energy    TOTEN  =      -298.15547357 eV

  energy without entropy =     -298.15547357  energy(sigma->0) =     -298.15547357


--------------------------------------------------------------------------------------------------------




----------------------------------------- Iteration    1(   7)  ---------------------------------------


    POTLOK:  cpu time    0.39: real time    0.39
    SETDIJ:  cpu time    0.02: real time    0.02
     EDDAV:  cpu time  114.32: real time  114.38
 BZINTS: Fermi energy:  5.444812;128.000000 electrons
         Band energy:-465.137410;  BLOECHL correction:  0.000000
       DOS:  cpu time    0.03: real time    0.03
    CHARGE:  cpu time    4.10: real time    4.10
    MIXING:  cpu time    0.00: real time    0.00
    --------------------------------------------
      LOOP:  cpu time  118.87: real time  118.94

 eigenvalue-minimisations  : 31152
 total energy-change (2. order) : 0.4368399E+01  (-0.1470902E+01)
 number of electron     128.0000011 magnetization 
 augmentation part        3.0785349 magnetization 

 Broyden mixing:
  rms(total) = 0.18768E+00    rms(broyden)= 0.18761E+00
  rms(prec ) = 0.20255E+00
  weight for this iteration     100.00

 eigenvalues of (default mixing * dielectric matrix)
  average eigenvalue GAMMA=   2.1566
  2.0621  2.2510

 Free energy of the ion-electron system (eV)
  ---------------------------------------------------
  alpha Z        PSCENC =       321.12578185
  Ewald energy   TEWEN  =     -4083.58552775
  -Hartree energ DENC   =     -1194.84515980
  -exchange      EXHF   =         0.00000000
  -V(xc)+E(xc)   XCENC  =       461.95607806
  PAW double counting   =      2177.98972798    -2220.09977377
  entropy T*S    EENTRO =         0.00000000
  eigenvalues    EBANDS =      -465.13740959
  atomic energy  EATOM  =      4708.80920826
  ---------------------------------------------------
  free energy    TOTEN  =      -293.78707476 eV

  energy without entropy =     -293.78707476  energy(sigma->0) =     -293.78707476


--------------------------------------------------------------------------------------------------------




----------------------------------------- Iteration    1(   8)  ---------------------------------------


    POTLOK:  cpu time    0.35: real time    0.35
    SETDIJ:  cpu time    0.01: real time    0.01
     EDDAV:  cpu time  101.97: real time  102.02
 BZINTS: Fermi energy:  5.404452;128.000000 electrons
         Band energy:-468.429986;  BLOECHL correction:  0.000000
       DOS:  cpu time    0.03: real time    0.03
    CHARGE:  cpu time    4.72: real time    4.72
    MIXING:  cpu time    0.01: real time    0.01
    --------------------------------------------
      LOOP:  cpu time  107.09: real time  107.14

 eigenvalue-minimisations  : 30984
 total energy-change (2. order) :-0.4739480E-01  (-0.3376208E-01)
 number of electron     128.0000011 magnetization 
 augmentation part        3.0734058 magnetization 

 Broyden mixing:
  rms(total) = 0.25080E-01    rms(broyden)= 0.25063E-01
  rms(prec ) = 0.30970E-01
  weight for this iteration     100.00

 eigenvalues of (default mixing * dielectric matrix)
  average eigenvalue GAMMA=   1.7934
  0.9383  2.4846  1.9573

 Free energy of the ion-electron system (eV)
  ---------------------------------------------------
  alpha Z        PSCENC =       321.12578185
  Ewald energy   TEWEN  =     -4083.58552775
  -Hartree energ DENC   =     -1192.19895776
  -exchange      EXHF   =         0.00000000
  -V(xc)+E(xc)   XCENC  =       461.82110280
  PAW double counting   =      2214.86724279    -2256.24333352
  entropy T*S    EENTRO =         0.00000000
  eigenvalues    EBANDS =      -468.42998622
  atomic energy  EATOM  =      4708.80920826
  ---------------------------------------------------
  free energy    TOTEN  =      -293.83446955 eV

  energy without entropy =     -293.83446955  energy(sigma->0) =     -293.83446955


--------------------------------------------------------------------------------------------------------




----------------------------------------- Iteration    1(   9)  ---------------------------------------


    POTLOK:  cpu time    0.19: real time    0.19
    SETDIJ:  cpu time    0.02: real time    0.02
     EDDAV:  cpu time  145.17: real time  145.25
 BZINTS: Fermi energy:  5.423068;128.000000 electrons
         Band energy:-466.719036;  BLOECHL correction:  0.000000
       DOS:  cpu time    0.05: real time    0.06
    CHARGE:  cpu time    5.67: real time    5.68
    MIXING:  cpu time    0.01: real time    0.01
    --------------------------------------------
      LOOP:  cpu time  151.12: real time  151.20

 eigenvalue-minimisations  : 32916
 total energy-change (2. order) :-0.1638497E-02  (-0.1089943E-02)
 number of electron     128.0000011 magnetization 
 augmentation part        3.0703327 magnetization 

 Broyden mixing:
  rms(total) = 0.10533E-01    rms(broyden)= 0.10530E-01
  rms(prec ) = 0.13258E-01
  weight for this iteration     100.00

 eigenvalues of (default mixing * dielectric matrix)
  average eigenvalue GAMMA=   1.7644
  0.9759  2.4828  2.0276  1.5712

 Free energy of the ion-electron system (eV)
  ---------------------------------------------------
  alpha Z        PSCENC =       321.12578185
  Ewald energy   TEWEN  =     -4083.58552775
  -Hartree energ DENC   =     -1194.07854756
  -exchange      EXHF   =         0.00000000
  -V(xc)+E(xc)   XCENC  =       461.96429511
  PAW double counting   =      2224.53382092    -2265.88610288
  entropy T*S    EENTRO =         0.00000000
  eigenvalues    EBANDS =      -466.71903600
  atomic energy  EATOM  =      4708.80920826
  ---------------------------------------------------
  free energy    TOTEN  =      -293.83610805 eV

  energy without entropy =     -293.83610805  energy(sigma->0) =     -293.83610805


--------------------------------------------------------------------------------------------------------




----------------------------------------- Iteration    1(  10)  ---------------------------------------


    POTLOK:  cpu time    0.37: real time    0.37
    SETDIJ:  cpu time    0.01: real time    0.01
     EDDAV:  cpu time  166.76: real time  166.85
 BZINTS: Fermi energy:  5.424570;128.000000 electrons
         Band energy:-466.314395;  BLOECHL correction:  0.000000
       DOS:  cpu time    0.06: real time    0.06
    CHARGE:  cpu time    6.86: real time    6.86
    MIXING:  cpu time    0.01: real time    0.01
    --------------------------------------------
      LOOP:  cpu time  174.07: real time  174.16

 eigenvalue-minimisations  : 37704
 total energy-change (2. order) :-0.8335121E-03  (-0.4961336E-03)
 number of electron     128.0000011 magnetization 
 augmentation part        3.0696887 magnetization 

 Broyden mixing:
  rms(total) = 0.64839E-02    rms(broyden)= 0.64804E-02
  rms(prec ) = 0.99663E-02
  weight for this iteration     100.00

 eigenvalues of (default mixing * dielectric matrix)
  average eigenvalue GAMMA=   1.6436
  2.6325  1.9663  1.9663  0.8265  0.8265

 Free energy of the ion-electron system (eV)
  ---------------------------------------------------
[...]
     79      13.4238      0.00000
     80      13.4256      0.00000
     81      13.6642      0.00000
     82      13.6688      0.00000
     83      13.7153      0.00000
     84      13.7164      0.00000

 k-point   162 :      -0.2222    0.4444    0.5000
  band No.  band energies     occupation 
      1     -13.3425      2.00000
      2     -13.3421      2.00000
      3     -12.9675      2.00000
      4     -12.9669      2.00000
      5     -11.3988      2.00000
      6     -11.3974      2.00000
      7     -11.3926      2.00000
      8     -11.3910      2.00000
      9     -11.0656      2.00000
     10     -11.0641      2.00000
     11     -11.0593      2.00000
     12     -11.0576      2.00000
     13      -8.1080      2.00000
     14      -8.1062      2.00000
     15      -7.9627      2.00000
     16      -7.9609      2.00000
     17      -7.1023      2.00000
     18      -7.0987      2.00000
     19      -7.0213      2.00000
     20      -7.0179      2.00000
     21      -4.1301      2.00000
     22      -4.1299      2.00000
     23      -4.1225      2.00000
     24      -4.1213      2.00000
     25      -3.9539      2.00000
     26      -3.9536      2.00000
     27      -3.9468      2.00000
     28      -3.9452      2.00000
     29      -3.8177      2.00000
     30      -3.8154      2.00000
     31      -3.6679      2.00000
     32      -3.6655      2.00000
     33      -2.0354      2.00000
     34      -2.0341      2.00000
     35      -1.1840      2.00000
     36      -1.1840      2.00000
     37      -1.1727      2.00000
     38      -1.1711      2.00000
     39      -1.0814      2.00000
     40      -1.0811      2.00000
     41      -1.0698      2.00000
     42      -1.0682      2.00000
     43      -0.2315      2.00000
     44      -0.2273      2.00000
     45      -0.1683      2.00000
     46      -0.1634      2.00000
     47      -0.0511      2.00000
     48      -0.0495      2.00000
     49       0.2492      2.00000
     50       0.2509      2.00000
     51       0.2552      2.00000
     52       0.2570      2.00000
     53       0.7403      2.00000
     54       0.7455      2.00000
     55       0.7848      2.00000
     56       0.7890      2.00000
     57       2.0135      2.00000
     58       2.0156      2.00000
     59       2.0202      2.00000
     60       2.0223      2.00000
     61       3.6831      2.00000
     62       3.6859      2.00000
     63       4.4270      2.00000
     64       4.4291      2.00000
     65       6.7070      0.00000
     66       6.7113      0.00000
     67       6.7567      0.00000
     68       6.7598      0.00000
     69       9.7442      0.00000
     70       9.7461      0.00000
     71       9.7517      0.00000
     72       9.7539      0.00000
     73      10.5932      0.00000
     74      10.5961      0.00000
     75      10.5966      0.00000
     76      10.5997      0.00000
     77      12.5527      0.00000
     78      12.5570      0.00000
     79      13.9365      0.00000
     80      13.9400      0.00000
     81      14.1624      0.00000
     82      14.1647      0.00000
     83      14.1938      0.00000
     84      14.1972      0.00000

 k-point   163 :      -0.1111    0.4444    0.5000
  band No.  band energies     occupation 
      1     -13.2689      2.00000
      2     -13.2685      2.00000
      3     -12.8955      2.00000
      4     -12.8949      2.00000
      5     -11.9634      2.00000
      6     -11.9631      2.00000
      7     -11.6178      2.00000
      8     -11.6172      2.00000
      9     -10.6957      2.00000
     10     -10.6954      2.00000
     11     -10.3783      2.00000
     12     -10.3777      2.00000
     13      -8.8880      2.00000
     14      -8.8876      2.00000
     15      -8.6217      2.00000
     16      -8.6210      2.00000
     17      -6.3740      2.00000
     18      -6.3720      2.00000
     19      -6.1851      2.00000
     20      -6.1834      2.00000
     21      -4.7142      2.00000
     22      -4.7125      2.00000
     23      -4.5425      2.00000
     24      -4.5407      2.00000
     25      -3.7090      2.00000
     26      -3.7071      2.00000
     27      -3.5675      2.00000
     28      -3.5654      2.00000
     29      -3.4574      2.00000
     30      -3.4571      2.00000
     31      -3.2869      2.00000
     32      -3.2864      2.00000
     33      -2.2499      2.00000
     34      -2.2481      2.00000
     35      -2.1322      2.00000
     36      -2.1302      2.00000
     37      -1.9478      2.00000
     38      -1.9465      2.00000
     39      -0.5771      2.00000
     40      -0.5758      2.00000
     41      -0.4735      2.00000
     42      -0.4723      2.00000
     43      -0.4084      2.00000
     44      -0.4070      2.00000
     45      -0.3237      2.00000
     46      -0.3229      2.00000
     47      -0.2381      2.00000
     48      -0.2374      2.00000
     49       0.0283      2.00000
     50       0.0301      2.00000
     51       0.8096      2.00000
     52       0.8114      2.00000
     53       0.8769      2.00000
     54       0.8785      2.00000
     55       1.0584      2.00000
     56       1.0594      2.00000
     57       1.4290      2.00000
     58       1.4307      2.00000
     59       2.7226      2.00000
     60       2.7240      2.00000
     61       3.0294      2.00000
     62       3.0307      2.00000
     63       4.2554      2.00000
     64       4.2573      2.00000
     65       6.8645      0.00000
     66       6.8677      0.00000
     67       7.5243      0.00000
     68       7.5261      0.00000
     69       8.8247      0.00000
     70       8.8268      0.00000
     71       9.5996      0.00000
     72       9.6009      0.00000
     73      10.6456      0.00000
     74      10.6484      0.00000
     75      11.5207      0.00000
     76      11.5227      0.00000
     77      12.6120      0.00000
     78      12.6171      0.00000
     79      13.3955      0.00000
     80      13.3965      0.00000
     81      13.6612      0.00000
     82      13.6654      0.00000
     83      13.6929      0.00000
     84      13.6942      0.00000


--------------------------------------------------------------------------------------------------------


 soft charge-density along one line, spin component           1
         0         1         2         3         4         5         6         7         8         9
 total charge-density along one line
 
 pseudopotential strength for first ion, spin component:           1
  9.725   0.004  -0.000  -0.000   0.000   0.000   0.000  -0.000
  0.004  -0.002   0.000  -0.000  -0.000  -0.000   0.000   0.000
 -0.000   0.000  -3.902  -0.000   0.000  -0.015   0.000  -0.000
 -0.000  -0.000  -0.000  -3.897   0.000   0.000  -0.012  -0.000
  0.000  -0.000   0.000   0.000  -3.902  -0.000  -0.000  -0.015
  0.000  -0.000  -0.015   0.000  -0.000  -0.762  -0.000   0.000
  0.000   0.000   0.000  -0.012  -0.000  -0.000  -0.762   0.000
 -0.000   0.000  -0.000  -0.000  -0.015   0.000   0.000  -0.762
 total augmentation occupancy for first ion, spin component:           1
  1.472  -1.106   0.000  -0.000  -0.000   0.000   0.000  -0.000
 -1.106   1.039  -0.000  -0.000   0.000  -0.000  -0.000   0.000
  0.000  -0.000   1.225  -0.000   0.000   0.225  -0.000  -0.000
 -0.000  -0.000  -0.000   0.925   0.000  -0.000   0.103   0.000
 -0.000   0.000   0.000   0.000   1.225  -0.000   0.000   0.225
  0.000  -0.000   0.225  -0.000  -0.000   0.047  -0.000  -0.000
  0.000  -0.000  -0.000   0.103   0.000  -0.000   0.013   0.000
 -0.000   0.000  -0.000   0.000   0.225  -0.000   0.000   0.047


------------------------ aborting loop because EDIFF is reached ----------------------------------------


    CHARGE:  cpu time    6.17: real time    6.18
    FORLOC:  cpu time    0.04: real time    0.04
    FORNL :  cpu time   39.63: real time   39.65
    STRESS:  cpu time   77.19: real time   77.23
    FORHAR:  cpu time    0.08: real time    0.08
    MIXING:  cpu time    0.01: real time    0.01
    OFIELD:  cpu time    0.00: real time    0.00

 ---------------------------------------------------------------------------------------------

         DFTD3 V3.0 Rev 1        
 IVDW         = 12
 DF pbe       
 parameters
 VDW_S6       =    1.0000
 VDW_S8       =    0.7875
 VDW_A1       =    0.4289
 VDW_A2       =    4.4407
 k1-k3        =   16.0000    1.3333   -4.0000
 VDW_RADIUS   =   50.2022 A
 VDW_CNRADIUS =   21.1671 A
 Edisp (eV)   -5.51596

 E6    (eV) :    -3.9361
 E8    (eV) :    -1.5798
 % E8        : 28.64
    FORVDW:  cpu time    0.35: real time    0.46

  FORCE on cell =-STRESS in cart. coord.  units (eV):
  Direction    XX          YY          ZZ          XY          YZ          ZX
  --------------------------------------------------------------------------------------
  Alpha Z   321.12578   321.12578   321.12578
  Ewald     221.37800   220.87988 -4525.86313     0.38177     0.00068    -0.00976
  Hartree  1015.13669  1015.12601  -835.33218     0.10225     0.00021    -0.00217
  E(xc)    -468.48497  -468.49198  -484.32787    -0.00303     0.00002    -0.00005
  Local   -2887.65025 -2887.23107  3442.80847    -0.40478    -0.00053     0.00927
  n-local  -112.23222  -112.34262  -103.31106    -0.08935     0.00026    -0.00051
  augment   -12.38829   -12.38743   -11.34754    -0.00055    -0.00000     0.00003
  Kinetic  1922.63999  1923.44851  2209.98717     0.57563    -0.00354     0.00821
  Fock        0.00000     0.00000     0.00000     0.00000     0.00000     0.00000
  vdW        -0.56506    -0.55367    -6.13149     0.00944    -0.00000    -0.00002
  -------------------------------------------------------------------------------------
  Total      -1.04033    -0.42660     7.60815     0.57138    -0.00291     0.00500
  in kB      -6.41513    -2.63061    46.91512     3.52338    -0.01795     0.03086
  external pressure =       12.62 kB  Pullay stress =        0.00 kB


 VOLUME and BASIS-vectors are now :
 -----------------------------------------------------------------------------
  energy-cutoff  :      600.00
  volume of cell :      259.82
      direct lattice vectors                 reciprocal lattice vectors
     4.932874498 -0.001919286  0.000000000     0.202767147  0.117172881  0.000000000
    -2.468099399  4.271034986  0.000000000     0.000091118  0.234187941  0.000000000
     0.000000000  0.000000000 12.335056354     0.000000000  0.000000000  0.081069755

  length of vectors
     4.932874871  4.932874871 12.335056354     0.234187958  0.234187958  0.081069755


 FORCES acting on ions
    electron-ion (+dipol)            ewald-force                    non-local-force                 convergence-correction
 -----------------------------------------------------------------------------------------------
   -.193E+00 0.648E-01 0.310E+00   0.189E+00 -.616E-01 -.309E+00   -.326E-02 0.262E-02 0.767E-02   0.355E-04 -.187E-04 0.924E-03
   0.142E+00 0.580E-01 0.829E+00   -.144E+00 -.539E-01 -.860E+00   0.240E-01 0.233E-02 0.724E-01   0.229E-04 -.143E-04 0.935E-03
   -.460E+00 -.284E+00 0.833E+00   0.515E+00 0.320E+00 -.865E+00   0.154E-01 -.238E-02 0.726E-01   0.291E-04 -.154E-04 0.936E-03
   -.470E+00 0.417E+00 0.824E+00   0.526E+00 -.447E+00 -.855E+00   0.143E-01 0.813E-02 0.721E-01   0.321E-04 -.246E-04 0.935E-03
   -.112E+00 0.647E-01 -.104E+00   0.106E+00 -.614E-01 0.103E+00   -.462E-02 0.262E-02 -.297E-02   0.981E-04 -.159E-04 0.898E-03
   -.112E+00 0.647E-01 -.105E+00   0.106E+00 -.614E-01 0.104E+00   -.461E-02 0.262E-02 -.284E-02   0.100E-03 -.206E-04 0.899E-03
   -.112E+00 0.646E-01 -.105E+00   0.106E+00 -.613E-01 0.104E+00   -.462E-02 0.261E-02 -.284E-02   0.982E-04 -.157E-04 0.896E-03
   -.112E+00 0.648E-01 -.105E+00   0.106E+00 -.615E-01 0.104E+00   -.462E-02 0.262E-02 -.284E-02   0.975E-04 -.145E-04 0.898E-03
   0.141E+00 -.782E-01 -.984E-01   -.136E+00 0.749E-01 0.997E-01   0.451E-02 -.260E-02 0.397E-02   0.409E-04 -.161E-04 -.122E-02
   0.810E-01 -.858E-01 -.122E+00   -.753E-01 0.827E-01 0.124E+00   0.459E-02 -.260E-02 0.391E-02   0.354E-04 -.127E-04 -.122E-02
   0.118E+00 -.298E-01 -.110E+00   -.112E+00 0.264E-01 0.112E+00   0.455E-02 -.266E-02 0.393E-02   0.334E-04 -.702E-05 -.122E-02
   0.107E+00 -.647E-01 -.744E-01   -.101E+00 0.615E-01 0.761E-01   0.444E-02 -.263E-02 0.241E-02   0.414E-04 -.101E-04 -.122E-02
   0.815E-01 -.435E-01 -.122E+00   -.758E-01 0.402E-01 0.124E+00   0.462E-02 -.260E-02 0.387E-02   0.314E-04 -.160E-04 -.600E-03
   0.141E+00 -.511E-01 -.988E-01   -.136E+00 0.481E-01 0.996E-01   0.454E-02 -.259E-02 0.390E-02   0.330E-04 -.189E-04 -.596E-03
   0.118E+00 -.988E-01 -.110E+00   -.113E+00 0.958E-01 0.111E+00   0.458E-02 -.253E-02 0.387E-02   0.321E-04 -.340E-04 -.599E-03
   0.107E+00 -.644E-01 -.755E-01   -.101E+00 0.613E-01 0.766E-01   0.445E-02 -.256E-02 0.237E-02   0.292E-04 -.325E-04 -.598E-03
   0.921E+00 -.609E-01 -.144E+01   -.104E+01 0.572E-01 0.148E+01   -.983E-01 -.268E-02 -.185E+00   -.382E-04 0.131E-04 0.981E-03
   -.107E+00 -.634E-01 0.371E+00   0.129E+00 0.607E-01 -.356E+00   0.235E-01 -.255E-02 -.226E-01   -.259E-04 0.146E-04 0.898E-03
   0.814E-01 0.455E-01 0.371E+00   -.848E-01 -.631E-01 -.356E+00   0.117E-01 -.925E-02 -.226E-01   -.264E-04 0.164E-04 0.896E-03
   0.819E-01 -.173E+00 0.371E+00   -.851E-01 0.185E+00 -.356E+00   0.116E-01 0.440E-02 -.226E-01   -.281E-04 0.174E-04 0.897E-03
   0.111E+00 -.637E-01 -.106E+00   -.106E+00 0.608E-01 0.105E+00   0.440E-02 -.250E-02 0.930E-03   -.980E-04 0.192E-04 0.874E-03
   0.110E+00 -.637E-01 -.104E+00   -.105E+00 0.608E-01 0.103E+00   0.440E-02 -.250E-02 0.574E-03   -.967E-04 0.166E-04 0.872E-03
   0.111E+00 -.635E-01 -.104E+00   -.105E+00 0.606E-01 0.103E+00   0.440E-02 -.250E-02 0.574E-03   -.100E-03 0.145E-04 0.875E-03
   0.111E+00 -.639E-01 -.104E+00   -.105E+00 0.609E-01 0.103E+00   0.440E-02 -.250E-02 0.572E-03   -.976E-04 0.154E-04 0.874E-03
   -.142E+00 0.854E-01 -.122E+00   0.136E+00 -.822E-01 0.123E+00   -.400E-02 0.235E-02 -.485E-03   -.353E-04 0.213E-04 -.120E-02
   -.800E-01 0.775E-01 -.983E-01   0.756E-01 -.744E-01 0.997E-01   -.457E-02 0.230E-02 0.154E-03   -.290E-04 0.883E-05 -.120E-02
   -.104E+00 0.280E-01 -.110E+00   0.991E-01 -.257E-01 0.112E+00   -.424E-02 0.282E-02 -.183E-03   -.228E-04 0.828E-05 -.120E-02
   -.116E+00 0.636E-01 -.749E-01   0.111E+00 -.608E-01 0.762E-01   -.448E-02 0.249E-02 -.658E-03   -.426E-04 0.120E-04 -.120E-02
   -.805E-01 0.498E-01 -.986E-01   0.761E-01 -.474E-01 0.994E-01   -.453E-02 0.263E-02 0.129E-03   -.394E-04 0.207E-04 -.574E-03
   -.141E+00 0.419E-01 -.122E+00   0.136E+00 -.395E-01 0.124E+00   -.397E-02 0.258E-02 -.571E-03   -.354E-04 0.206E-04 -.576E-03
   -.104E+00 0.985E-01 -.111E+00   0.991E-01 -.953E-01 0.112E+00   -.420E-02 0.211E-02 -.239E-03   -.399E-04 0.338E-04 -.575E-03
   -.116E+00 0.635E-01 -.758E-01   0.111E+00 -.608E-01 0.765E-01   -.445E-02 0.244E-02 -.725E-03   -.378E-04 0.365E-04 -.571E-03
 -----------------------------------------------------------------------------------------------
   0.161E-03 -.256E-04 0.112E-01   0.277E-13 -.283E-13 -.639E-13   -.129E-03 0.169E-04 -.113E-01   -.293E-05 0.249E-05 0.120E-03
 
 
 POSITION                                       TOTAL-FORCE (eV/Angst)
 -----------------------------------------------------------------------------------
      2.46402      0.00044      1.54188        -0.007828      0.005894      0.009621
      4.93046     -0.00052      1.54188         0.021700      0.006429      0.042237
      1.22997      2.13595      1.54188         0.070859      0.034264      0.041758
      3.69641      2.13499      1.54188         0.070080     -0.021966      0.042641
      2.46402      0.00044      7.70941        -0.010603      0.005937     -0.003260
      4.93046     -0.00052      7.70941        -0.010596      0.005939     -0.003206
      1.22997      2.13595      7.70941        -0.010605      0.005932     -0.003207
      3.69641      2.13499      7.70941        -0.010603      0.005943     -0.003204
     -1.23163      2.13412      4.62565         0.010009     -0.005961      0.004117
      1.23481      2.13316      4.62565         0.010355     -0.005756      0.004636
     -2.46568      4.26964      4.62565         0.010010     -0.006118      0.004365
      0.00076      4.26868      4.62565         0.010288     -0.005942      0.002848
     -1.23163      2.13412     10.79317         0.010443     -0.005944      0.004633
      1.23481      2.13316     10.79317         0.010123     -0.005677      0.004062
     -2.46568      4.26964     10.79317         0.010058     -0.005573      0.004331
      0.00076      4.26868     10.79317         0.010391     -0.005734      0.002842
      0.00039      1.42496      1.55117        -0.222853     -0.006446     -0.137063
      2.46311      1.42400      1.54188         0.047339     -0.005273     -0.006642
     -1.23737      3.56047      1.54188         0.008705     -0.027612     -0.006705
      1.22906      3.55952      1.54188         0.008813      0.017044     -0.006694
     -0.00332      1.42496      7.70941         0.009739     -0.005456      0.000682
      2.46311      1.42400      7.70941         0.009708     -0.005456      0.000388
     -1.23737      3.56047      7.70941         0.009717     -0.005451      0.000387
      1.22906      3.55952      7.70941         0.009716     -0.005462      0.000388
      1.23571      0.70960      4.62565        -0.009615      0.005578      0.000149
      3.70215      0.70864      4.62565        -0.009191      0.005494      0.000297
      0.00166      2.84512      4.62565        -0.009325      0.005175      0.000212
      2.46810      2.84416      4.62565        -0.009558      0.005403     -0.000584
      1.23571      0.70960     10.79317        -0.009073      0.005118      0.000297
      3.70215      0.70864     10.79317        -0.009511      0.005025      0.000099
      0.00166      2.84512     10.79317        -0.009206      0.005444      0.000184
      2.46810      2.84416     10.79317        -0.009487      0.005210     -0.000609
 -----------------------------------------------------------------------------------
    total drift:                                0.000029     -0.000006     -0.000010


--------------------------------------------------------------------------------------------------------



  FREE ENERGIE OF THE ION-ELECTRON SYSTEM (eV)
  ---------------------------------------------------
  free  energy   TOTEN  =      -299.35289393 eV

  energy  without entropy=     -299.35289393  energy(sigma->0) =     -299.35289393
 


--------------------------------------------------------------------------------------------------------


    POTLOK:  cpu time    0.33: real time    0.33


--------------------------------------------------------------------------------------------------------


     LOOP+:  cpu time 2684.79: real time 2687.28
    4ORBIT:  cpu time    0.00: real time    0.00
 BZINTS: Fermi energy:  5.428359;128.000000 electrons
         Band energy:-465.949660;  BLOECHL correction: -0.000000

 total amount of memory used by VASP on root node   478060. kBytes
========================================================================

   base      :      30000. kBytes
   nonl-proj :      95278. kBytes
   fftplans  :       8142. kBytes
   grid      :      17249. kBytes
   one-center:         98. kBytes
   wavefun   :     327293. kBytes
 
  
  
 General timing and accounting informations for this job:
 ========================================================
  
                  Total CPU time used (sec):     2714.466
                            User time (sec):     2140.678
                          System time (sec):      573.789
                         Elapsed time (sec):     2717.221
  
                   Maximum memory used (kb):      593648.
                   Average memory used (kb):           0.
  
                          Minor page faults:     46108110
                          Major page faults:            0
                 Voluntary context switches:         1003
