<?xml version="1.0" encoding="ISO-8859-1"?>
<modeling>
 <generator>
  <i name="program" type="string">vasp </i>
  <i name="version" type="string">5.3.5  </i>
  <i name="subversion" type="string">31Mar14 (build Nov 02 2014 15:17:37) complex                          parallel </i>
  <i name="platform" type="string">ion-Intel-MKL </i>
  <i name="date" type="string">2016 10 18 </i>
  <i name="time" type="string">01:11:01 </i>
 </generator>
 <incar>
  <i type="string" name="SYSTEM">graphite</i>
  <i type="string" name="PREC">accurate</i>
  <i type="int" name="NELM">   200</i>
  <i type="int" name="IBRION">    -1</i>
  <i name="EDIFF">      0.00000001</i>
  <i name="EDIFFG">      0.00100000</i>
  <i type="int" name="NSW">     0</i>
  <i type="int" name="ISIF">     2</i>
  <i name="ENCUT">    800.00000000</i>
  <i type="int" name="ISMEAR">    -5</i>
  <i type="logical" name="LWAVE"> F  </i>
  <i type="logical" name="LCHARG"> F  </i>
  <i type="int" name="NELM">   200</i>
  <i type="string" name="GGA">PE</i>
 </incar>
 <kpoints>
  <generation param="Gamma">
   <v type="int" name="divisions">       6        6        4 </v>
   <v name="usershift">      0.00000000       0.00000000       0.00000000 </v>
   <v name="genvec1">      0.16666667       0.00000000       0.00000000 </v>
   <v name="genvec2">     -0.00000000       0.16666667       0.00000000 </v>
   <v name="genvec3">      0.00000000       0.00000000       0.25000000 </v>
   <v name="shift">      0.00000000       0.00000000       0.00000000 </v>
  </generation>
  <varray name="kpointlist" >
   <v>       0.00000000       0.00000000       0.00000000 </v>
   <v>       0.16666667       0.00000000       0.00000000 </v>
   <v>       0.33333333       0.00000000       0.00000000 </v>
   <v>       0.50000000       0.00000000       0.00000000 </v>
   <v>       0.00000000       0.16666667       0.00000000 </v>
   <v>       0.16666667       0.16666667       0.00000000 </v>
   <v>       0.33333333       0.16666667       0.00000000 </v>
   <v>       0.50000000       0.16666667       0.00000000 </v>
   <v>      -0.33333333       0.16666667       0.00000000 </v>
   <v>      -0.16666667       0.16666667       0.00000000 </v>
   <v>      -0.00000000       0.33333333       0.00000000 </v>
   <v>       0.16666667       0.33333333       0.00000000 </v>
   <v>       0.33333333       0.33333333       0.00000000 </v>
   <v>       0.50000000       0.33333333       0.00000000 </v>
   <v>      -0.33333333       0.33333333       0.00000000 </v>
   <v>      -0.16666667       0.33333333       0.00000000 </v>
   <v>       0.00000000       0.50000000       0.00000000 </v>
   <v>       0.16666667       0.50000000       0.00000000 </v>
   <v>       0.33333333       0.50000000       0.00000000 </v>
   <v>       0.50000000       0.50000000       0.00000000 </v>
   <v>       0.00000000       0.00000000       0.25000000 </v>
   <v>       0.16666667       0.00000000       0.25000000 </v>
   <v>       0.33333333       0.00000000       0.25000000 </v>
   <v>       0.50000000       0.00000000       0.25000000 </v>
   <v>      -0.33333333       0.00000000       0.25000000 </v>
   <v>      -0.16666667       0.00000000       0.25000000 </v>
   <v>       0.00000000       0.16666667       0.25000000 </v>
   <v>       0.16666667       0.16666667       0.25000000 </v>
   <v>       0.33333333       0.16666667       0.25000000 </v>
   <v>       0.50000000       0.16666667       0.25000000 </v>
   <v>      -0.33333333       0.16666667       0.25000000 </v>
   <v>      -0.16666667       0.16666667       0.25000000 </v>
   <v>      -0.00000000       0.33333333       0.25000000 </v>
   <v>       0.16666667       0.33333333       0.25000000 </v>
   <v>       0.33333333       0.33333333       0.25000000 </v>
   <v>       0.50000000       0.33333333       0.25000000 </v>
   <v>      -0.33333333       0.33333333       0.25000000 </v>
   <v>      -0.16666667       0.33333333       0.25000000 </v>
   <v>       0.00000000       0.50000000       0.25000000 </v>
   <v>       0.16666667       0.50000000       0.25000000 </v>
   <v>       0.33333333       0.50000000       0.25000000 </v>
   <v>       0.50000000       0.50000000       0.25000000 </v>
   <v>      -0.33333333       0.50000000       0.25000000 </v>
   <v>      -0.16666667       0.50000000       0.25000000 </v>
   <v>       0.00000000      -0.33333333       0.25000000 </v>
   <v>       0.16666667      -0.33333333       0.25000000 </v>
   <v>       0.33333333      -0.33333333       0.25000000 </v>
   <v>       0.50000000      -0.33333333       0.25000000 </v>
   <v>      -0.33333333      -0.33333333       0.25000000 </v>
   <v>      -0.16666667      -0.33333333       0.25000000 </v>
   <v>       0.00000000      -0.16666667       0.25000000 </v>
   <v>       0.16666667      -0.16666667       0.25000000 </v>
   <v>       0.33333333      -0.16666667       0.25000000 </v>
   <v>       0.50000000      -0.16666667       0.25000000 </v>
   <v>      -0.33333333      -0.16666667       0.25000000 </v>
   <v>      -0.16666667      -0.16666667       0.25000000 </v>
   <v>       0.00000000       0.00000000       0.50000000 </v>
   <v>       0.16666667       0.00000000       0.50000000 </v>
   <v>       0.33333333       0.00000000       0.50000000 </v>
   <v>       0.50000000       0.00000000       0.50000000 </v>
   <v>       0.00000000       0.16666667       0.50000000 </v>
   <v>       0.16666667       0.16666667       0.50000000 </v>
   <v>       0.33333333       0.16666667       0.50000000 </v>
   <v>       0.50000000       0.16666667       0.50000000 </v>
   <v>      -0.33333333       0.16666667       0.50000000 </v>
   <v>      -0.16666667       0.16666667       0.50000000 </v>
   <v>      -0.00000000       0.33333333       0.50000000 </v>
   <v>       0.16666667       0.33333333       0.50000000 </v>
   <v>       0.33333333       0.33333333       0.50000000 </v>
   <v>       0.50000000       0.33333333       0.50000000 </v>
   <v>      -0.33333333       0.33333333       0.50000000 </v>
   <v>      -0.16666667       0.33333333       0.50000000 </v>
   <v>       0.00000000       0.50000000       0.50000000 </v>
   <v>       0.16666667       0.50000000       0.50000000 </v>
   <v>       0.33333333       0.50000000       0.50000000 </v>
   <v>       0.50000000       0.50000000       0.50000000 </v>
  </varray>
  <varray name="weights" >
   <v>       0.00694444 </v>
   <v>       0.01388889 </v>
   <v>       0.01388889 </v>
   <v>       0.00694444 </v>
   <v>       0.01388889 </v>
   <v>       0.01388889 </v>
   <v>       0.01388889 </v>
   <v>       0.01388889 </v>
   <v>       0.01388889 </v>
   <v>       0.01388889 </v>
   <v>       0.01388889 </v>
   <v>       0.01388889 </v>
   <v>       0.01388889 </v>
   <v>       0.01388889 </v>
   <v>       0.01388889 </v>
   <v>       0.01388889 </v>
   <v>       0.00694444 </v>
   <v>       0.01388889 </v>
   <v>       0.01388889 </v>
   <v>       0.00694444 </v>
   <v>       0.01388889 </v>
   <v>       0.01388889 </v>
   <v>       0.01388889 </v>
   <v>       0.01388889 </v>
   <v>       0.01388889 </v>
   <v>       0.01388889 </v>
   <v>       0.01388889 </v>
   <v>       0.01388889 </v>
   <v>       0.01388889 </v>
   <v>       0.01388889 </v>
   <v>       0.01388889 </v>
   <v>       0.01388889 </v>
   <v>       0.01388889 </v>
   <v>       0.01388889 </v>
   <v>       0.01388889 </v>
   <v>       0.01388889 </v>
   <v>       0.01388889 </v>
   <v>       0.01388889 </v>
   <v>       0.01388889 </v>
   <v>       0.01388889 </v>
   <v>       0.01388889 </v>
   <v>       0.01388889 </v>
   <v>       0.01388889 </v>
   <v>       0.01388889 </v>
   <v>       0.01388889 </v>
   <v>       0.01388889 </v>
   <v>       0.01388889 </v>
   <v>       0.01388889 </v>
   <v>       0.01388889 </v>
   <v>       0.01388889 </v>
   <v>       0.01388889 </v>
   <v>       0.01388889 </v>
   <v>       0.01388889 </v>
   <v>       0.01388889 </v>
   <v>       0.01388889 </v>
   <v>       0.01388889 </v>
   <v>       0.00694444 </v>
   <v>       0.01388889 </v>
   <v>       0.01388889 </v>
   <v>       0.00694444 </v>
   <v>       0.01388889 </v>
   <v>       0.01388889 </v>
   <v>       0.01388889 </v>
   <v>       0.01388889 </v>
   <v>       0.01388889 </v>
   <v>       0.01388889 </v>
   <v>       0.01388889 </v>
   <v>       0.01388889 </v>
   <v>       0.01388889 </v>
   <v>       0.01388889 </v>
   <v>       0.01388889 </v>
   <v>       0.01388889 </v>
   <v>       0.00694444 </v>
   <v>       0.01388889 </v>
   <v>       0.01388889 </v>
   <v>       0.00694444 </v>
  </varray>
  <varray name="tetrahedronlist"  type="int" >
   <v type="int" >        2        2        5        6       27 </v>
   <v type="int" >        2        1        2        5       27 </v>
   <v type="int" >        2        1        2       21       27 </v>
   <v type="int" >        2        2        6       27       28 </v>
   <v type="int" >        2        2       22       27       28 </v>
   <v type="int" >        2        2       21       22       27 </v>
   <v type="int" >        2        3        6        7       28 </v>
   <v type="int" >        2        2        3        6       28 </v>
   <v type="int" >        2        2        3       22       28 </v>
   <v type="int" >        2        3        7       28       29 </v>
   <v type="int" >        2        3       23       28       29 </v>
   <v type="int" >        2        3       22       23       28 </v>
   <v type="int" >        2        4        7        8       29 </v>
   <v type="int" >        2        3        4        7       29 </v>
   <v type="int" >        2        3        4       23       29 </v>
   <v type="int" >        2        4        8       29       30 </v>
   <v type="int" >        2        4       24       29       30 </v>
   <v type="int" >        2        4       23       24       29 </v>
   <v type="int" >        2        3        8        9       30 </v>
   <v type="int" >        2        3        4        8       30 </v>
   <v type="int" >        2        3        4       24       30 </v>
   <v type="int" >        2        3        9       30       31 </v>
   <v type="int" >        2        3       25       30       31 </v>
   <v type="int" >        2        3       24       25       30 </v>
   <v type="int" >        2        2        9       10       31 </v>
   <v type="int" >        2        2        3        9       31 </v>
   <v type="int" >        2        2        3       25       31 </v>
   <v type="int" >        2        2       10       31       32 </v>
   <v type="int" >        2        2       26       31       32 </v>
   <v type="int" >        2        2       25       26       31 </v>
   <v type="int" >        2        1        5       10       32 </v>
   <v type="int" >        2        1        2       10       32 </v>
   <v type="int" >        2        1        2       26       32 </v>
   <v type="int" >        2        1        5       27       32 </v>
   <v type="int" >        2        1       21       27       32 </v>
   <v type="int" >        2        1       21       26       32 </v>
   <v type="int" >        2        6       11       12       33 </v>
   <v type="int" >        2        5        6       11       33 </v>
   <v type="int" >        2        5        6       27       33 </v>
   <v type="int" >        2        6       12       33       34 </v>
   <v type="int" >        2        6       28       33       34 </v>
   <v type="int" >        2        6       27       28       33 </v>
   <v type="int" >        2        7       12       13       34 </v>
   <v type="int" >        2        6        7       12       34 </v>
   <v type="int" >        2        6        7       28       34 </v>
   <v type="int" >        2        7       13       34       35 </v>
   <v type="int" >        2        7       29       34       35 </v>
   <v type="int" >        2        7       28       29       34 </v>
   <v type="int" >        2        8       13       14       35 </v>
   <v type="int" >        2        7        8       13       35 </v>
   <v type="int" >        2        7        8       29       35 </v>
   <v type="int" >        2        8       14       35       36 </v>
   <v type="int" >        2        8       30       35       36 </v>
   <v type="int" >        2        8       29       30       35 </v>
   <v type="int" >        2        9       14       15       36 </v>
   <v type="int" >        2        8        9       14       36 </v>
   <v type="int" >        2        8        9       30       36 </v>
   <v type="int" >        2        9       15       36       37 </v>
   <v type="int" >        2        9       31       36       37 </v>
   <v type="int" >        2        9       30       31       36 </v>
   <v type="int" >        2       10       15       16       37 </v>
   <v type="int" >        2        9       10       15       37 </v>
   <v type="int" >        2        9       10       31       37 </v>
   <v type="int" >        2       10       16       37       38 </v>
   <v type="int" >        2       10       32       37       38 </v>
   <v type="int" >        2       10       31       32       37 </v>
   <v type="int" >        2        5       11       16       38 </v>
   <v type="int" >        2        5       10       16       38 </v>
   <v type="int" >        2        5       10       32       38 </v>
   <v type="int" >        2        5       11       33       38 </v>
   <v type="int" >        2        5       27       33       38 </v>
   <v type="int" >        2        5       27       32       38 </v>
   <v type="int" >        2       12       17       18       39 </v>
   <v type="int" >        2       11       12       17       39 </v>
   <v type="int" >        2       11       12       33       39 </v>
   <v type="int" >        2       12       18       39       40 </v>
   <v type="int" >        2       12       34       39       40 </v>
   <v type="int" >        2       12       33       34       39 </v>
   <v type="int" >        2       13       18       19       40 </v>
   <v type="int" >        2       12       13       18       40 </v>
   <v type="int" >        2       12       13       34       40 </v>
   <v type="int" >        2       13       19       40       41 </v>
   <v type="int" >        2       13       35       40       41 </v>
   <v type="int" >        2       13       34       35       40 </v>
   <v type="int" >        2       14       19       20       41 </v>
   <v type="int" >        2       13       14       19       41 </v>
   <v type="int" >        2       13       14       35       41 </v>
   <v type="int" >        2       14       20       41       42 </v>
   <v type="int" >        2       14       36       41       42 </v>
   <v type="int" >        2       14       35       36       41 </v>
   <v type="int" >        2       15       19       20       42 </v>
   <v type="int" >        2       14       15       20       42 </v>
   <v type="int" >        2       14       15       36       42 </v>
   <v type="int" >        2       15       19       42       43 </v>
   <v type="int" >        2       15       37       42       43 </v>
   <v type="int" >        2       15       36       37       42 </v>
   <v type="int" >        2       16       18       19       43 </v>
   <v type="int" >        2       15       16       19       43 </v>
   <v type="int" >        2       15       16       37       43 </v>
   <v type="int" >        2       16       18       43       44 </v>
   <v type="int" >        2       16       38       43       44 </v>
   <v type="int" >        2       16       37       38       43 </v>
   <v type="int" >        2       11       17       18       44 </v>
   <v type="int" >        2       11       16       18       44 </v>
   <v type="int" >        2       11       16       38       44 </v>
   <v type="int" >        2       11       17       39       44 </v>
   <v type="int" >        2       11       33       39       44 </v>
   <v type="int" >        2       11       33       38       44 </v>
   <v type="int" >        2       11       16       18       45 </v>
   <v type="int" >        2       11       17       18       45 </v>
   <v type="int" >        2       17       18       39       45 </v>
   <v type="int" >        2       16       18       45       46 </v>
   <v type="int" >        2       18       40       45       46 </v>
   <v type="int" >        2       18       39       40       45 </v>
   <v type="int" >        2       15       16       19       46 </v>
   <v type="int" >        2       16       18       19       46 </v>
   <v type="int" >        2       18       19       40       46 </v>
   <v type="int" >        2       15       19       46       47 </v>
   <v type="int" >        2       19       41       46       47 </v>
   <v type="int" >        2       19       40       41       46 </v>
   <v type="int" >        2       14       15       20       47 </v>
   <v type="int" >        2       15       19       20       47 </v>
   <v type="int" >        2       19       20       41       47 </v>
   <v type="int" >        2       14       20       47       48 </v>
   <v type="int" >        2       20       42       47       48 </v>
   <v type="int" >        2       20       41       42       47 </v>
   <v type="int" >        2       13       14       19       48 </v>
   <v type="int" >        2       14       19       20       48 </v>
   <v type="int" >        2       19       20       42       48 </v>
   <v type="int" >        2       13       19       48       49 </v>
   <v type="int" >        2       19       43       48       49 </v>
   <v type="int" >        2       19       42       43       48 </v>
   <v type="int" >        2       12       13       18       49 </v>
   <v type="int" >        2       13       18       19       49 </v>
   <v type="int" >        2       18       19       43       49 </v>
   <v type="int" >        2       12       18       49       50 </v>
   <v type="int" >        2       18       44       49       50 </v>
   <v type="int" >        2       18       43       44       49 </v>
   <v type="int" >        2       11       12       17       50 </v>
   <v type="int" >        2       12       17       18       50 </v>
   <v type="int" >        2       17       18       44       50 </v>
   <v type="int" >        2       11       17       45       50 </v>
   <v type="int" >        2       17       39       45       50 </v>
   <v type="int" >        2       17       39       44       50 </v>
   <v type="int" >        2        5       10       16       51 </v>
   <v type="int" >        2        5       11       16       51 </v>
   <v type="int" >        2       11       16       45       51 </v>
   <v type="int" >        2       10       16       51       52 </v>
   <v type="int" >        2       16       46       51       52 </v>
   <v type="int" >        2       16       45       46       51 </v>
   <v type="int" >        2        9       10       15       52 </v>
   <v type="int" >        2       10       15       16       52 </v>
   <v type="int" >        2       15       16       46       52 </v>
   <v type="int" >        2        9       15       52       53 </v>
   <v type="int" >        2       15       47       52       53 </v>
   <v type="int" >        2       15       46       47       52 </v>
   <v type="int" >        2        8        9       14       53 </v>
   <v type="int" >        2        9       14       15       53 </v>
   <v type="int" >        2       14       15       47       53 </v>
   <v type="int" >        2        8       14       53       54 </v>
   <v type="int" >        2       14       48       53       54 </v>
   <v type="int" >        2       14       47       48       53 </v>
   <v type="int" >        2        7        8       13       54 </v>
   <v type="int" >        2        8       13       14       54 </v>
   <v type="int" >        2       13       14       48       54 </v>
   <v type="int" >        2        7       13       54       55 </v>
   <v type="int" >        2       13       49       54       55 </v>
   <v type="int" >        2       13       48       49       54 </v>
   <v type="int" >        2        6        7       12       55 </v>
   <v type="int" >        2        7       12       13       55 </v>
   <v type="int" >        2       12       13       49       55 </v>
   <v type="int" >        2        6       12       55       56 </v>
   <v type="int" >        2       12       50       55       56 </v>
   <v type="int" >        2       12       49       50       55 </v>
   <v type="int" >        2        5        6       11       56 </v>
   <v type="int" >        2        6       11       12       56 </v>
   <v type="int" >        2       11       12       50       56 </v>
   <v type="int" >        2        5       11       51       56 </v>
   <v type="int" >        2       11       45       51       56 </v>
   <v type="int" >        2       11       45       50       56 </v>
   <v type="int" >        2        1        2       10       21 </v>
   <v type="int" >        2        1        5       10       21 </v>
   <v type="int" >        2        5       10       21       51 </v>
   <v type="int" >        2        2       10       21       22 </v>
   <v type="int" >        2       10       21       22       52 </v>
   <v type="int" >        2       10       21       51       52 </v>
   <v type="int" >        2        2        3        9       22 </v>
   <v type="int" >        2        2        9       10       22 </v>
   <v type="int" >        2        9       10       22       52 </v>
   <v type="int" >        2        3        9       22       23 </v>
   <v type="int" >        2        9       22       23       53 </v>
   <v type="int" >        2        9       22       52       53 </v>
   <v type="int" >        2        3        4        8       23 </v>
   <v type="int" >        2        3        8        9       23 </v>
   <v type="int" >        2        8        9       23       53 </v>
   <v type="int" >        2        4        8       23       24 </v>
   <v type="int" >        2        8       23       24       54 </v>
   <v type="int" >        2        8       23       53       54 </v>
   <v type="int" >        2        3        4        7       24 </v>
   <v type="int" >        2        4        7        8       24 </v>
   <v type="int" >        2        7        8       24       54 </v>
   <v type="int" >        2        3        7       24       25 </v>
   <v type="int" >        2        7       24       25       55 </v>
   <v type="int" >        2        7       24       54       55 </v>
   <v type="int" >        2        2        3        6       25 </v>
   <v type="int" >        2        3        6        7       25 </v>
   <v type="int" >        2        6        7       25       55 </v>
   <v type="int" >        2        2        6       25       26 </v>
   <v type="int" >        2        6       25       26       56 </v>
   <v type="int" >        2        6       25       55       56 </v>
   <v type="int" >        2        1        2        5       26 </v>
   <v type="int" >        2        2        5        6       26 </v>
   <v type="int" >        2        5        6       26       56 </v>
   <v type="int" >        2        1        5       21       26 </v>
   <v type="int" >        2        5       21       26       51 </v>
   <v type="int" >        2        5       26       51       56 </v>
   <v type="int" >        2       22       27       28       61 </v>
   <v type="int" >        2       21       22       27       61 </v>
   <v type="int" >        2       21       22       57       61 </v>
   <v type="int" >        2       22       28       61       62 </v>
   <v type="int" >        2       22       58       61       62 </v>
   <v type="int" >        2       22       57       58       61 </v>
   <v type="int" >        2       23       28       29       62 </v>
   <v type="int" >        2       22       23       28       62 </v>
   <v type="int" >        2       22       23       58       62 </v>
   <v type="int" >        2       23       29       62       63 </v>
   <v type="int" >        2       23       59       62       63 </v>
   <v type="int" >        2       23       58       59       62 </v>
   <v type="int" >        2       24       29       30       63 </v>
   <v type="int" >        2       23       24       29       63 </v>
   <v type="int" >        2       23       24       59       63 </v>
   <v type="int" >        2       24       30       63       64 </v>
   <v type="int" >        2       24       60       63       64 </v>
   <v type="int" >        2       24       59       60       63 </v>
   <v type="int" >        2       25       30       31       64 </v>
   <v type="int" >        2       24       25       30       64 </v>
   <v type="int" >        2       24       25       60       64 </v>
   <v type="int" >        2       25       31       64       65 </v>
   <v type="int" >        2       25       59       64       65 </v>
   <v type="int" >        2       25       59       60       64 </v>
   <v type="int" >        2       26       31       32       65 </v>
   <v type="int" >        2       25       26       31       65 </v>
   <v type="int" >        2       25       26       59       65 </v>
   <v type="int" >        2       26       32       65       66 </v>
   <v type="int" >        2       26       58       65       66 </v>
   <v type="int" >        2       26       58       59       65 </v>
   <v type="int" >        2       21       27       32       66 </v>
   <v type="int" >        2       21       26       32       66 </v>
   <v type="int" >        2       21       26       58       66 </v>
   <v type="int" >        2       21       27       61       66 </v>
   <v type="int" >        2       21       57       61       66 </v>
   <v type="int" >        2       21       57       58       66 </v>
   <v type="int" >        2       28       33       34       67 </v>
   <v type="int" >        2       27       28       33       67 </v>
   <v type="int" >        2       27       28       61       67 </v>
   <v type="int" >        2       28       34       67       68 </v>
   <v type="int" >        2       28       62       67       68 </v>
   <v type="int" >        2       28       61       62       67 </v>
   <v type="int" >        2       29       34       35       68 </v>
   <v type="int" >        2       28       29       34       68 </v>
   <v type="int" >        2       28       29       62       68 </v>
   <v type="int" >        2       29       35       68       69 </v>
   <v type="int" >        2       29       63       68       69 </v>
   <v type="int" >        2       29       62       63       68 </v>
   <v type="int" >        2       30       35       36       69 </v>
   <v type="int" >        2       29       30       35       69 </v>
   <v type="int" >        2       29       30       63       69 </v>
   <v type="int" >        2       30       36       69       70 </v>
   <v type="int" >        2       30       64       69       70 </v>
   <v type="int" >        2       30       63       64       69 </v>
   <v type="int" >        2       31       36       37       70 </v>
   <v type="int" >        2       30       31       36       70 </v>
   <v type="int" >        2       30       31       64       70 </v>
   <v type="int" >        2       31       37       70       71 </v>
   <v type="int" >        2       31       65       70       71 </v>
   <v type="int" >        2       31       64       65       70 </v>
   <v type="int" >        2       32       37       38       71 </v>
   <v type="int" >        2       31       32       37       71 </v>
   <v type="int" >        2       31       32       65       71 </v>
   <v type="int" >        2       32       38       71       72 </v>
   <v type="int" >        2       32       66       71       72 </v>
   <v type="int" >        2       32       65       66       71 </v>
   <v type="int" >        2       27       33       38       72 </v>
   <v type="int" >        2       27       32       38       72 </v>
   <v type="int" >        2       27       32       66       72 </v>
   <v type="int" >        2       27       33       67       72 </v>
   <v type="int" >        2       27       61       67       72 </v>
   <v type="int" >        2       27       61       66       72 </v>
   <v type="int" >        2       34       39       40       73 </v>
   <v type="int" >        2       33       34       39       73 </v>
   <v type="int" >        2       33       34       67       73 </v>
   <v type="int" >        2       34       40       73       74 </v>
   <v type="int" >        2       34       68       73       74 </v>
   <v type="int" >        2       34       67       68       73 </v>
   <v type="int" >        2       35       40       41       74 </v>
   <v type="int" >        2       34       35       40       74 </v>
   <v type="int" >        2       34       35       68       74 </v>
   <v type="int" >        2       35       41       74       75 </v>
   <v type="int" >        2       35       69       74       75 </v>
   <v type="int" >        2       35       68       69       74 </v>
   <v type="int" >        2       36       41       42       75 </v>
   <v type="int" >        2       35       36       41       75 </v>
   <v type="int" >        2       35       36       69       75 </v>
   <v type="int" >        2       36       42       75       76 </v>
   <v type="int" >        2       36       70       75       76 </v>
   <v type="int" >        2       36       69       70       75 </v>
   <v type="int" >        2       37       42       43       76 </v>
   <v type="int" >        2       36       37       42       76 </v>
   <v type="int" >        2       36       37       70       76 </v>
   <v type="int" >        2       37       43       75       76 </v>
   <v type="int" >        2       37       71       75       76 </v>
   <v type="int" >        2       37       70       71       76 </v>
   <v type="int" >        2       38       43       44       75 </v>
   <v type="int" >        2       37       38       43       75 </v>
   <v type="int" >        2       37       38       71       75 </v>
   <v type="int" >        2       38       44       74       75 </v>
   <v type="int" >        2       38       72       74       75 </v>
   <v type="int" >        2       38       71       72       75 </v>
   <v type="int" >        2       33       39       44       74 </v>
   <v type="int" >        2       33       38       44       74 </v>
   <v type="int" >        2       33       38       72       74 </v>
   <v type="int" >        2       33       39       73       74 </v>
   <v type="int" >        2       33       67       73       74 </v>
   <v type="int" >        2       33       67       72       74 </v>
   <v type="int" >        2       40       45       46       67 </v>
   <v type="int" >        2       39       40       45       67 </v>
   <v type="int" >        2       39       40       67       73 </v>
   <v type="int" >        2       40       46       67       72 </v>
   <v type="int" >        2       40       67       72       74 </v>
   <v type="int" >        2       40       67       73       74 </v>
   <v type="int" >        2       41       46       47       72 </v>
   <v type="int" >        2       40       41       46       72 </v>
   <v type="int" >        2       40       41       72       74 </v>
   <v type="int" >        2       41       47       71       72 </v>
   <v type="int" >        2       41       71       72       75 </v>
   <v type="int" >        2       41       72       74       75 </v>
   <v type="int" >        2       42       47       48       71 </v>
   <v type="int" >        2       41       42       47       71 </v>
   <v type="int" >        2       41       42       71       75 </v>
   <v type="int" >        2       42       48       70       71 </v>
   <v type="int" >        2       42       70       71       76 </v>
   <v type="int" >        2       42       71       75       76 </v>
   <v type="int" >        2       43       48       49       70 </v>
   <v type="int" >        2       42       43       48       70 </v>
   <v type="int" >        2       42       43       70       76 </v>
   <v type="int" >        2       43       49       69       70 </v>
   <v type="int" >        2       43       69       70       75 </v>
   <v type="int" >        2       43       70       75       76 </v>
   <v type="int" >        2       44       49       50       69 </v>
   <v type="int" >        2       43       44       49       69 </v>
   <v type="int" >        2       43       44       69       75 </v>
   <v type="int" >        2       44       50       68       69 </v>
   <v type="int" >        2       44       68       69       74 </v>
   <v type="int" >        2       44       69       74       75 </v>
   <v type="int" >        2       39       45       50       68 </v>
   <v type="int" >        2       39       44       50       68 </v>
   <v type="int" >        2       39       44       68       74 </v>
   <v type="int" >        2       39       45       67       68 </v>
   <v type="int" >        2       39       67       68       73 </v>
   <v type="int" >        2       39       68       73       74 </v>
   <v type="int" >        2       46       51       52       61 </v>
   <v type="int" >        2       45       46       51       61 </v>
   <v type="int" >        2       45       46       61       67 </v>
   <v type="int" >        2       46       52       61       66 </v>
   <v type="int" >        2       46       61       66       72 </v>
   <v type="int" >        2       46       61       67       72 </v>
   <v type="int" >        2       47       52       53       66 </v>
   <v type="int" >        2       46       47       52       66 </v>
   <v type="int" >        2       46       47       66       72 </v>
   <v type="int" >        2       47       53       65       66 </v>
   <v type="int" >        2       47       65       66       71 </v>
   <v type="int" >        2       47       66       71       72 </v>
   <v type="int" >        2       48       53       54       65 </v>
   <v type="int" >        2       47       48       53       65 </v>
   <v type="int" >        2       47       48       65       71 </v>
   <v type="int" >        2       48       54       64       65 </v>
   <v type="int" >        2       48       64       65       70 </v>
   <v type="int" >        2       48       65       70       71 </v>
   <v type="int" >        2       49       54       55       64 </v>
   <v type="int" >        2       48       49       54       64 </v>
   <v type="int" >        2       48       49       64       70 </v>
   <v type="int" >        2       49       55       63       64 </v>
   <v type="int" >        2       49       63       64       69 </v>
   <v type="int" >        2       49       64       69       70 </v>
   <v type="int" >        2       50       55       56       63 </v>
   <v type="int" >        2       49       50       55       63 </v>
   <v type="int" >        2       49       50       63       69 </v>
   <v type="int" >        2       50       56       62       63 </v>
   <v type="int" >        2       50       62       63       68 </v>
   <v type="int" >        2       50       63       68       69 </v>
   <v type="int" >        2       45       51       56       62 </v>
   <v type="int" >        2       45       50       56       62 </v>
   <v type="int" >        2       45       50       62       68 </v>
   <v type="int" >        2       45       51       61       62 </v>
   <v type="int" >        2       45       61       62       67 </v>
   <v type="int" >        2       45       62       67       68 </v>
   <v type="int" >        2       21       22       52       57 </v>
   <v type="int" >        2       21       51       52       57 </v>
   <v type="int" >        2       51       52       57       61 </v>
   <v type="int" >        2       22       52       57       58 </v>
   <v type="int" >        2       52       57       58       66 </v>
   <v type="int" >        2       52       57       61       66 </v>
   <v type="int" >        2       22       23       53       58 </v>
   <v type="int" >        2       22       52       53       58 </v>
   <v type="int" >        2       52       53       58       66 </v>
   <v type="int" >        2       23       53       58       59 </v>
   <v type="int" >        2       53       58       59       65 </v>
   <v type="int" >        2       53       58       65       66 </v>
   <v type="int" >        2       23       24       54       59 </v>
   <v type="int" >        2       23       53       54       59 </v>
   <v type="int" >        2       53       54       59       65 </v>
   <v type="int" >        2       24       54       59       60 </v>
   <v type="int" >        2       54       59       60       64 </v>
   <v type="int" >        2       54       59       64       65 </v>
   <v type="int" >        2       24       25       55       60 </v>
   <v type="int" >        2       24       54       55       60 </v>
   <v type="int" >        2       54       55       60       64 </v>
   <v type="int" >        2       25       55       59       60 </v>
   <v type="int" >        2       55       59       60       63 </v>
   <v type="int" >        2       55       60       63       64 </v>
   <v type="int" >        2       25       26       56       59 </v>
   <v type="int" >        2       25       55       56       59 </v>
   <v type="int" >        2       55       56       59       63 </v>
   <v type="int" >        2       26       56       58       59 </v>
   <v type="int" >        2       56       58       59       62 </v>
   <v type="int" >        2       56       59       62       63 </v>
   <v type="int" >        2       21       26       51       58 </v>
   <v type="int" >        2       26       51       56       58 </v>
   <v type="int" >        2       51       56       58       62 </v>
   <v type="int" >        2       21       51       57       58 </v>
   <v type="int" >        2       51       57       58       61 </v>
   <v type="int" >        2       51       58       61       62 </v>
  </varray>
  <i name="volumeweight">      0.00115741 </i>
 </kpoints>
 <parameters>
  <separator name="general" >
   <i type="string" name="SYSTEM">graphite</i>
   <i type="logical" name="LCOMPAT"> F  </i>
  </separator>
  <separator name="electronic" >
   <i type="string" name="PREC">accura</i>
   <i name="ENMAX">    800.00000000</i>
   <i name="ENAUG">    644.87300000</i>
   <i name="EDIFF">      0.00000001</i>
   <i type="int" name="IALGO">    38</i>
   <i type="int" name="IWAVPR">    10</i>
   <i type="int" name="NBANDS">    84</i>
   <i name="NELECT">    128.00000000</i>
   <i type="int" name="TURBO">     0</i>
   <i type="int" name="IRESTART">     0</i>
   <i type="int" name="NREBOOT">     0</i>
   <i type="int" name="NMIN">     0</i>
   <i name="EREF">      0.00000000</i>
   <separator name="electronic smearing" >
    <i type="int" name="ISMEAR">    -5</i>
    <i name="SIGMA">      0.20000000</i>
    <i name="KSPACING">      0.50000000</i>
    <i type="logical" name="KGAMMA"> T  </i>
   </separator>
   <separator name="electronic projectors" >
    <i type="logical" name="LREAL"> F  </i>
    <v name="ROPT">      0.00000000</v>
    <i type="int" name="LMAXPAW">  -100</i>
    <i type="int" name="LMAXMIX">     2</i>
    <i type="logical" name="NLSPLINE"> F  </i>
   </separator>
   <separator name="electronic startup" >
    <i type="int" name="ISTART">     0</i>
    <i type="int" name="ICHARG">     2</i>
    <i type="int" name="INIWAV">     1</i>
   </separator>
   <separator name="electronic spin" >
    <i type="int" name="ISPIN">     1</i>
    <i type="logical" name="LNONCOLLINEAR"> F  </i>
    <v name="MAGMOM">      1.00000000      1.00000000      1.00000000      1.00000000      1.00000000      1.00000000      1.00000000      1.00000000      1.00000000      1.00000000      1.00000000      1.00000000      1.00000000      1.00000000      1.00000000      1.00000000      1.00000000      1.00000000      1.00000000      1.00000000
      1.00000000      1.00000000      1.00000000      1.00000000      1.00000000      1.00000000      1.00000000      1.00000000      1.00000000      1.00000000      1.00000000      1.00000000</v>
    <i name="NUPDOWN">     -1.00000000</i>
    <i type="logical" name="LSORBIT"> F  </i>
    <v name="SAXIS">      0.00000000      0.00000000      1.00000000</v>
    <i type="logical" name="LSPIRAL"> F  </i>
    <v name="QSPIRAL">      0.00000000      0.00000000      0.00000000</v>
    <i type="logical" name="LZEROZ"> F  </i>
   </separator>
   <separator name="electronic exchange-correlation" >
    <i type="logical" name="LASPH"> F  </i>
    <i type="logical" name="LMETAGGA"> F  </i>
   </separator>
   <separator name="electronic convergence" >
    <i type="int" name="NELM">   200</i>
    <i type="int" name="NELMDL">     0</i>
    <i type="int" name="NELMIN">     2</i>
    <i name="ENINI">    800.00000000</i>
    <separator name="electronic convergence detail" >
     <i type="logical" name="LDIAG"> T  </i>
     <i type="logical" name="LSUBROT"> F  </i>
     <i name="WEIMIN">      0.00000000</i>
     <i name="EBREAK">      0.00000000</i>
     <i name="DEPER">      0.30000000</i>
     <i type="int" name="NRMM">     4</i>
     <i name="TIME">      0.40000000</i>
    </separator>
   </separator>
   <separator name="electronic mixer" >
    <i name="AMIX">      0.40000000</i>
    <i name="BMIX">      1.00000000</i>
    <i name="AMIN">      0.10000000</i>
    <i name="AMIX_MAG">      1.60000000</i>
    <i name="BMIX_MAG">      1.00000000</i>
    <separator name="electronic mixer details" >
     <i type="int" name="IMIX">     4</i>
     <i type="int" name="MAXMIX">   -45</i>
     <i name="WC">    100.00000000</i>
     <i type="int" name="INIMIX">     1</i>
     <i type="int" name="MIXPRE">     1</i>
     <i type="int" name="MREMOVE">     5</i>
    </separator>
   </separator>
   <separator name="electronic dipolcorrection" >
    <i type="logical" name="LDIPOL"> F  </i>
    <i type="logical" name="LMONO"> F  </i>
    <i type="int" name="IDIPOL">     0</i>
    <i name="EPSILON">      1.00000000</i>
    <v name="DIPOL">   -100.00000000   -100.00000000   -100.00000000</v>
    <i name="EFIELD">      0.00000000</i>
   </separator>
  </separator>
  <separator name="grids" >
   <i type="int" name="NGX">    48</i>
   <i type="int" name="NGY">    48</i>
   <i type="int" name="NGZ">   126</i>
   <i type="int" name="NGXF">    96</i>
   <i type="int" name="NGYF">    96</i>
   <i type="int" name="NGZF">   252</i>
   <i type="logical" name="ADDGRID"> F  </i>
  </separator>
  <separator name="ionic" >
   <i type="int" name="NSW">     0</i>
   <i type="int" name="IBRION">    -1</i>
   <i type="int" name="ISIF">     2</i>
   <i name="PSTRESS">      0.00000000</i>
   <i name="EDIFFG">      0.00100000</i>
   <i type="int" name="NFREE">     0</i>
   <i name="POTIM">      0.50000000</i>
   <i name="SMASS">     -3.00000000</i>
   <i name="SCALEE">      1.00000000</i>
  </separator>
  <separator name="ionic md" >
   <i name="TEBEG">      0.00010000</i>
   <i name="TEEND">      0.00010000</i>
   <i type="int" name="NBLOCK">     1</i>
   <i type="int" name="KBLOCK">     1</i>
   <i type="int" name="NPACO">   256</i>
   <i name="APACO">     16.00000000</i>
  </separator>
  <separator name="symmetry" >
   <i type="int" name="ISYM">     2</i>
   <i name="SYMPREC">      0.00001000</i>
  </separator>
  <separator name="dos" >
   <i type="logical" name="LORBIT"> F  </i>
   <v name="RWIGS">     -1.00000000</v>
   <i type="int" name="NEDOS">   301</i>
   <i name="EMIN">     10.00000000</i>
   <i name="EMAX">    -10.00000000</i>
   <i name="EFERMI">      0.00000000</i>
  </separator>
  <separator name="writing" >
   <i type="int" name="NWRITE">     2</i>
   <i type="logical" name="LWAVE"> F  </i>
   <i type="logical" name="LCHARG"> F  </i>
   <i type="logical" name="LPARD"> F  </i>
   <i type="logical" name="LVTOT"> F  </i>
   <i type="logical" name="LVHAR"> F  </i>
   <i type="logical" name="LELF"> F  </i>
   <i type="logical" name="LOPTICS"> F  </i>
   <v name="STM">      0.00000000      0.00000000      0.00000000      0.00000000      0.00000000      0.00000000      0.00000000</v>
  </separator>
  <separator name="performance" >
   <i type="int" name="NPAR">     6</i>
   <i type="int" name="NSIM">     4</i>
   <i type="int" name="NBLK">    -1</i>
   <i type="logical" name="LPLANE"> T  </i>
   <i type="logical" name="LSCALAPACK"> T  </i>
   <i type="logical" name="LSCAAWARE"> F  </i>
   <i type="logical" name="LSCALU"> F  </i>
   <i type="logical" name="LASYNC"> F  </i>
   <i type="logical" name="LORBITALREAL"> F  </i>
  </separator>
  <separator name="miscellaneous" >
   <i type="int" name="IDIOT">     3</i>
   <i type="logical" name="LMUSIC"> F  </i>
   <v name="POMASS">     12.01100000</v>
   <v name="DARWINR">      0.00000000</v>
   <v name="DARWINV">      1.00000000</v>
   <i type="logical" name="LCORR"> T  </i>
  </separator>
  <i type="logical" name="GGA_COMPAT"> T  </i>
  <i type="logical" name="LBERRY"> F  </i>
  <i type="int" name="ICORELEVEL">     0</i>
  <i type="logical" name="LDAU"> F  </i>
  <i type="int" name="I_CONSTRAINED_M">     0</i>
  <separator name="electronic exchange-correlation" >
   <i type="string" name="GGA">PE</i>
   <i type="int" name="VOSKOWN">     0</i>
   <i type="logical" name="LHFCALC"> F  </i>
   <i type="string" name="PRECFOCK"></i>
   <i type="logical" name="LSYMGRAD"> F  </i>
   <i type="logical" name="LHFONE"> F  </i>
   <i type="logical" name="LRHFCALC"> F  </i>
   <i type="logical" name="LTHOMAS"> F  </i>
   <i type="logical" name="LMODELHF"> F  </i>
   <i name="ENCUT4O">     -1.00000000</i>
   <i type="int" name="EXXOEP">     0</i>
   <i type="int" name="FOURORBIT">     0</i>
   <i name="AEXX">      0.00000000</i>
   <i name="HFALPHA">      0.00000000</i>
   <i name="MCALPHA">      0.00000000</i>
   <i name="ALDAX">      1.00000000</i>
   <i name="AGGAX">      1.00000000</i>
   <i name="ALDAC">      1.00000000</i>
   <i name="AGGAC">      1.00000000</i>
   <i type="int" name="NKREDX">     1</i>
   <i type="int" name="NKREDY">     1</i>
   <i type="int" name="NKREDZ">     1</i>
   <i type="logical" name="SHIFTRED"> F  </i>
   <i type="logical" name="ODDONLY"> F  </i>
   <i type="logical" name="EVENONLY"> F  </i>
   <i type="int" name="LMAXFOCK">     0</i>
   <i type="int" name="NMAXFOCKAE">     0</i>
   <i type="logical" name="LFOCKAEDFT"> F  </i>
   <i name="HFSCREEN">      0.00000000</i>
   <i name="HFSCREENC">      0.00000000</i>
   <i type="int" name="NBANDSGWLOW">     0</i>
  </separator>
  <separator name="vdW DFT" >
   <i type="logical" name="LUSE_VDW"> F  </i>
   <i name="Zab_VDW">     -0.84910000</i>
   <i name="PARAM1">      0.12340000</i>
   <i name="PARAM2">      1.00000000</i>
   <i name="PARAM3">      0.00000000</i>
  </separator>
  <separator name="model GW" >
   <i type="int" name="MODEL_GW">     0</i>
   <i name="MODEL_EPS0">      5.23835588</i>
   <i name="MODEL_ALPHA">      1.00000000</i>
  </separator>
  <separator name="linear response parameters" >
   <i type="logical" name="LEPSILON"> F  </i>
   <i type="logical" name="LRPA"> F  </i>
   <i type="logical" name="LNABLA"> F  </i>
   <i type="logical" name="LVEL"> F  </i>
   <i type="int" name="KINTER">     0</i>
   <i name="CSHIFT">      0.10000000</i>
   <i name="OMEGAMAX">     -1.00000000</i>
   <i name="DEG_THRESHOLD">      0.00200000</i>
  </separator>
  <separator name="orbital magnetization" >
   <i type="logical" name="NUCIND"> F  </i>
   <v name="MAGPOS">      0.00000000      0.00000000      0.00000000</v>
   <i type="logical" name="LNICSALL"> T  </i>
   <i type="logical" name="ORBITALMAG"> F  </i>
   <i type="logical" name="LMAGBLOCH"> F  </i>
   <i type="logical" name="LCHIMAG"> F  </i>
   <i type="logical" name="LGAUGE"> T  </i>
   <i type="int" name="MAGATOM">     0</i>
   <v name="MAGDIPOL">      0.00000000      0.00000000      0.00000000</v>
   <v name="AVECCONST">      0.00000000      0.00000000      0.00000000</v>
  </separator>
  <separator name="response functions" >
   <i type="logical" name="LADDER"> F  </i>
   <i type="logical" name="LFXC"> F  </i>
   <i type="logical" name="LHARTREE"> T  </i>
   <i type="int" name="IBSE">     0</i>
   <i type="logical" name="LTCTE"> F  </i>
   <i type="logical" name="LTETE"> F  </i>
   <i type="logical" name="LTRIPLET"> F  </i>
   <i type="logical" name="LFXCEPS"> F  </i>
   <i type="logical" name="LFXHEG"> F  </i>
   <i type="logical" name="L2ORDER"> F  </i>
   <i type="logical" name="LUSEW"> F  </i>
   <i name="ENCUTGW">     -2.00000000</i>
   <i name="ENCUTGWSOFT">     -2.00000000</i>
   <i name="ENCUTLF">     -1.00000000</i>
   <i type="int" name="LMAXMP2">    -1</i>
   <i name="SCISSOR">      0.00000000</i>
   <i type="int" name="NOMEGA">     0</i>
   <i type="int" name="NOMEGAR">     0</i>
   <i type="int" name="NBANDSGW">    -1</i>
   <i type="int" name="NBANDSO">    -1</i>
   <i type="int" name="NBANDSV">    -1</i>
   <i type="int" name="NELM">   200</i>
   <i type="int" name="DIM">     3</i>
   <i type="int" name="ANTIRES">     0</i>
   <i name="OMEGAMAX">    -30.00000000</i>
   <i name="OMEGAMIN">    -30.00000000</i>
   <i name="OMEGATL">   -200.00000000</i>
   <i type="int" name="OMEGAGRID">     0</i>
   <i name="CSHIFT">     -0.10000000</i>
   <i type="logical" name="SELFENERGY"> F  </i>
   <i type="logical" name="LSPECTRAL"> F  </i>
   <i type="logical" name="ODDONLYGW"> F  </i>
   <i type="logical" name="EVENONLYGW"> F  </i>
   <i type="int" name="NKREDLFX">     1</i>
   <i type="int" name="NKREDLFY">     1</i>
   <i type="int" name="NKREDLFZ">     1</i>
   <i type="int" name="MAXMEM">  1800</i>
   <i type="int" name="TELESCOPE">     0</i>
   <i type="int" name="TAUPAR">     1</i>
  </separator>
  <separator name="External order field" >
   <i name="OFIELD_KAPPA">      0.00000000</i>
   <v name="OFIELD_K">      0.00000000      0.00000000      0.00000000</v>
   <i name="OFIELD_Q6_NEAR">      0.00000000</i>
   <i name="OFIELD_Q6_FAR">      0.00000000</i>
   <i name="OFIELD_A">      0.00000000</i>
  </separator>
 </parameters>
 <atominfo>
  <atoms>      32 </atoms>
  <types>       1 </types>
  <array name="atoms" >
   <dimension dim="1">ion</dimension>
   <field type="string">element</field>
   <field type="int">atomtype</field>
   <set>
    <rc><c>C </c><c>   1</c></rc>
    <rc><c>C </c><c>   1</c></rc>
    <rc><c>C </c><c>   1</c></rc>
    <rc><c>C </c><c>   1</c></rc>
    <rc><c>C </c><c>   1</c></rc>
    <rc><c>C </c><c>   1</c></rc>
    <rc><c>C </c><c>   1</c></rc>
    <rc><c>C </c><c>   1</c></rc>
    <rc><c>C </c><c>   1</c></rc>
    <rc><c>C </c><c>   1</c></rc>
    <rc><c>C </c><c>   1</c></rc>
    <rc><c>C </c><c>   1</c></rc>
    <rc><c>C </c><c>   1</c></rc>
    <rc><c>C </c><c>   1</c></rc>
    <rc><c>C </c><c>   1</c></rc>
    <rc><c>C </c><c>   1</c></rc>
    <rc><c>C </c><c>   1</c></rc>
    <rc><c>C </c><c>   1</c></rc>
    <rc><c>C </c><c>   1</c></rc>
    <rc><c>C </c><c>   1</c></rc>
    <rc><c>C </c><c>   1</c></rc>
    <rc><c>C </c><c>   1</c></rc>
    <rc><c>C </c><c>   1</c></rc>
    <rc><c>C </c><c>   1</c></rc>
    <rc><c>C </c><c>   1</c></rc>
    <rc><c>C </c><c>   1</c></rc>
    <rc><c>C </c><c>   1</c></rc>
    <rc><c>C </c><c>   1</c></rc>
    <rc><c>C </c><c>   1</c></rc>
    <rc><c>C </c><c>   1</c></rc>
    <rc><c>C </c><c>   1</c></rc>
    <rc><c>C </c><c>   1</c></rc>
   </set>
  </array>
  <array name="atomtypes" >
   <dimension dim="1">type</dimension>
   <field type="int">atomspertype</field>
   <field type="string">element</field>
   <field>mass</field>
   <field>valence</field>
   <field type="string">pseudopotential</field>
   <set>
    <rc><c>  32</c><c>C </c><c>     12.01100000</c><c>      4.00000000</c><c> PAW_PBE C 08Apr2002                    </c></rc>
   </set>
  </array>
 </atominfo>
 <structure name="initialpos" >
  <crystal>
   <varray name="basis" >
    <v>       4.93287450      -0.00191929       0.00000000 </v>
    <v>      -2.46809940       4.27103499       0.00000000 </v>
    <v>       0.00000000       0.00000000      13.26350146 </v>
   </varray>
   <i name="volume">    279.37898030 </i>
   <varray name="rec_basis" >
    <v>       0.20276715       0.11717288       0.00000000 </v>
    <v>       0.00009112       0.23418794       0.00000000 </v>
    <v>       0.00000000       0.00000000       0.07539487 </v>
   </varray>
  </crystal>
  <varray name="positions" >
   <v>       0.50037996       0.00032672       0.12570666 </v>
   <v>       0.99967330       0.00032672       0.12500000 </v>
   <v>       0.49967330       0.50032672       0.12500000 </v>
   <v>       0.99967330       0.50032672       0.12500000 </v>
   <v>       0.49967330       0.00032672       0.62500000 </v>
   <v>       0.99967330       0.00032672       0.62500000 </v>
   <v>       0.49967330       0.50032672       0.62500000 </v>
   <v>       0.99967330       0.50032672       0.62500000 </v>
   <v>       0.00032672       0.49967330       0.37500000 </v>
   <v>       0.50032672       0.49967330       0.37500000 </v>
   <v>       0.00032672       0.99967330       0.37500000 </v>
   <v>       0.50032672       0.99967330       0.37500000 </v>
   <v>       0.00032672       0.49967330       0.87500000 </v>
   <v>       0.50032672       0.49967330       0.87500000 </v>
   <v>       0.00032672       0.99967330       0.87500000 </v>
   <v>       0.50032672       0.99967330       0.87500000 </v>
   <v>       0.16629246       0.33370753       0.12500000 </v>
   <v>       0.66629246       0.33370753       0.12500000 </v>
   <v>       0.16629246       0.83370753       0.12500000 </v>
   <v>       0.66629246       0.83370753       0.12500000 </v>
   <v>       0.16629246       0.33370753       0.62500000 </v>
   <v>       0.66629246       0.33370753       0.62500000 </v>
   <v>       0.16629246       0.83370753       0.62500000 </v>
   <v>       0.66629246       0.83370753       0.62500000 </v>
   <v>       0.33370753       0.16629246       0.37500000 </v>
   <v>       0.83370753       0.16629246       0.37500000 </v>
   <v>       0.33370753       0.66629246       0.37500000 </v>
   <v>       0.83370753       0.66629246       0.37500000 </v>
   <v>       0.33370753       0.16629246       0.87500000 </v>
   <v>       0.83370753       0.16629246       0.87500000 </v>
   <v>       0.33370753       0.66629246       0.87500000 </v>
   <v>       0.83370753       0.66629246       0.87500000 </v>
  </varray>
 </structure>
 <calculation>
  <scstep>
   <time name="dav">  176.88  177.13</time>
   <time name="total">  178.06  178.33</time>
   <energy>
    <i name="alphaZ">    298.64697712 </i>
    <i name="ewald">  -3743.02481520 </i>
    <i name="hartreedc">  -1151.40089895 </i>
    <i name="XCdc">    443.26880797 </i>
    <i name="pawpsdc">   1210.60617908 </i>
    <i name="pawaedc">  -1247.42152856 </i>
    <i name="eentropy">      0.00000000 </i>
    <i name="bandstr">    182.63414508 </i>
    <i name="atom">   4708.94155045 </i>
    <i name="e_fr_energy">    702.25041699 </i>
    <i name="e_wo_entrp">    702.25041699 </i>
    <i name="e_0_energy">    702.25041699 </i>
   </energy>
  </scstep>
  <scstep>
   <time name="dav">  202.17  202.27</time>
   <time name="total">  202.25  202.36</time>
   <energy>
    <i name="e_fr_energy">   -254.85399441 </i>
    <i name="e_wo_entrp">   -254.85399441 </i>
    <i name="e_0_energy">   -254.85399441 </i>
   </energy>
  </scstep>
  <scstep>
   <time name="dav">  200.82  200.92</time>
   <time name="total">  200.89  200.99</time>
   <energy>
    <i name="e_fr_energy">   -312.45622091 </i>
    <i name="e_wo_entrp">   -312.45622091 </i>
    <i name="e_0_energy">   -312.45622091 </i>
   </energy>
  </scstep>
  <scstep>
   <time name="dav">  211.65  211.76</time>
   <time name="total">  211.69  211.80</time>
   <energy>
    <i name="e_fr_energy">   -313.58563175 </i>
    <i name="e_wo_entrp">   -313.58563175 </i>
    <i name="e_0_energy">   -313.58563175 </i>
   </energy>
  </scstep>
  <scstep>
   <time name="dav">  213.77  213.88</time>
   <time name="total">  225.02  225.14</time>
   <energy>
    <i name="e_fr_energy">   -313.61866738 </i>
    <i name="e_wo_entrp">   -313.61866738 </i>
    <i name="e_0_energy">   -313.61866738 </i>
   </energy>
  </scstep>
  <scstep>
   <time name="dav">  201.79  201.89</time>
   <time name="total">  212.40  212.51</time>
   <energy>
    <i name="e_fr_energy">   -299.24498149 </i>
    <i name="e_wo_entrp">   -299.24498149 </i>
    <i name="e_0_energy">   -299.24498149 </i>
   </energy>
  </scstep>
  <scstep>
   <time name="dav">  197.87  197.97</time>
   <time name="total">  208.78  208.90</time>
   <energy>
    <i name="e_fr_energy">   -294.70195054 </i>
    <i name="e_wo_entrp">   -294.70195054 </i>
    <i name="e_0_energy">   -294.70195054 </i>
   </energy>
  </scstep>
  <scstep>
   <time name="dav">  169.14  169.23</time>
   <time name="total">  177.18  177.27</time>
   <energy>
    <i name="e_fr_energy">   -294.76819417 </i>
    <i name="e_wo_entrp">   -294.76819417 </i>
    <i name="e_0_energy">   -294.76819417 </i>
   </energy>
  </scstep>
  <scstep>
   <time name="dav">  208.59  208.70</time>
   <time name="total">  220.84  220.96</time>
   <energy>
    <i name="e_fr_energy">   -294.76388307 </i>
    <i name="e_wo_entrp">   -294.76388307 </i>
    <i name="e_0_energy">   -294.76388307 </i>
   </energy>
  </scstep>
  <scstep>
   <time name="dav">  221.54  221.66</time>
   <time name="total">  230.79  230.92</time>
   <energy>
    <i name="e_fr_energy">   -294.76225917 </i>
    <i name="e_wo_entrp">   -294.76225917 </i>
    <i name="e_0_energy">   -294.76225917 </i>
   </energy>
  </scstep>
  <scstep>
   <time name="dav">  246.22  246.37</time>
   <time name="total">  255.98  256.13</time>
   <energy>
    <i name="e_fr_energy">   -294.76150989 </i>
    <i name="e_wo_entrp">   -294.76150989 </i>
    <i name="e_0_energy">   -294.76150989 </i>
   </energy>
  </scstep>
  <scstep>
   <time name="dav">  221.01  221.21</time>
   <time name="total">  232.00  232.21</time>
   <energy>
    <i name="e_fr_energy">   -294.76175980 </i>
    <i name="e_wo_entrp">   -294.76175980 </i>
    <i name="e_0_energy">   -294.76175980 </i>
   </energy>
  </scstep>
  <scstep>
   <time name="dav">  385.86  386.07</time>
   <time name="total">  397.12  397.35</time>
   <energy>
    <i name="e_fr_energy">   -294.76155130 </i>
    <i name="e_wo_entrp">   -294.76155130 </i>
    <i name="e_0_energy">   -294.76155130 </i>
   </energy>
  </scstep>
  <scstep>
   <time name="dav">  399.93  400.17</time>
   <time name="total">  411.07  411.33</time>
   <energy>
    <i name="e_fr_energy">   -294.76203569 </i>
    <i name="e_wo_entrp">   -294.76203569 </i>
    <i name="e_0_energy">   -294.76203569 </i>
   </energy>
  </scstep>
  <scstep>
   <time name="dav">  404.89  405.13</time>
   <time name="total">  415.82  416.07</time>
   <energy>
    <i name="e_fr_energy">   -294.76155789 </i>
    <i name="e_wo_entrp">   -294.76155789 </i>
    <i name="e_0_energy">   -294.76155789 </i>
   </energy>
  </scstep>
  <scstep>
   <time name="dav">  382.57  382.78</time>
   <time name="total">  394.00  394.22</time>
   <energy>
    <i name="e_fr_energy">   -294.76154466 </i>
    <i name="e_wo_entrp">   -294.76154466 </i>
    <i name="e_0_energy">   -294.76154466 </i>
   </energy>
  </scstep>
  <scstep>
   <time name="dav">  455.19  455.46</time>
   <time name="total">  466.97  467.25</time>
   <energy>
    <i name="e_fr_energy">   -294.76156674 </i>
    <i name="e_wo_entrp">   -294.76156674 </i>
    <i name="e_0_energy">   -294.76156674 </i>
   </energy>
  </scstep>
  <scstep>
   <time name="dav">  441.35  441.58</time>
   <time name="total">  452.94  453.18</time>
   <energy>
    <i name="e_fr_energy">   -294.76154257 </i>
    <i name="e_wo_entrp">   -294.76154257 </i>
    <i name="e_0_energy">   -294.76154257 </i>
   </energy>
  </scstep>
  <scstep>
   <time name="dav">  378.18  378.37</time>
   <time name="total">  389.48  389.69</time>
   <energy>
    <i name="e_fr_energy">   -294.76153725 </i>
    <i name="e_wo_entrp">   -294.76153725 </i>
    <i name="e_0_energy">   -294.76153725 </i>
   </energy>
  </scstep>
  <scstep>
   <time name="dav">  388.95  389.15</time>
   <time name="total">  400.92  401.13</time>
   <energy>
    <i name="e_fr_energy">   -294.76154027 </i>
    <i name="e_wo_entrp">   -294.76154027 </i>
    <i name="e_0_energy">   -294.76154027 </i>
   </energy>
  </scstep>
  <scstep>
   <time name="dav">  489.51  489.76</time>
   <time name="total">  500.75  501.01</time>
   <energy>
    <i name="e_fr_energy">   -294.76153439 </i>
    <i name="e_wo_entrp">   -294.76153439 </i>
    <i name="e_0_energy">   -294.76153439 </i>
   </energy>
  </scstep>
  <scstep>
   <time name="dav">  380.67  380.91</time>
   <time name="total">  392.22  392.46</time>
   <energy>
    <i name="e_fr_energy">   -294.76153444 </i>
    <i name="e_wo_entrp">   -294.76153444 </i>
    <i name="e_0_energy">   -294.76153444 </i>
   </energy>
  </scstep>
  <scstep>
   <time name="dav">  342.97  343.24</time>
   <time name="total">  354.90  355.18</time>
   <energy>
    <i name="e_fr_energy">   -294.76153436 </i>
    <i name="e_wo_entrp">   -294.76153436 </i>
    <i name="e_0_energy">   -294.76153436 </i>
   </energy>
  </scstep>
  <scstep>
   <time name="dav">  390.45  390.67</time>
   <time name="total">  402.14  402.36</time>
   <energy>
    <i name="e_fr_energy">   -294.76153435 </i>
    <i name="e_wo_entrp">   -294.76153435 </i>
    <i name="e_0_energy">   -294.76153435 </i>
   </energy>
  </scstep>
  <scstep>
   <time name="dav">  300.51  300.70</time>
   <time name="total">  313.37  313.58</time>
   <energy>
    <i name="e_fr_energy">   -294.76153432 </i>
    <i name="e_wo_entrp">   -294.76153432 </i>
    <i name="e_0_energy">   -294.76153432 </i>
   </energy>
  </scstep>
  <scstep>
   <time name="dav">  289.21  289.39</time>
   <time name="total">  290.74  290.92</time>
   <energy>
    <i name="alphaZ">    298.64697712 </i>
    <i name="ewald">  -3743.02481520 </i>
    <i name="hartreedc">  -1425.86304026 </i>
    <i name="XCdc">    461.24676030 </i>
    <i name="pawpsdc">   2222.99152275 </i>
    <i name="pawaedc">  -2264.21063882 </i>
    <i name="eentropy">      0.00000000 </i>
    <i name="bandstr">   -553.48985065 </i>
    <i name="atom">   4708.94155045 </i>
    <i name="e_fr_energy">   -294.76153432 </i>
    <i name="e_wo_entrp">   -294.76153432 </i>
    <i name="e_0_energy">   -294.76153432 </i>
   </energy>
  </scstep>
  <structure>
   <crystal>
    <varray name="basis" >
     <v>       4.93287450      -0.00191929       0.00000000 </v>
     <v>      -2.46809940       4.27103499       0.00000000 </v>
     <v>       0.00000000       0.00000000      13.26350146 </v>
    </varray>
    <i name="volume">    279.37898030 </i>
    <varray name="rec_basis" >
     <v>       0.20276715       0.11717288       0.00000000 </v>
     <v>       0.00009112       0.23418794       0.00000000 </v>
     <v>       0.00000000       0.00000000       0.07539487 </v>
    </varray>
   </crystal>
   <varray name="positions" >
    <v>       0.50037996       0.00032672       0.12570666 </v>
    <v>       0.99967330       0.00032672       0.12500000 </v>
    <v>       0.49967330       0.50032672       0.12500000 </v>
    <v>       0.99967330       0.50032672       0.12500000 </v>
    <v>       0.49967330       0.00032672       0.62500000 </v>
    <v>       0.99967330       0.00032672       0.62500000 </v>
    <v>       0.49967330       0.50032672       0.62500000 </v>
    <v>       0.99967330       0.50032672       0.62500000 </v>
    <v>       0.00032672       0.49967330       0.37500000 </v>
    <v>       0.50032672       0.49967330       0.37500000 </v>
    <v>       0.00032672       0.99967330       0.37500000 </v>
    <v>       0.50032672       0.99967330       0.37500000 </v>
    <v>       0.00032672       0.49967330       0.87500000 </v>
    <v>       0.50032672       0.49967330       0.87500000 </v>
    <v>       0.00032672       0.99967330       0.87500000 </v>
    <v>       0.50032672       0.99967330       0.87500000 </v>
    <v>       0.16629246       0.33370753       0.12500000 </v>
    <v>       0.66629246       0.33370753       0.12500000 </v>
    <v>       0.16629246       0.83370753       0.12500000 </v>
    <v>       0.66629246       0.83370753       0.12500000 </v>
    <v>       0.16629246       0.33370753       0.62500000 </v>
    <v>       0.66629246       0.33370753       0.62500000 </v>
    <v>       0.16629246       0.83370753       0.62500000 </v>
    <v>       0.66629246       0.83370753       0.62500000 </v>
    <v>       0.33370753       0.16629246       0.37500000 </v>
    <v>       0.83370753       0.16629246       0.37500000 </v>
    <v>       0.33370753       0.66629246       0.37500000 </v>
    <v>       0.83370753       0.66629246       0.37500000 </v>
    <v>       0.33370753       0.16629246       0.87500000 </v>
    <v>       0.83370753       0.16629246       0.87500000 </v>
    <v>       0.33370753       0.66629246       0.87500000 </v>
    <v>       0.83370753       0.66629246       0.87500000 </v>
   </varray>
  </structure>
  <varray name="forces" >
   <v>      -0.22460502       0.00845966      -0.13155103 </v>
   <v>       0.02951851       0.00746435      -0.00194397 </v>
   <v>      -0.00754810      -0.01395527      -0.00187333 </v>
   <v>      -0.00765980       0.02900570      -0.00210102 </v>
   <v>      -0.01421444       0.00719628       0.00494932 </v>
   <v>      -0.01417804       0.00719762       0.00498742 </v>
   <v>      -0.01419325       0.00718798       0.00498737 </v>
   <v>      -0.01419186       0.00720496       0.00498769 </v>
   <v>       0.01280017      -0.00821564      -0.00504671 </v>
   <v>       0.01256727      -0.00831177      -0.00512960 </v>
   <v>       0.01276531      -0.00805853      -0.00508554 </v>
   <v>       0.01258698      -0.00820934      -0.00443139 </v>
   <v>       0.01305397      -0.00634746      -0.00517352 </v>
   <v>       0.01325315      -0.00642538      -0.00509733 </v>
   <v>       0.01321754      -0.00656838      -0.00513708 </v>
   <v>       0.01304474      -0.00645860      -0.00428921 </v>
   <v>       0.00658672      -0.00617915       0.01179625 </v>
   <v>       0.03423570      -0.00688632       0.04651403 </v>
   <v>       0.08015239       0.02021718       0.04692696 </v>
   <v>       0.08035912      -0.03284591       0.04602416 </v>
   <v>       0.01199443      -0.00599918      -0.00072692 </v>
   <v>       0.01199498      -0.00599906      -0.00070638 </v>
   <v>       0.01199681      -0.00599880      -0.00070733 </v>
   <v>       0.01199612      -0.00600036      -0.00070258 </v>
   <v>      -0.01117622       0.00711631       0.00125540 </v>
   <v>      -0.01047908       0.00722971       0.00129380 </v>
   <v>      -0.01092682       0.00658415       0.00128319 </v>
   <v>      -0.01073648       0.00697179       0.00045135 </v>
   <v>      -0.01027156       0.00493566       0.00129884 </v>
   <v>      -0.01081554       0.00505771       0.00123669 </v>
   <v>      -0.01065253       0.00547291       0.00124647 </v>
   <v>      -0.01047518       0.00515717       0.00046400 </v>
  </varray>
  <varray name="stress" >
   <v>      -3.65994044       2.68354466      -0.04926919 </v>
   <v>       2.68354464      -0.43018776       0.04072394 </v>
   <v>      -0.04926918       0.04072394       3.16527884 </v>
  </varray>
  <energy>
   <i name="e_fr_energy">   -299.83421493 </i>
   <i name="e_wo_entrp">   -299.83421493 </i>
   <i name="e_0_energy">      0.00000000 </i>
  </energy>
  <time name="totalsc"> 8293.69 8298.72</time>
  <eigenvalues>
   <array>
    <dimension dim="1">band</dimension>
    <dimension dim="2">kpoint</dimension>
    <dimension dim="3">spin</dimension>
    <field>eigene</field>
    <field>occ</field>
    <set>
     <set comment="spin 1">
      <set comment="kpoint 1">
       <r>  -14.8640    1.0000 </r>
       <r>  -14.7060    1.0000 </r>
       <r>  -14.7054    1.0000 </r>
       <r>  -14.5356    1.0000 </r>
       <r>   -9.5339    1.0000 </r>
       <r>   -9.5257    1.0000 </r>
       <r>   -9.5231    1.0000 </r>
       <r>   -9.4671    1.0000 </r>
       <r>   -9.4669    1.0000 </r>
       <r>   -9.4592    1.0000 </r>
       <r>   -9.4555    1.0000 </r>
       <r>   -9.4554    1.0000 </r>
       <r>   -9.4534    1.0000 </r>
       <r>   -9.4124    1.0000 </r>
       <r>   -9.4017    1.0000 </r>
       <r>   -9.3984    1.0000 </r>
       <r>   -8.4546    1.0000 </r>
       <r>   -8.4511    1.0000 </r>
       <r>   -8.4490    1.0000 </r>
       <r>   -8.4220    1.0000 </r>
       <r>   -8.4182    1.0000 </r>
       <r>   -8.4163    1.0000 </r>
       <r>   -8.4156    1.0000 </r>
       <r>   -8.4155    1.0000 </r>
       <r>   -8.4120    1.0000 </r>
       <r>   -8.3626    1.0000 </r>
       <r>   -8.3577    1.0000 </r>
       <r>   -8.3557    1.0000 </r>
       <r>   -3.7722    1.0000 </r>
       <r>   -2.8353    1.0000 </r>
       <r>   -2.8336    1.0000 </r>
       <r>   -1.6878    1.0000 </r>
       <r>   -1.6284    1.0000 </r>
       <r>   -1.6257    1.0000 </r>
       <r>   -1.6065    1.0000 </r>
       <r>   -1.5994    1.0000 </r>
       <r>   -1.5953    1.0000 </r>
       <r>   -1.5953    1.0000 </r>
       <r>   -1.5945    1.0000 </r>
       <r>   -1.5766    1.0000 </r>
       <r>   -1.5745    1.0000 </r>
       <r>   -1.5660    1.0000 </r>
       <r>   -1.5636    1.0000 </r>
       <r>   -1.5442    1.0000 </r>
       <r>    1.7646    1.0000 </r>
       <r>    1.7765    1.0000 </r>
       <r>    1.7816    1.0000 </r>
       <r>    1.7888    1.0000 </r>
       <r>    1.7904    1.0000 </r>
       <r>    1.7978    1.0000 </r>
       <r>    1.8021    1.0000 </r>
       <r>    1.8135    1.0000 </r>
       <r>    1.9861    1.0000 </r>
       <r>    1.9873    1.0000 </r>
       <r>    1.9885    1.0000 </r>
       <r>    2.4201    1.0000 </r>
       <r>    2.4223    1.0000 </r>
       <r>    2.4241    1.0000 </r>
       <r>    2.4281    1.0000 </r>
       <r>    2.4285    1.0000 </r>
       <r>    2.4301    1.0000 </r>
       <r>    2.7059    1.0000 </r>
       <r>    2.7203    1.0000 </r>
       <r>    2.7231    1.0000 </r>
       <r>    6.2983    0.0000 </r>
       <r>    6.3014    0.0000 </r>
       <r>    6.3026    0.0000 </r>
       <r>    6.4256    0.0000 </r>
       <r>    6.4311    0.0000 </r>
       <r>    6.4356    0.0000 </r>
       <r>    6.4366    0.0000 </r>
       <r>    6.4369    0.0000 </r>
       <r>    6.4420    0.0000 </r>
       <r>    6.9900    0.0000 </r>
       <r>    7.0034    0.0000 </r>
       <r>    7.0058    0.0000 </r>
       <r>    9.1853    0.0000 </r>
       <r>   11.9134    0.0000 </r>
       <r>   11.9179    0.0000 </r>
       <r>   11.9598    0.0000 </r>
       <r>   11.9637    0.0000 </r>
       <r>   11.9970    0.0000 </r>
       <r>   12.1693    0.0000 </r>
       <r>   12.1757    0.0000 </r>
      </set>
      <set comment="kpoint 2">
       <r>  -14.6982    1.0000 </r>
       <r>  -14.5417    1.0000 </r>
       <r>  -14.5411    1.0000 </r>
       <r>  -14.3730    1.0000 </r>
       <r>  -10.8403    1.0000 </r>
       <r>  -10.7199    1.0000 </r>
       <r>  -10.7194    1.0000 </r>
       <r>  -10.5926    1.0000 </r>
       <r>   -9.9667    1.0000 </r>
       <r>   -9.9598    1.0000 </r>
       <r>   -9.8606    1.0000 </r>
       <r>   -9.8600    1.0000 </r>
       <r>   -9.8530    1.0000 </r>
       <r>   -9.8526    1.0000 </r>
       <r>   -9.7500    1.0000 </r>
       <r>   -9.7424    1.0000 </r>
       <r>   -7.8430    1.0000 </r>
       <r>   -7.8350    1.0000 </r>
       <r>   -7.7594    1.0000 </r>
       <r>   -7.7566    1.0000 </r>
       <r>   -7.7498    1.0000 </r>
       <r>   -7.7495    1.0000 </r>
       <r>   -7.6663    1.0000 </r>
       <r>   -7.6580    1.0000 </r>
       <r>   -6.9957    1.0000 </r>
       <r>   -6.9088    1.0000 </r>
       <r>   -6.9073    1.0000 </r>
       <r>   -6.8163    1.0000 </r>
       <r>   -3.5710    1.0000 </r>
       <r>   -2.6397    1.0000 </r>
       <r>   -2.6380    1.0000 </r>
       <r>   -2.1192    1.0000 </r>
       <r>   -2.1001    1.0000 </r>
       <r>   -2.0815    1.0000 </r>
       <r>   -2.0810    1.0000 </r>
       <r>   -2.0631    1.0000 </r>
       <r>   -2.0609    1.0000 </r>
       <r>   -2.0424    1.0000 </r>
       <r>   -2.0232    1.0000 </r>
       <r>   -1.5004    1.0000 </r>
       <r>   -1.4650    1.0000 </r>
       <r>   -1.4359    1.0000 </r>
       <r>   -1.4329    1.0000 </r>
       <r>   -1.4036    1.0000 </r>
       <r>    0.8868    1.0000 </r>
       <r>    1.1246    1.0000 </r>
       <r>    1.1418    1.0000 </r>
       <r>    1.1459    1.0000 </r>
       <r>    1.1638    1.0000 </r>
       <r>    1.4270    1.0000 </r>
       <r>    1.4420    1.0000 </r>
       <r>    1.4469    1.0000 </r>
       <r>    1.4608    1.0000 </r>
       <r>    1.5787    1.0000 </r>
       <r>    1.5811    1.0000 </r>
       <r>    1.7558    1.0000 </r>
       <r>    1.7584    1.0000 </r>
       <r>    2.3126    1.0000 </r>
       <r>    2.3143    1.0000 </r>
       <r>    2.3184    1.0000 </r>
       <r>    2.3206    1.0000 </r>
       <r>    2.3285    1.0000 </r>
       <r>    2.8115    1.0000 </r>
       <r>    2.8231    1.0000 </r>
       <r>    6.4613    0.0000 </r>
       <r>    6.4640    0.0000 </r>
       <r>    6.7068    0.0000 </r>
       <r>    6.7121    0.0000 </r>
       <r>    6.7169    0.0000 </r>
       <r>    6.7186    0.0000 </r>
       <r>    7.1284    0.0000 </r>
       <r>    7.2696    0.0000 </r>
       <r>    7.2794    0.0000 </r>
       <r>    7.5382    0.0000 </r>
       <r>    7.5415    0.0000 </r>
       <r>    8.1754    0.0000 </r>
       <r>    9.3841    0.0000 </r>
       <r>   12.0529    0.0000 </r>
       <r>   12.0801    0.0000 </r>
       <r>   12.0843    0.0000 </r>
       <r>   12.2551    0.0000 </r>
       <r>   12.2569    0.0000 </r>
       <r>   12.4603    0.0000 </r>
       <r>   12.6946    0.0000 </r>
      </set>
      <set comment="kpoint 3">
       <r>  -14.2027    1.0000 </r>
       <r>  -14.0506    1.0000 </r>
       <r>  -14.0501    1.0000 </r>
       <r>  -13.8871    1.0000 </r>
       <r>  -12.2523    1.0000 </r>
       <r>  -12.1178    1.0000 </r>
       <r>  -12.1173    1.0000 </r>
       <r>  -11.9746    1.0000 </r>
       <r>  -10.3907    1.0000 </r>
       <r>  -10.3871    1.0000 </r>
       <r>  -10.2754    1.0000 </r>
       <r>  -10.2742    1.0000 </r>
       <r>  -10.2710    1.0000 </r>
       <r>  -10.2705    1.0000 </r>
       <r>  -10.1527    1.0000 </r>
       <r>  -10.1489    1.0000 </r>
       <r>   -6.6689    1.0000 </r>
       <r>   -6.6581    1.0000 </r>
       <r>   -6.5906    1.0000 </r>
       <r>   -6.5878    1.0000 </r>
       <r>   -6.5788    1.0000 </r>
       <r>   -6.5782    1.0000 </r>
       <r>   -6.5063    1.0000 </r>
       <r>   -6.4957    1.0000 </r>
       <r>   -4.8778    1.0000 </r>
       <r>   -4.8059    1.0000 </r>
       <r>   -4.8042    1.0000 </r>
       <r>   -4.7299    1.0000 </r>
       <r>   -3.2774    1.0000 </r>
       <r>   -3.2614    1.0000 </r>
       <r>   -3.2280    1.0000 </r>
       <r>   -3.2279    1.0000 </r>
       <r>   -3.2130    1.0000 </r>
       <r>   -3.2107    1.0000 </r>
       <r>   -3.1766    1.0000 </r>
       <r>   -3.1604    1.0000 </r>
       <r>   -2.9716    1.0000 </r>
       <r>   -2.0583    1.0000 </r>
       <r>   -2.0566    1.0000 </r>
       <r>   -0.9911    1.0000 </r>
       <r>   -0.9633    1.0000 </r>
       <r>   -0.9600    1.0000 </r>
       <r>   -0.9447    1.0000 </r>
       <r>   -0.9321    1.0000 </r>
       <r>   -0.6637    1.0000 </r>
       <r>   -0.5324    1.0000 </r>
       <r>   -0.4982    1.0000 </r>
       <r>   -0.4948    1.0000 </r>
       <r>   -0.4603    1.0000 </r>
       <r>    0.1566    1.0000 </r>
       <r>    0.1585    1.0000 </r>
       <r>    0.6282    1.0000 </r>
       <r>    0.6492    1.0000 </r>
       <r>    0.6537    1.0000 </r>
       <r>    0.6745    1.0000 </r>
       <r>    1.1282    1.0000 </r>
       <r>    1.4452    1.0000 </r>
       <r>    1.4477    1.0000 </r>
       <r>    2.1236    1.0000 </r>
       <r>    2.1246    1.0000 </r>
       <r>    2.1273    1.0000 </r>
       <r>    2.1299    1.0000 </r>
       <r>    2.8621    1.0000 </r>
       <r>    2.8678    1.0000 </r>
       <r>    6.9430    0.0000 </r>
       <r>    6.9482    0.0000 </r>
       <r>    7.2841    0.0000 </r>
       <r>    7.2891    0.0000 </r>
       <r>    7.2925    0.0000 </r>
       <r>    7.2941    0.0000 </r>
       <r>    7.7353    0.0000 </r>
       <r>    7.7398    0.0000 </r>
       <r>    9.2643    0.0000 </r>
       <r>    9.6781    0.0000 </r>
       <r>    9.6806    0.0000 </r>
       <r>    9.9820    0.0000 </r>
       <r>   10.2219    0.0000 </r>
       <r>   12.1901    0.0000 </r>
       <r>   12.4142    0.0000 </r>
       <r>   12.4879    0.0000 </r>
       <r>   12.4901    0.0000 </r>
       <r>   12.5397    0.0000 </r>
       <r>   12.5425    0.0000 </r>
       <r>   12.8217    0.0000 </r>
      </set>
      <set comment="kpoint 4">
       <r>  -13.3847    1.0000 </r>
       <r>  -13.3819    1.0000 </r>
       <r>  -13.2413    1.0000 </r>
       <r>  -13.2381    1.0000 </r>
       <r>  -13.2381    1.0000 </r>
       <r>  -13.2356    1.0000 </r>
       <r>  -13.0850    1.0000 </r>
       <r>  -13.0821    1.0000 </r>
       <r>  -10.5396    1.0000 </r>
       <r>  -10.5379    1.0000 </r>
       <r>  -10.4225    1.0000 </r>
       <r>  -10.4203    1.0000 </r>
       <r>  -10.4203    1.0000 </r>
       <r>  -10.4189    1.0000 </r>
       <r>  -10.2970    1.0000 </r>
       <r>  -10.2952    1.0000 </r>
       <r>   -5.7535    1.0000 </r>
       <r>   -5.7511    1.0000 </r>
       <r>   -5.7118    1.0000 </r>
       <r>   -5.7077    1.0000 </r>
       <r>   -5.7069    1.0000 </r>
       <r>   -5.7068    1.0000 </r>
       <r>   -5.6679    1.0000 </r>
       <r>   -5.6660    1.0000 </r>
       <r>   -4.1568    1.0000 </r>
       <r>   -4.1556    1.0000 </r>
       <r>   -4.1297    1.0000 </r>
       <r>   -4.1297    1.0000 </r>
       <r>   -4.1287    1.0000 </r>
       <r>   -4.1259    1.0000 </r>
       <r>   -4.0939    1.0000 </r>
       <r>   -4.0922    1.0000 </r>
       <r>   -2.6545    1.0000 </r>
       <r>   -2.6517    1.0000 </r>
       <r>   -2.6006    1.0000 </r>
       <r>   -2.5998    1.0000 </r>
       <r>   -2.5998    1.0000 </r>
       <r>   -2.5944    1.0000 </r>
       <r>   -2.5443    1.0000 </r>
       <r>   -2.5408    1.0000 </r>
       <r>   -1.9905    1.0000 </r>
       <r>   -1.9882    1.0000 </r>
       <r>   -1.1117    1.0000 </r>
       <r>   -1.1083    1.0000 </r>
       <r>   -1.1082    1.0000 </r>
       <r>   -1.1059    1.0000 </r>
       <r>   -0.2597    1.0000 </r>
       <r>   -0.2529    1.0000 </r>
       <r>   -0.2344    1.0000 </r>
       <r>   -0.2265    1.0000 </r>
       <r>   -0.2265    1.0000 </r>
       <r>   -0.2254    1.0000 </r>
       <r>   -0.2026    1.0000 </r>
       <r>   -0.1989    1.0000 </r>
       <r>   -0.0469    1.0000 </r>
       <r>   -0.0442    1.0000 </r>
       <r>    1.3237    1.0000 </r>
       <r>    1.3256    1.0000 </r>
       <r>    2.0392    1.0000 </r>
       <r>    2.0406    1.0000 </r>
       <r>    2.0411    1.0000 </r>
       <r>    2.0446    1.0000 </r>
       <r>    2.8549    1.0000 </r>
       <r>    2.8574    1.0000 </r>
       <r>    7.2679    0.0000 </r>
[...]
       <r>   -4.1116    1.0000 </r>
       <r>   -4.1093    1.0000 </r>
       <r>   -4.1080    1.0000 </r>
       <r>   -4.1080    1.0000 </r>
       <r>   -2.6575    1.0000 </r>
       <r>   -2.6513    1.0000 </r>
       <r>   -2.6513    1.0000 </r>
       <r>   -2.6510    1.0000 </r>
       <r>   -2.5786    1.0000 </r>
       <r>   -2.5733    1.0000 </r>
       <r>   -2.5732    1.0000 </r>
       <r>   -2.5729    1.0000 </r>
       <r>   -1.7489    1.0000 </r>
       <r>   -1.7467    1.0000 </r>
       <r>   -1.7466    1.0000 </r>
       <r>   -1.7437    1.0000 </r>
       <r>   -0.3883    1.0000 </r>
       <r>   -0.3859    1.0000 </r>
       <r>   -0.3858    1.0000 </r>
       <r>   -0.3824    1.0000 </r>
       <r>   -0.2311    1.0000 </r>
       <r>   -0.2294    1.0000 </r>
       <r>   -0.2294    1.0000 </r>
       <r>   -0.2227    1.0000 </r>
       <r>   -0.1929    1.0000 </r>
       <r>   -0.1914    1.0000 </r>
       <r>   -0.1914    1.0000 </r>
       <r>   -0.1813    1.0000 </r>
       <r>    1.5282    1.0000 </r>
       <r>    1.5314    1.0000 </r>
       <r>    1.5316    1.0000 </r>
       <r>    1.5329    1.0000 </r>
       <r>    2.6054    1.0000 </r>
       <r>    2.6094    1.0000 </r>
       <r>    2.6096    1.0000 </r>
       <r>    2.6108    1.0000 </r>
       <r>    7.3688    0.0000 </r>
       <r>    7.3697    0.0000 </r>
       <r>    7.3699    0.0000 </r>
       <r>    7.3743    0.0000 </r>
       <r>    7.8168    0.0000 </r>
       <r>    7.8177    0.0000 </r>
       <r>    7.8180    0.0000 </r>
       <r>    7.8232    0.0000 </r>
       <r>   11.5253    0.0000 </r>
       <r>   11.5358    0.0000 </r>
       <r>   11.5377    0.0000 </r>
       <r>   11.5460    0.0000 </r>
       <r>   11.8995    0.0000 </r>
       <r>   11.9117    0.0000 </r>
       <r>   11.9134    0.0000 </r>
       <r>   11.9239    0.0000 </r>
       <r>   12.2402    0.0000 </r>
       <r>   12.2447    0.0000 </r>
       <r>   12.2452    0.0000 </r>
       <r>   12.2472    0.0000 </r>
      </set>
     </set>
    </set>
   </array>
  </eigenvalues>
  <separator name="orbital magnetization" >
   <v name="MAGDIPOLOUT">      0.00000000      0.00000000      0.00000000</v>
  </separator>
  <dos>
   <i name="efermi">      4.77344009 </i>
   <total>
    <array>
     <dimension dim="1">gridpoints</dimension>
     <dimension dim="2">spin</dimension>
     <field>energy</field>
     <field>total</field>
     <field>integrated</field>
     <set>
      <set comment="spin 1">
       <r>   -16.8640     0.0000     0.0000 </r>
       <r>   -16.7548     0.0000     0.0000 </r>
       <r>   -16.6455     0.0000     0.0000 </r>
       <r>   -16.5363     0.0000     0.0000 </r>
       <r>   -16.4271     0.0000     0.0000 </r>
       <r>   -16.3179     0.0000     0.0000 </r>
       <r>   -16.2086     0.0000     0.0000 </r>
       <r>   -16.0994     0.0000     0.0000 </r>
       <r>   -15.9902     0.0000     0.0000 </r>
       <r>   -15.8810     0.0000     0.0000 </r>
       <r>   -15.7717     0.0000     0.0000 </r>
       <r>   -15.6625     0.0000     0.0000 </r>
       <r>   -15.5533     0.0000     0.0000 </r>
       <r>   -15.4441     0.0000     0.0000 </r>
       <r>   -15.3348     0.0000     0.0000 </r>
       <r>   -15.2256     0.0000     0.0000 </r>
       <r>   -15.1164     0.0000     0.0000 </r>
       <r>   -15.0071     0.0000     0.0000 </r>
       <r>   -14.8979     0.0000     0.0000 </r>
       <r>   -14.7887     0.7610     0.0222 </r>
       <r>   -14.6795     2.4282     0.2155 </r>
       <r>   -14.5702     3.3074     0.5214 </r>
       <r>   -14.4610     4.8920     0.9711 </r>
       <r>   -14.3518     4.8317     1.5225 </r>
       <r>   -14.2426     4.9790     2.0609 </r>
       <r>   -14.1333     4.9743     2.6040 </r>
       <r>   -14.0241     4.9108     3.1458 </r>
       <r>   -13.9149     4.8757     3.6781 </r>
       <r>   -13.8057     5.1207     4.2229 </r>
       <r>   -13.6964     6.1013     4.8029 </r>
       <r>   -13.5872     7.2649     5.5481 </r>
       <r>   -13.4780     7.2200     6.3420 </r>
       <r>   -13.3688     5.9218     7.1353 </r>
       <r>   -13.2595     2.3520     7.5379 </r>
       <r>   -13.1503     1.8436     7.7598 </r>
       <r>   -13.0411     2.0485     7.9662 </r>
       <r>   -12.9319     2.4631     8.2126 </r>
       <r>   -12.8226     3.5323     8.5162 </r>
       <r>   -12.7134     8.0599     9.3563 </r>
       <r>   -12.6042     7.9195    10.1852 </r>
       <r>   -12.4949     6.7541    11.0224 </r>
       <r>   -12.3857     4.0540    11.5389 </r>
       <r>   -12.2765     4.1679    11.9879 </r>
       <r>   -12.1673     4.3071    12.4502 </r>
       <r>   -12.0580     4.4693    12.9295 </r>
       <r>   -11.9488     4.6185    13.4262 </r>
       <r>   -11.8396     4.7507    13.9379 </r>
       <r>   -11.7304     5.1359    14.4724 </r>
       <r>   -11.6211     5.5101    15.0546 </r>
       <r>   -11.5119     6.3561    15.6841 </r>
       <r>   -11.4027     5.9639    16.3598 </r>
       <r>   -11.2935     5.6283    16.9916 </r>
       <r>   -11.1842     5.5444    17.5977 </r>
       <r>   -11.0750     5.7124    18.2124 </r>
       <r>   -10.9658     5.8805    18.8455 </r>
       <r>   -10.8566     6.0488    19.4970 </r>
       <r>   -10.7473     5.7356    20.1372 </r>
       <r>   -10.6381     5.6077    20.7566 </r>
       <r>   -10.5289     5.5173    21.3612 </r>
       <r>   -10.4197     4.5390    21.9213 </r>
       <r>   -10.3104     3.8161    22.3597 </r>
       <r>   -10.2012     4.6521    22.8216 </r>
       <r>   -10.0920     4.9918    23.3535 </r>
       <r>    -9.9827     5.1815    23.9091 </r>
       <r>    -9.8735     6.9394    24.5730 </r>
       <r>    -9.7643     9.8657    25.4687 </r>
       <r>    -9.6551     9.7524    26.6350 </r>
       <r>    -9.5458     7.3979    27.5716 </r>
       <r>    -9.4366     5.2773    28.2573 </r>
       <r>    -9.3274     4.5457    28.7840 </r>
       <r>    -9.2182     4.0535    29.2537 </r>
       <r>    -9.1089     3.5611    29.6695 </r>
       <r>    -8.9997     5.1169    30.3519 </r>
       <r>    -8.8905     2.0951    30.8825 </r>
       <r>    -8.7813     1.8558    31.0966 </r>
       <r>    -8.6720     1.6473    31.2879 </r>
       <r>    -8.5628     1.4387    31.4565 </r>
       <r>    -8.4536     1.2303    31.6022 </r>
       <r>    -8.3444     1.5543    31.7493 </r>
       <r>    -8.2351     2.0552    31.9464 </r>
       <r>    -8.1259     2.5561    32.1983 </r>
       <r>    -8.0167     3.5278    32.5108 </r>
       <r>    -7.9075     8.2753    33.1288 </r>
       <r>    -7.7982     7.5483    34.1782 </r>
       <r>    -7.6890     5.1052    34.7800 </r>
       <r>    -7.5798     5.7426    35.3521 </r>
       <r>    -7.4705     6.9300    36.0442 </r>
       <r>    -7.3613     8.1175    36.8660 </r>
       <r>    -7.2521     9.3050    37.8175 </r>
       <r>    -7.1429     8.0491    38.8167 </r>
       <r>    -7.0336     5.6091    39.5583 </r>
       <r>    -6.9244     5.5785    40.1688 </r>
       <r>    -6.8152     5.6072    40.7775 </r>
       <r>    -6.7060     5.4511    41.3814 </r>
       <r>    -6.5967     5.2811    41.9679 </r>
       <r>    -6.4875     5.1114    42.5346 </r>
       <r>    -6.3783     4.9927    43.0864 </r>
       <r>    -6.2691     4.8740    43.6253 </r>
       <r>    -6.1598     4.7553    44.1512 </r>
       <r>    -6.0506     4.6367    44.6641 </r>
       <r>    -5.9414     4.5181    45.1641 </r>
       <r>    -5.8322     4.3976    45.6510 </r>
       <r>    -5.7229     4.4225    46.1274 </r>
       <r>    -5.6137     5.0926    46.6493 </r>
       <r>    -5.5045     5.6914    47.2382 </r>
       <r>    -5.3953     6.2902    47.8926 </r>
       <r>    -5.2860     6.8890    48.6123 </r>
       <r>    -5.1768     7.4879    49.3975 </r>
       <r>    -5.0676     8.0867    50.2481 </r>
       <r>    -4.9583     8.6856    51.1641 </r>
       <r>    -4.8491     6.6400    52.0777 </r>
       <r>    -4.7399     4.2619    52.6223 </r>
       <r>    -4.6307     6.8085    53.2469 </r>
       <r>    -4.5214     6.2022    53.9964 </r>
       <r>    -4.4122     4.7075    54.5923 </r>
       <r>    -4.3030     3.2126    55.0248 </r>
       <r>    -4.1938     1.7175    55.2940 </r>
       <r>    -4.0845     1.4048    55.4314 </r>
       <r>    -3.9753     2.9450    55.6690 </r>
       <r>    -3.8661     4.4850    56.0748 </r>
       <r>    -3.7569     6.0321    56.6488 </r>
       <r>    -3.6476    10.5307    57.5711 </r>
       <r>    -3.5384    12.5489    58.8809 </r>
       <r>    -3.4292    12.9516    60.3026 </r>
       <r>    -3.3200     9.2851    61.5776 </r>
       <r>    -3.2107     4.3470    62.2489 </r>
       <r>    -3.1015     5.7786    62.8029 </r>
       <r>    -2.9923     6.6008    63.4789 </r>
       <r>    -2.8831     9.1408    64.2821 </r>
       <r>    -2.7738    14.8538    65.5904 </r>
       <r>    -2.6646    27.2532    67.6273 </r>
       <r>    -2.5554     6.8628    69.1825 </r>
       <r>    -2.4461     7.1951    69.9519 </r>
       <r>    -2.3369     7.4854    70.7513 </r>
       <r>    -2.2277     7.9740    71.5938 </r>
       <r>    -2.1185     9.0385    72.5062 </r>
       <r>    -2.0092    16.1805    73.8993 </r>
       <r>    -1.9000    12.6768    75.4684 </r>
       <r>    -1.7908    10.4524    76.7188 </r>
       <r>    -1.6816    16.9881    77.9883 </r>
       <r>    -1.5723    18.8174    81.0895 </r>
       <r>    -1.4631    21.6186    83.0416 </r>
       <r>    -1.3539    14.0960    84.8436 </r>
       <r>    -1.2447    15.4785    86.4501 </r>
       <r>    -1.1354    15.8754    88.3415 </r>
       <r>    -1.0262     8.9539    89.6331 </r>
       <r>    -0.9170     6.1997    90.4190 </r>
       <r>    -0.8078     7.1948    91.1493 </r>
       <r>    -0.6985     8.1012    91.9872 </r>
       <r>    -0.5893     9.2433    92.9314 </r>
       <r>    -0.4801    10.6333    94.0170 </r>
       <r>    -0.3709    11.2443    95.2321 </r>
       <r>    -0.2616    11.2864    96.4676 </r>
       <r>    -0.1524    11.0622    98.2132 </r>
       <r>    -0.0432    13.3393    99.6001 </r>
       <r>     0.0661    11.5228   100.9145 </r>
       <r>     0.1753     9.2363   102.0672 </r>
       <r>     0.2845     9.5502   103.0835 </r>
       <r>     0.3937     9.1879   104.1305 </r>
       <r>     0.5030     9.6779   105.1523 </r>
       <r>     0.6122     9.8121   106.2247 </r>
       <r>     0.7214     9.6412   107.2836 </r>
       <r>     0.8306     9.4774   108.3327 </r>
       <r>     0.9399     9.3365   109.3602 </r>
       <r>     1.0491     9.2591   110.3745 </r>
       <r>     1.1583     9.8573   111.4057 </r>
       <r>     1.2675     9.6939   112.4752 </r>
       <r>     1.3768     9.5852   113.5268 </r>
       <r>     1.4860    10.3471   114.6060 </r>
       <r>     1.5952    10.2447   115.7214 </r>
       <r>     1.7044     8.8717   116.7990 </r>
       <r>     1.8137     6.7857   117.6406 </r>
       <r>     1.9229     6.4553   118.3636 </r>
       <r>     2.0321     4.7108   118.9761 </r>
       <r>     2.1413     3.2465   119.4034 </r>
       <r>     2.2506     2.7745   119.7241 </r>
       <r>     2.3598     3.5611   120.0679 </r>
       <r>     2.4690     4.7344   120.5148 </r>
       <r>     2.5783     7.0789   121.1518 </r>
       <r>     2.6875     9.1227   122.0193 </r>
       <r>     2.7967     8.9104   122.9594 </r>
       <r>     2.9059     7.9382   123.9025 </r>
       <r>     3.0152     5.9590   124.6547 </r>
       <r>     3.1244     4.6550   125.2290 </r>
       <r>     3.2336     3.7633   125.6854 </r>
       <r>     3.3428     3.2680   126.0659 </r>
       <r>     3.4521     2.8910   126.4024 </r>
       <r>     3.5613     2.5090   126.6970 </r>
       <r>     3.6705     2.1742   126.9521 </r>
       <r>     3.7797     1.8831   127.1735 </r>
       <r>     3.8890     1.6138   127.3644 </r>
       <r>     3.9982     1.3493   127.5257 </r>
       <r>     4.1074     1.1070   127.6598 </r>
       <r>     4.2166     0.8876   127.7685 </r>
       <r>     4.3259     0.6886   127.8544 </r>
       <r>     4.4351     0.5022   127.9193 </r>
       <r>     4.5443     0.3267   127.9645 </r>
       <r>     4.6535     0.1608   127.9911 </r>
       <r>     4.7628     0.0054   128.0000 </r>
       <r>     4.8720     0.0943   128.0041 </r>
       <r>     4.9812     0.2204   128.0212 </r>
       <r>     5.0905     0.3569   128.0526 </r>
       <r>     5.1997     0.5063   128.0997 </r>
       <r>     5.3089     0.6693   128.1637 </r>
       <r>     5.4181     0.8513   128.2466 </r>
       <r>     5.5274     1.0627   128.3507 </r>
       <r>     5.6366     1.3165   128.4806 </r>
       <r>     5.7458     1.5720   128.6383 </r>
       <r>     5.8550     2.0742   128.8253 </r>
       <r>     5.9643     2.9447   129.1064 </r>
       <r>     6.0735     3.5133   129.4602 </r>
       <r>     6.1827     3.8356   129.8646 </r>
       <r>     6.2919     5.4740   130.3592 </r>
       <r>     6.4012    11.4168   131.2548 </r>
       <r>     6.5104    10.4134   132.6246 </r>
       <r>     6.6196     8.3904   133.6496 </r>
       <r>     6.7288     6.5939   134.4655 </r>
       <r>     6.8381     5.8426   135.1436 </r>
       <r>     6.9473     5.2816   135.7480 </r>
       <r>     7.0565     5.0982   136.3123 </r>
       <r>     7.1657     4.5254   136.8447 </r>
       <r>     7.2750     3.7910   137.3070 </r>
       <r>     7.3842     3.5979   137.7062 </r>
       <r>     7.4934     3.7265   138.1040 </r>
       <r>     7.6027     4.0987   138.5291 </r>
       <r>     7.7119     4.5033   139.0000 </r>
       <r>     7.8211     4.8286   139.5110 </r>
       <r>     7.9303     4.8670   140.0449 </r>
       <r>     8.0396     4.6589   140.5649 </r>
       <r>     8.1488     4.4982   141.0637 </r>
       <r>     8.2580     4.3523   141.5475 </r>
       <r>     8.3672     4.2340   142.0160 </r>
       <r>     8.4765     4.1446   142.4734 </r>
       <r>     8.5857     4.0727   142.9221 </r>
       <r>     8.6949     4.0068   143.3633 </r>
       <r>     8.8041     3.9512   143.7978 </r>
       <r>     8.9134     3.7061   144.2228 </r>
       <r>     9.0226     3.4535   144.6118 </r>
       <r>     9.1318     3.3400   144.9817 </r>
       <r>     9.2410     3.2919   145.3431 </r>
       <r>     9.3503     3.4504   145.7088 </r>
       <r>     9.4595     3.6386   146.0991 </r>
       <r>     9.5687     3.5852   146.4957 </r>
       <r>     9.6779     3.6170   146.8880 </r>
       <r>     9.7872     3.6785   147.2864 </r>
       <r>     9.8964     3.7251   147.6910 </r>
       <r>    10.0056     3.7369   148.0990 </r>
       <r>    10.1149     3.6974   148.5054 </r>
       <r>    10.2241     3.6499   148.9060 </r>
       <r>    10.3333     3.6523   149.3048 </r>
       <r>    10.4425     4.7441   149.7607 </r>
       <r>    10.5518     5.1329   150.3010 </r>
       <r>    10.6610     5.3437   150.9096 </r>
       <r>    10.7702     5.6969   151.4940 </r>
       <r>    10.8794     5.6466   152.1141 </r>
       <r>    10.9887     5.3578   152.7219 </r>
       <r>    11.0979     6.4078   153.2564 </r>
       <r>    11.2071     3.9433   153.8346 </r>
       <r>    11.3163     3.1009   154.2171 </r>
       <r>    11.4256     2.4336   154.5003 </r>
       <r>    11.5348     2.5392   154.7716 </r>
       <r>    11.6440     2.7207   155.0573 </r>
       <r>    11.7532     3.1203   155.3736 </r>
       <r>    11.8625     3.5013   155.7547 </r>
       <r>    11.9717     2.4550   156.0811 </r>
       <r>    12.0809     6.5792   156.5699 </r>
       <r>    12.1901     6.8127   157.2875 </r>
       <r>    12.2994     8.5413   158.1283 </r>
       <r>    12.4086    10.5890   159.1586 </r>
       <r>    12.5178    13.2096   160.4630 </r>
       <r>    12.6271    13.7027   161.9555 </r>
       <r>    12.7363    13.7113   163.4544 </r>
       <r>    12.8455    11.6235   164.8926 </r>
       <r>    12.9547     9.9026   166.0137 </r>
       <r>    13.0640    11.6380   167.0365 </r>
       <r>    13.1732     0.8353   167.9144 </r>
       <r>    13.2824     0.2431   167.9496 </r>
       <r>    13.3916     0.1652   167.9718 </r>
       <r>    13.5009     0.1022   167.9863 </r>
       <r>    13.6101     0.0543   167.9947 </r>
       <r>    13.7193     0.0214   167.9987 </r>
       <r>    13.8285     0.0036   167.9999 </r>
       <r>    13.9378     0.0000   168.0000 </r>
       <r>    14.0470     0.0000   168.0000 </r>
       <r>    14.1562     0.0000   168.0000 </r>
       <r>    14.2654     0.0000   168.0000 </r>
       <r>    14.3747     0.0000   168.0000 </r>
       <r>    14.4839     0.0000   168.0000 </r>
       <r>    14.5931     0.0000   168.0000 </r>
       <r>    14.7023     0.0000   168.0000 </r>
       <r>    14.8116     0.0000   168.0000 </r>
       <r>    14.9208     0.0000   168.0000 </r>
       <r>    15.0300     0.0000   168.0000 </r>
       <r>    15.1393     0.0000   168.0000 </r>
       <r>    15.2485     0.0000   168.0000 </r>
       <r>    15.3577     0.0000   168.0000 </r>
       <r>    15.4669     0.0000   168.0000 </r>
       <r>    15.5762     0.0000   168.0000 </r>
       <r>    15.6854     0.0000   168.0000 </r>
       <r>    15.7946     0.0000   168.0000 </r>
       <r>    15.9038     0.0000   168.0000 </r>
      </set>
     </set>
    </array>
   </total>
  </dos>
 </calculation>
 <structure name="finalpos" >
  <crystal>
   <varray name="basis" >
    <v>       4.93287450      -0.00191929       0.00000000 </v>
    <v>      -2.46809940       4.27103499       0.00000000 </v>
    <v>       0.00000000       0.00000000      13.26350146 </v>
   </varray>
   <i name="volume">    279.37898030 </i>
   <varray name="rec_basis" >
    <v>       0.20276715       0.11717288       0.00000000 </v>
    <v>       0.00009112       0.23418794       0.00000000 </v>
    <v>       0.00000000       0.00000000       0.07539487 </v>
   </varray>
  </crystal>
  <varray name="positions" >
   <v>       0.50037996       0.00032672       0.12570666 </v>
   <v>       0.99967330       0.00032672       0.12500000 </v>
   <v>       0.49967330       0.50032672       0.12500000 </v>
   <v>       0.99967330       0.50032672       0.12500000 </v>
   <v>       0.49967330       0.00032672       0.62500000 </v>
   <v>       0.99967330       0.00032672       0.62500000 </v>
   <v>       0.49967330       0.50032672       0.62500000 </v>
   <v>       0.99967330       0.50032672       0.62500000 </v>
   <v>       0.00032672       0.49967330       0.37500000 </v>
   <v>       0.50032672       0.49967330       0.37500000 </v>
   <v>       0.00032672       0.99967330       0.37500000 </v>
   <v>       0.50032672       0.99967330       0.37500000 </v>
   <v>       0.00032672       0.49967330       0.87500000 </v>
   <v>       0.50032672       0.49967330       0.87500000 </v>
   <v>       0.00032672       0.99967330       0.87500000 </v>
   <v>       0.50032672       0.99967330       0.87500000 </v>
   <v>       0.16629246       0.33370753       0.12500000 </v>
   <v>       0.66629246       0.33370753       0.12500000 </v>
   <v>       0.16629246       0.83370753       0.12500000 </v>
   <v>       0.66629246       0.83370753       0.12500000 </v>
   <v>       0.16629246       0.33370753       0.62500000 </v>
   <v>       0.66629246       0.33370753       0.62500000 </v>
   <v>       0.16629246       0.83370753       0.62500000 </v>
   <v>       0.66629246       0.83370753       0.62500000 </v>
   <v>       0.33370753       0.16629246       0.37500000 </v>
   <v>       0.83370753       0.16629246       0.37500000 </v>
   <v>       0.33370753       0.66629246       0.37500000 </v>
   <v>       0.83370753       0.66629246       0.37500000 </v>
   <v>       0.33370753       0.16629246       0.87500000 </v>
   <v>       0.83370753       0.16629246       0.87500000 </v>
   <v>       0.33370753       0.66629246       0.87500000 </v>
   <v>       0.83370753       0.66629246       0.87500000 </v>
  </varray>
 </structure>
</modeling>
