  32  32   0   0
  0.8948858E+01  0.4932875E-09  0.4932875E-09  0.1359509E-08  0.5000000E-15
  1.000000000000000E-004
  CAR 
 graphite                                
     15.38573674    -17.05456221  301      4.56216616      1.00000000
    -17.055  0.0000E+00  0.0000E+00
    -16.946  0.0000E+00  0.0000E+00
    -16.838  0.0000E+00  0.0000E+00
    -16.730  0.0000E+00  0.0000E+00
    -16.622  0.0000E+00  0.0000E+00
    -16.514  0.0000E+00  0.0000E+00
    -16.406  0.0000E+00  0.0000E+00
    -16.298  0.0000E+00  0.0000E+00
    -16.189  0.0000E+00  0.0000E+00
    -16.081  0.0000E+00  0.0000E+00
    -15.973  0.0000E+00  0.0000E+00
    -15.865  0.0000E+00  0.0000E+00
    -15.757  0.0000E+00  0.0000E+00
    -15.649  0.0000E+00  0.0000E+00
    -15.541  0.0000E+00  0.0000E+00
    -15.433  0.0000E+00  0.0000E+00
    -15.324  0.0000E+00  0.0000E+00
    -15.216  0.0000E+00  0.0000E+00
    -15.108  0.0000E+00  0.0000E+00
    -15.000  0.1150E+01  0.2422E-01
    -14.892  0.2535E+01  0.2341E+00
    -14.784  0.4223E+01  0.5934E+00
    -14.676  0.4808E+01  0.1112E+01
    -14.567  0.5020E+01  0.1647E+01
    -14.459  0.4907E+01  0.2180E+01
    -14.351  0.4950E+01  0.2713E+01
    -14.243  0.4909E+01  0.3246E+01
    -14.135  0.4980E+01  0.3781E+01
    -14.027  0.4981E+01  0.4319E+01
    -13.919  0.5001E+01  0.4859E+01
    -13.811  0.5624E+01  0.5429E+01
    -13.702  0.5900E+01  0.6056E+01
    -13.594  0.6799E+01  0.6767E+01
    -13.486  0.4625E+01  0.7358E+01
    -13.378  0.1786E+01  0.7722E+01
    -13.270  0.3330E+01  0.7967E+01
    -13.162  0.4261E+01  0.8412E+01
    -13.054  0.4606E+01  0.8895E+01
    -12.945  0.5931E+01  0.9640E+01
    -12.837  0.6719E+01  0.1034E+02
    -12.729  0.4351E+01  0.1089E+02
    -12.621  0.4523E+01  0.1137E+02
    -12.513  0.4657E+01  0.1187E+02
    -12.405  0.4773E+01  0.1238E+02
    -12.297  0.5140E+01  0.1291E+02
    -12.189  0.5491E+01  0.1349E+02
    -12.080  0.5667E+01  0.1412E+02
    -11.972  0.5519E+01  0.1471E+02
    -11.864  0.5135E+01  0.1528E+02
    -11.756  0.4944E+01  0.1583E+02
    -11.648  0.4922E+01  0.1636E+02
    -11.540  0.5019E+01  0.1690E+02
    -11.432  0.5078E+01  0.1744E+02
    -11.323  0.5200E+01  0.1799E+02
    -11.215  0.5490E+01  0.1857E+02
    -11.107  0.5900E+01  0.1919E+02
    -10.999  0.5788E+01  0.1982E+02
    -10.891  0.5736E+01  0.2044E+02
    -10.783  0.5792E+01  0.2106E+02
    -10.675  0.5362E+01  0.2168E+02
    -10.567  0.4536E+01  0.2220E+02
    -10.458  0.5137E+01  0.2273E+02
    -10.350  0.5336E+01  0.2330E+02
    -10.242  0.5433E+01  0.2388E+02
    -10.134  0.5628E+01  0.2448E+02
    -10.026  0.5875E+01  0.2510E+02
     -9.918  0.7236E+01  0.2579E+02
     -9.810  0.1069E+02  0.2672E+02
     -9.701  0.7273E+01  0.2769E+02
     -9.593  0.5931E+01  0.2835E+02
     -9.485  0.5832E+01  0.2906E+02
     -9.377  0.3645E+01  0.2960E+02
     -9.269  0.3275E+01  0.2998E+02
     -9.161  0.2905E+01  0.3031E+02
     -9.053  0.2535E+01  0.3061E+02
     -8.944  0.2365E+01  0.3086E+02
     -8.836  0.3193E+01  0.3118E+02
     -8.728  0.2083E+01  0.3146E+02
     -8.620  0.1537E+01  0.3163E+02
     -8.512  0.2421E+01  0.3184E+02
     -8.404  0.5943E+01  0.3222E+02
     -8.296  0.4545E+01  0.3298E+02
     -8.188  0.3876E+01  0.3343E+02
     -8.079  0.4204E+01  0.3386E+02
     -7.971  0.7159E+01  0.3446E+02
     -7.863  0.6132E+01  0.3524E+02
     -7.755  0.7196E+01  0.3596E+02
     -7.647  0.8292E+01  0.3680E+02
     -7.539  0.8402E+01  0.3775E+02
     -7.431  0.6323E+01  0.3853E+02
     -7.322  0.6062E+01  0.3920E+02
     -7.214  0.5803E+01  0.3984E+02
     -7.106  0.5567E+01  0.4045E+02
     -6.998  0.5372E+01  0.4104E+02
     -6.890  0.5193E+01  0.4161E+02
     -6.782  0.5000E+01  0.4217E+02
     -6.674  0.4854E+01  0.4270E+02
     -6.566  0.4825E+01  0.4322E+02
     -6.457  0.4795E+01  0.4374E+02
     -6.349  0.4660E+01  0.4426E+02
     -6.241  0.4435E+01  0.4475E+02
     -6.133  0.4380E+01  0.4522E+02
     -6.025  0.4004E+01  0.4564E+02
     -5.917  0.4226E+01  0.4608E+02
     -5.809  0.4855E+01  0.4657E+02
     -5.700  0.5642E+01  0.4713E+02
     -5.592  0.6436E+01  0.4779E+02
     -5.484  0.9765E+01  0.4865E+02
     -5.376  0.8933E+01  0.4973E+02
     -5.268  0.6642E+01  0.5057E+02
     -5.160  0.4350E+01  0.5116E+02
     -5.052  0.2640E+01  0.5152E+02
     -4.944  0.2909E+01  0.5181E+02
     -4.835  0.4100E+01  0.5219E+02
     -4.727  0.5435E+01  0.5270E+02
     -4.619  0.6975E+01  0.5337E+02
     -4.511  0.8125E+01  0.5421E+02
     -4.403  0.7005E+01  0.5503E+02
     -4.295  0.5760E+01  0.5572E+02
     -4.187  0.6536E+01  0.5634E+02
     -4.078  0.7366E+01  0.5715E+02
     -3.970  0.6846E+01  0.5792E+02
     -3.862  0.6359E+01  0.5863E+02
     -3.754  0.6472E+01  0.5933E+02
     -3.646  0.7211E+01  0.6002E+02
     -3.538  0.1187E+02  0.6111E+02
     -3.430  0.8810E+01  0.6221E+02
     -3.322  0.7990E+01  0.6313E+02
     -3.213  0.7355E+01  0.6395E+02
     -3.105  0.6781E+01  0.6470E+02
     -2.997  0.7502E+01  0.6547E+02
     -2.889  0.8560E+01  0.6633E+02
     -2.781  0.1022E+02  0.6733E+02
     -2.673  0.1422E+02  0.6865E+02
     -2.565  0.1269E+02  0.7019E+02
     -2.456  0.1154E+02  0.7146E+02
     -2.348  0.1272E+02  0.7280E+02
     -2.240  0.1375E+02  0.7415E+02
     -2.132  0.1388E+02  0.7574E+02
     -2.024  0.1474E+02  0.7718E+02
     -1.916  0.1306E+02  0.7902E+02
     -1.808  0.1300E+02  0.8027E+02
     -1.699  0.1642E+02  0.8232E+02
     -1.591  0.1842E+02  0.8425E+02
     -1.483  0.1497E+02  0.8611E+02
     -1.375  0.1227E+02  0.8760E+02
     -1.267  0.1055E+02  0.8882E+02
     -1.159  0.9111E+01  0.8991E+02
     -1.051  0.7506E+01  0.9083E+02
     -0.943  0.1064E+02  0.9179E+02
     -0.834  0.1339E+02  0.9313E+02
     -0.726  0.1586E+02  0.9457E+02
     -0.618  0.9191E+01  0.9608E+02
     -0.510  0.9728E+01  0.9708E+02
     -0.402  0.1085E+02  0.9819E+02
     -0.294  0.1041E+02  0.9932E+02
     -0.186  0.1113E+02  0.1005E+03
     -0.077  0.9540E+01  0.1016E+03
      0.031  0.9225E+01  0.1026E+03
      0.139  0.9844E+01  0.1037E+03
      0.247  0.9759E+01  0.1047E+03
      0.355  0.9327E+01  0.1058E+03
      0.463  0.9225E+01  0.1068E+03
      0.571  0.9460E+01  0.1078E+03
      0.679  0.9399E+01  0.1088E+03
      0.788  0.9266E+01  0.1098E+03
      0.896  0.9395E+01  0.1108E+03
      1.004  0.9089E+01  0.1118E+03
      1.112  0.9488E+01  0.1128E+03
      1.220  0.9629E+01  0.1138E+03
      1.328  0.9799E+01  0.1149E+03
      1.436  0.1006E+02  0.1159E+03
      1.545  0.7545E+01  0.1169E+03
      1.653  0.6625E+01  0.1176E+03
      1.761  0.6263E+01  0.1183E+03
      1.869  0.4999E+01  0.1189E+03
      1.977  0.3812E+01  0.1194E+03
      2.085  0.4134E+01  0.1198E+03
      2.193  0.6673E+01  0.1204E+03
      2.301  0.8471E+01  0.1212E+03
      2.410  0.5583E+01  0.1222E+03
      2.518  0.8784E+01  0.1229E+03
      2.626  0.6874E+01  0.1238E+03
      2.734  0.5280E+01  0.1244E+03
      2.842  0.4428E+01  0.1249E+03
      2.950  0.3763E+01  0.1254E+03
      3.058  0.3295E+01  0.1258E+03
      3.167  0.3144E+01  0.1261E+03
      3.275  0.2850E+01  0.1264E+03
      3.383  0.2453E+01  0.1267E+03
      3.491  0.2080E+01  0.1270E+03
      3.599  0.1843E+01  0.1272E+03
      3.707  0.1606E+01  0.1274E+03
      3.815  0.1366E+01  0.1275E+03
      3.923  0.1133E+01  0.1277E+03
      4.032  0.9311E+00  0.1278E+03
      4.140  0.7137E+00  0.1279E+03
      4.248  0.5116E+00  0.1279E+03
      4.356  0.3229E+00  0.1280E+03
      4.464  0.1454E+00  0.1280E+03
      4.572  0.2311E-02  0.1280E+03
      4.680  0.1236E+00  0.1280E+03
      4.789  0.2579E+00  0.1280E+03
      4.897  0.4056E+00  0.1281E+03
      5.005  0.5701E+00  0.1281E+03
      5.113  0.7570E+00  0.1282E+03
      5.221  0.9847E+00  0.1283E+03
      5.329  0.1349E+01  0.1284E+03
      5.437  0.1727E+01  0.1286E+03
      5.546  0.2063E+01  0.1288E+03
      5.654  0.2434E+01  0.1290E+03
      5.762  0.3227E+01  0.1293E+03
      5.870  0.3362E+01  0.1297E+03
      5.978  0.4324E+01  0.1301E+03
      6.086  0.6772E+01  0.1307E+03
      6.194  0.8105E+01  0.1318E+03
      6.302  0.8305E+01  0.1327E+03
      6.411  0.7941E+01  0.1335E+03
      6.519  0.7767E+01  0.1344E+03
      6.627  0.6352E+01  0.1351E+03
      6.735  0.6078E+01  0.1358E+03
      6.843  0.5624E+01  0.1364E+03
      6.951  0.4939E+01  0.1370E+03
      7.059  0.4414E+01  0.1375E+03
      7.168  0.3670E+01  0.1380E+03
      7.276  0.3564E+01  0.1383E+03
      7.384  0.3864E+01  0.1387E+03
      7.492  0.4378E+01  0.1392E+03
      7.600  0.4645E+01  0.1397E+03
      7.708  0.4705E+01  0.1402E+03
      7.816  0.4540E+01  0.1407E+03
      7.924  0.4386E+01  0.1412E+03
      8.033  0.4227E+01  0.1416E+03
      8.141  0.4058E+01  0.1421E+03
      8.249  0.3871E+01  0.1425E+03
      8.357  0.3727E+01  0.1429E+03
      8.465  0.3607E+01  0.1433E+03
      8.573  0.3526E+01  0.1437E+03
      8.681  0.3449E+01  0.1441E+03
      8.790  0.3358E+01  0.1444E+03
      8.898  0.3573E+01  0.1448E+03
      9.006  0.3762E+01  0.1452E+03
      9.114  0.3919E+01  0.1456E+03
      9.222  0.4080E+01  0.1461E+03
      9.330  0.4164E+01  0.1465E+03
      9.438  0.4094E+01  0.1470E+03
      9.546  0.3978E+01  0.1474E+03
      9.655  0.3963E+01  0.1478E+03
      9.763  0.3937E+01  0.1483E+03
      9.871  0.3957E+01  0.1487E+03
      9.979  0.3975E+01  0.1491E+03
     10.087  0.4036E+01  0.1495E+03
     10.195  0.4110E+01  0.1500E+03
     10.303  0.4259E+01  0.1504E+03
     10.412  0.4311E+01  0.1509E+03
     10.520  0.5334E+01  0.1514E+03
     10.628  0.5653E+01  0.1520E+03
     10.736  0.5480E+01  0.1526E+03
     10.844  0.4474E+01  0.1531E+03
     10.952  0.4430E+01  0.1536E+03
     11.060  0.4016E+01  0.1541E+03
     11.168  0.3464E+01  0.1545E+03
     11.277  0.3701E+01  0.1549E+03
     11.385  0.4227E+01  0.1554E+03
     11.493  0.3370E+01  0.1558E+03
     11.601  0.2428E+01  0.1561E+03
     11.709  0.3380E+01  0.1564E+03
     11.817  0.5632E+01  0.1568E+03
     11.925  0.6741E+01  0.1576E+03
     12.034  0.1008E+02  0.1585E+03
     12.142  0.1250E+02  0.1597E+03
     12.250  0.1413E+02  0.1611E+03
     12.358  0.1377E+02  0.1627E+03
     12.466  0.1079E+02  0.1640E+03
     12.574  0.8172E+01  0.1651E+03
     12.682  0.6482E+01  0.1658E+03
     12.791  0.5522E+01  0.1665E+03
     12.899  0.5442E+01  0.1671E+03
     13.007  0.3204E+01  0.1675E+03
     13.115  0.1899E+01  0.1678E+03
     13.223  0.7722E+00  0.1680E+03
     13.331  0.6081E-01  0.1680E+03
     13.439  0.0000E+00  0.1680E+03
     13.547  0.0000E+00  0.1680E+03
     13.656  0.0000E+00  0.1680E+03
     13.764  0.0000E+00  0.1680E+03
     13.872  0.0000E+00  0.1680E+03
     13.980  0.0000E+00  0.1680E+03
     14.088  0.0000E+00  0.1680E+03
     14.196  0.0000E+00  0.1680E+03
     14.304  0.0000E+00  0.1680E+03
     14.413  0.0000E+00  0.1680E+03
     14.521  0.0000E+00  0.1680E+03
     14.629  0.0000E+00  0.1680E+03
     14.737  0.0000E+00  0.1680E+03
     14.845  0.0000E+00  0.1680E+03
     14.953  0.0000E+00  0.1680E+03
     15.061  0.0000E+00  0.1680E+03
     15.169  0.0000E+00  0.1680E+03
     15.278  0.0000E+00  0.1680E+03
     15.386  0.0000E+00  0.1680E+03
