       N       E                     dE             d eps       ncg     rms          rms(c)
DAV:   1     0.596345413435E+03    0.59635E+03   -0.71596E+04 27384   0.159E+03
DAV:   2    -0.263040148099E+03   -0.85939E+03   -0.82862E+03 34200   0.312E+02
DAV:   3    -0.312824966125E+03   -0.49785E+02   -0.49323E+02 33432   0.755E+01
DAV:   4    -0.313767925280E+03   -0.94296E+00   -0.94123E+00 34872   0.113E+01
DAV:   5    -0.313795989068E+03   -0.28064E-01   -0.28052E-01 35028   0.181E+00    0.221E+01
DAV:   6    -0.299286198706E+03    0.14510E+02   -0.14959E+01 31296   0.107E+01    0.116E+01
DAV:   7    -0.294675509013E+03    0.46107E+01   -0.15775E+01 30912   0.110E+01    0.194E+00
DAV:   8    -0.294741560433E+03   -0.66051E-01   -0.40966E-01 30888   0.185E+00    0.323E-01
DAV:   9    -0.294742483339E+03   -0.92291E-03   -0.26672E-02 32580   0.510E-01    0.160E-01
DAV:  10    -0.294742769023E+03   -0.28568E-03   -0.46018E-03 33132   0.216E-01    0.103E-01
DAV:  11    -0.294743423718E+03   -0.65470E-03   -0.37092E-03 33444   0.152E-01    0.826E-02
DAV:  12    -0.294743749003E+03   -0.32529E-03   -0.14595E-03 31116   0.108E-01    0.537E-02
DAV:  13    -0.294743845714E+03   -0.96711E-04   -0.33175E-03 36852   0.138E-01    0.561E-02
DAV:  14    -0.294743772987E+03    0.72727E-04   -0.10227E-03 33612   0.919E-02    0.127E-02
DAV:  15    -0.294743775884E+03   -0.28968E-05   -0.58079E-05 31308   0.267E-02    0.823E-03
DAV:  16    -0.294743775818E+03    0.65880E-07   -0.37180E-05 29784   0.141E-02    0.615E-03
DAV:  17    -0.294743775365E+03    0.45320E-06   -0.23163E-05 24240   0.102E-02    0.418E-03
DAV:  18    -0.294743774891E+03    0.47412E-06   -0.60039E-06 19476   0.565E-03
   1 F= -.29966910E+03 E0= -.29966910E+03  d E =0.000000E+00
