 running on    6 total cores
 distrk:  each k-point on    6 cores,    1 groups
 distr:  one band on    3 cores,    2 groups
 using from now: INCAR     
 vasp.5.3.5 31Mar14 (build Nov 02 2014 15:17:37) complex                        
  
 POSCAR found type information on POSCAR  C 
 POSCAR found :  1 types and       4 ions
 scaLAPACK will be used
 LDA part: xc-table for Pade appr. of Perdew
 POSCAR, INCAR and KPOINTS ok, starting setup
 WARNING: small aliasing (wrap around) errors must be expected
 FFT: planning ...
 WAVECAR not read
 WARNING: random wavefunctions but no delay for mixing, default for NELMDL
 entering main loop
       N       E                     dE             d eps       ncg     rms          rms(c)
DAV:   1     0.529044837646E+02    0.52904E+02   -0.90828E+03 10920   0.139E+03
DAV:   2    -0.351996761021E+02   -0.88104E+02   -0.81343E+02 15112   0.241E+02
DAV:   3    -0.390520005816E+02   -0.38523E+01   -0.38220E+01 14008   0.509E+01
DAV:   4    -0.390988472505E+02   -0.46847E-01   -0.46762E-01 13520   0.644E+00
DAV:   5    -0.390998556619E+02   -0.10084E-02   -0.10082E-02 13500   0.903E-01    0.779E+00
DAV:   6    -0.373309873389E+02    0.17689E+01   -0.17539E+00 12572   0.930E+00    0.408E+00
DAV:   7    -0.367764839839E+02    0.55450E+00   -0.17816E+00 12952   0.950E+00    0.673E-01
DAV:   8    -0.367834938864E+02   -0.70099E-02   -0.44891E-02 12708   0.146E+00    0.836E-02
DAV:   9    -0.367836780685E+02   -0.18418E-03   -0.99957E-04 13764   0.273E-01    0.373E-02
DAV:  10    -0.367837770054E+02   -0.98937E-04   -0.10463E-04 13456   0.925E-02    0.529E-03
DAV:  11    -0.367837783746E+02   -0.13692E-05   -0.33502E-06 13756   0.157E-02    0.160E-03
DAV:  12    -0.367837783484E+02    0.26148E-07   -0.62775E-07  9348   0.693E-03
   1 F= -.37192026E+02 E0= -.37192026E+02  d E =-.371920E+02
 curvature:   0.00 expect dE= 0.000E+00 dE for cont linesearch  0.000E+00
 trial: gam= 0.00000 g(F)=  0.366E-05 g(S)=  0.000E+00 ort = 0.000E+00 (trialstep = 0.100E+01)
 search vector abs. value=  0.366E-05
 reached required accuracy - stopping structural energy minimisation
