   32   32    1    1
  0.8381369E+01  0.4932875E-09  0.4932875E-09  0.1273296E-08  0.5000000E-15
  1.000000000000000E-004
  CAR 
 graphite                                
    128    163     84
 
  0.0000000E+00  0.0000000E+00  0.0000000E+00  0.3086420E-02
    1      -14.544940
    2      -14.333219
    3      -14.332421
    4      -14.099752
    5       -9.186248
    6       -9.176387
    7       -9.173194
    8       -9.091647
    9       -9.090027
   10       -9.079591
   11       -9.078287
   12       -9.078259
   13       -9.073875
   14       -9.019496
   15       -9.005724
   16       -9.003383
   17       -8.080813
   18       -8.079110
   19       -8.078292
   20       -8.041451
   21       -8.040486
   22       -8.038180
   23       -8.037960
   24       -8.037924
   25       -8.034967
   26       -7.955412
   27       -7.954414
   28       -7.951743
   29       -3.590794
   30       -2.456524
   31       -2.454389
   32       -1.256919
   33       -1.254458
   34       -1.238862
   35       -1.212254
   36       -1.211394
   37       -1.211382
   38       -1.206991
   39       -1.194515
   40       -1.192714
   41       -1.165714
   42       -1.162875
   43       -1.147658
   44       -1.045662
   45        2.152336
   46        2.161217
   47        2.166670
   48        2.171919
   49        2.177736
   50        2.182737
   51        2.187842
   52        2.196704
   53        2.232941
   54        2.235715
   55        2.237266
   56        2.790888
   57        2.793540
   58        2.800781
   59        2.801118
   60        2.801304
   61        2.805472
   62        3.111415
   63        3.132735
   64        3.134230
   65        6.708257
   66        6.710325
   67        6.719517
   68        6.794581
   69        6.798180
   70        6.800408
   71        6.802560
   72        6.802997
   73        6.807340
   74        7.498265
   75        7.505015
   76        7.508504
   77        9.954533
   78       12.266284
   79       12.270417
   80       12.301879
   81       12.542868
   82       12.546758
   83       12.555074
   84       12.559777
 
  0.1111111E+00  0.0000000E+00  0.0000000E+00  0.6172840E-02
    1      -14.470968
    2      -14.260118
    3      -14.259325
    4      -14.027600
    5       -9.990011
    6       -9.835403
    7       -9.834560
    8       -9.670655
    9       -9.445708
   10       -9.436989
   11       -9.311242
   12       -9.310380
   13       -9.301652
   14       -9.300488
   15       -9.175286
   16       -9.164733
   17       -7.802644
   18       -7.799035
   19       -7.699718
   20       -7.697250
   21       -7.694313
   22       -7.693027
   23       -7.575528
   24       -7.570622
   25       -7.295372
   26       -7.173798
   27       -7.172323
   28       -7.041177
   29       -3.500846
   30       -2.369678
   31       -2.367545
   32       -1.485181
   33       -1.468062
   34       -1.435466
   35       -1.435122
   36       -1.418915
   37       -1.417133
   38       -1.384279
   39       -1.367187
   40       -1.182560
   41       -1.138932
   42       -1.135664
   43       -1.091532
   44       -0.963032
   45        1.614622
   46        1.855161
   47        1.875528
   48        1.880063
   49        1.900059
   50        1.996443
   51        2.014270
   52        2.019510
   53        2.038136
   54        2.104681
   55        2.108561
   56        2.374267
   57        2.377069
   58        2.739287
   59        2.741905
   60        2.748769
   61        2.749803
   62        3.091629
   63        3.200791
   64        3.219336
   65        6.753773
   66        6.760679
   67        6.927626
   68        6.931765
   69        6.933147
   70        6.937996
   71        6.978229
   72        7.339487
   73        7.344230
   74        7.635500
   75        7.643453
   76        8.124033
   77       10.040786
   78       12.311003
   79       12.584814
   80       12.586110
   81       12.603467
   82       12.637215
   83       12.875014
   84       12.885025
 
  0.2222222E+00  0.0000000E+00  0.0000000E+00  0.6172840E-02
    1      -14.249378
    2      -14.041015
    3      -14.040234
    4      -13.811605
    5      -11.007359
    6      -10.836298
    7      -10.835616
    8      -10.651782
    9       -9.797845
   10       -9.791945
   11       -9.646231
   12       -9.645686
   13       -9.640123
   14       -9.638874
   15       -9.484953
   16       -9.478396
   17       -7.128555
   18       -7.121418
   19       -7.011521
   20       -7.009159
   21       -7.003334
   22       -7.002223
   23       -6.882428
   24       -6.874988
   25       -5.967245
   26       -5.852203
   27       -5.850825
   28       -5.729423
   29       -3.232150
   30       -2.109912
   31       -2.107796
   32       -2.096610
   33       -2.080522
   34       -2.036354
   35       -2.036073
   36       -2.020799
   37       -2.019038
   38       -1.973552
   39       -1.957496
   40       -0.967029
   41       -0.924363
   42       -0.921006
   43       -0.877796
   44       -0.716378
   45        0.568734
   46        1.023727
   47        1.057154
   48        1.061262
   49        1.094676
   50        1.485093
   51        1.487411
   52        1.572801
   53        1.597959
   54        1.603217
   55        1.628999
   56        1.864817
   57        1.868732
   58        2.530817
   59        2.618254
   60        2.620862
   61        2.626051
   62        2.627153
   63        3.330882
   64        3.344231
   65        6.936895
   66        6.939762
   67        7.262858
   68        7.266403
   69        7.268519
   70        7.272817
   71        7.934974
   72        7.940001
   73        8.034552
   74        8.562599
   75        8.566548
   76        9.333880
   77       10.300450
   78       12.433146
   79       12.697626
   80       12.699492
   81       12.954505
   82       13.228956
   83       13.233263
   84       13.518174
 
  0.3333333E+00  0.0000000E+00  0.0000000E+00  0.6172840E-02
    1      -13.881325
    2      -13.677142
    3      -13.676382
    4      -13.452810
    5      -11.924444
    6      -11.742439
    7      -11.741752
    8      -11.544719
    9      -10.056235
   10      -10.052535
   11       -9.898141
   12       -9.897575
   13       -9.894432
   14       -9.892959
   15       -9.728639
   16       -9.724686
   17       -6.317694
   18       -6.308755
   19       -6.208637
   20       -6.206168
   21       -6.199015
   22       -6.197587
   23       -6.091028
   24       -6.082246
   25       -4.527872
   26       -4.427330
   27       -4.425715
   28       -4.320273
   29       -2.916316
   30       -2.902339
   31       -2.846652
   32       -2.846329
   33       -2.833266
   34       -2.831367
   35       -2.787066
   36       -2.772844
   37       -2.758771
   38       -1.680689
   39       -1.678561
   40       -0.617392
   41       -0.576192
   42       -0.572657
   43       -0.530792
   44       -0.466516
   45       -0.309953
   46       -0.168048
   47       -0.118230
   48       -0.114977
   49       -0.064584
   50        0.532407
   51        0.534520
   52        1.006693
   53        1.038012
   54        1.042826
   55        1.074621
   56        1.660341
   57        1.663510
   58        1.729971
   59        2.494511
   60        2.497262
   61        2.500388
   62        2.501517
   63        3.397001
   64        3.405070
   65        7.245174
   66        7.247601
   67        7.655505
   68        7.658058
   69        7.660190
   70        7.664186
   71        8.216059
   72        8.219095
   73        9.529807
   74       10.040429
   75       10.044016
   76       10.718190
   77       10.736037
   78       12.598057
   79       12.873435
   80       12.875522
   81       12.929904
   82       13.318410
   83       13.323221
   84       13.374388
 
  0.4444444E+00  0.0000000E+00  0.0000000E+00  0.6172840E-02
    1      -13.368803
    2      -13.170307
    3      -13.169585
    4      -12.953030
    5      -12.714765
    6      -12.523645
    7      -12.522918
    8      -12.315275
    9      -10.189016
   10      -10.186931
   11      -10.028671
   12      -10.027769
   13      -10.026742
   14      -10.024776
   15       -9.855973
   16       -9.853807
   17       -5.556313
   18       -5.549321
   19       -5.476139
   20       -5.473444
   21       -5.469379
   22       -5.466469
   23       -5.393692
   24       -5.387724
   25       -3.659001
   26       -3.651560
   27       -3.604503
   28       -3.602864
   29       -3.596582
   30       -3.594313
   31       -3.537928
   32       -3.529376
   33       -3.040675
   34       -2.956437
   35       -2.954434
   36       -2.867078
   37       -2.170559
   38       -1.561446
   39       -1.495917
   40       -1.493199
   41       -1.423057
   42       -1.391071
   43       -1.085935
   44       -1.084007
   45       -0.342051
   46       -0.340001
   47       -0.149930
   48       -0.110656
   49       -0.106860
   50       -0.067400
   51        0.247446
   52        0.407173
   53        0.443256
   54        0.447637
   55        0.483911
   56        0.939222
   57        1.548326
   58        1.550634
   59        2.420191
   60        2.423376
   61        2.424487
   62        2.425803
   63        3.415009
   64        3.418528
   65        7.508452
   66        7.511314
   67        7.924394
   68        7.925380
   69        7.926316
   70        7.930870
   71        8.360091
   72        8.362737
   73       11.166179
   74       11.336020
   75       11.579161
   76       11.582735
   77       12.087828
   78       12.148957
   79       12.782359
   80       12.917949
   81       12.966358
   82       12.972765
   83       13.095383
   84       13.106160
 
 -0.1355253E-19  0.1111111E+00  0.0000000E+00  0.6172840E-02
    1      -14.470966
    2      -14.260117
    3      -14.259322
    4      -14.027598
    5       -9.990120
    6       -9.835432
    7       -9.834796
    8       -9.670823
    9       -9.445688
   10       -9.436656
   11       -9.311176
   12       -9.310378
   13       -9.301642
   14       -9.299769
   15       -9.175258
   16       -9.164308
   17       -7.803049
   18       -7.800065
   19       -7.699745
   20       -7.698945
   21       -7.694349
   22       -7.693852
   23       -7.575875
   24       -7.571453
   25       -7.294297
   26       -7.172397
   27       -7.171676
   28       -7.040190
   29       -3.500851
   30       -2.369682
   31       -2.367551
   32       -1.483899
   33       -1.468042
   34       -1.435445
   35       -1.432410
   36       -1.419109
   37       -1.417133
   38       -1.382912
   39       -1.367270
   40       -1.183741
   41       -1.138939
   42       -1.138245
   43       -1.092963
   44       -0.963039
   45        1.613746
   46        1.858763
   47        1.880062
   48        1.880597
   49        1.902060
   50        1.994450
   51        2.014265
   52        2.014450
   53        2.034466
   54        2.105140
   55        2.109255
   56        2.374082
   57        2.375215
   58        2.739675
   59        2.741902
   60        2.748796
   61        2.752032
   62        3.090481
   63        3.200834
   64        3.220412
   65        6.751934
   66        6.760635
   67        6.926877
   68        6.930190
   69        6.933016
   70        6.936084
   71        6.980148
   72        7.342028
   73        7.345405
   74        7.635298
   75        7.641326
   76        8.125868
   77       10.040778
   78       12.310333
   79       12.584458
   80       12.585163
   81       12.604261
   82       12.637739
   83       12.882172
   84       12.886246
 
  0.1111111E+00  0.1111111E+00  0.0000000E+00  0.6172840E-02
    1      -14.323089
    2      -14.113886
    3      -14.113100
    4      -13.883461
    5      -10.458711
    6      -10.455601
    7      -10.296233
    8      -10.293629
    9      -10.293605
   10      -10.289923
   11      -10.119687
   12      -10.116505
   13       -8.996158
   14       -8.902857
   15       -8.901814
   16       -8.832401
   17       -7.893564
   18       -7.857194
   19       -7.853244
   20       -7.775199
   21       -6.611408
   22       -6.608014
   23       -6.493061
   24       -6.489349
   25       -6.489328
   26       -6.486295
   27       -6.363717
   28       -6.360333
   29       -3.321521
   30       -2.196236
   31       -2.194109
   32       -2.156232
   33       -2.095849
   34       -2.093965
   35       -2.032032
   36       -1.340034
   37       -1.337440
   38       -1.291363
   39       -1.290405
   40       -1.290393
   41       -1.285792
   42       -1.240762
   43       -1.237729
   44       -0.798263
   45        1.163557
   46        1.166169
   47        1.325637
   48        1.346452
   49        1.350937
   50        1.368919
   51        1.684190
   52        1.698356
   53        1.704007
   54        1.721539
   55        2.014206
   56        2.015650
   57        2.015788
   58        2.019620
   59        2.499609
   60        2.927077
   61        2.929464
   62        3.056968
   63        3.059237
   64        3.369643
   65        6.715937
   66        6.724617
   67        6.730875
   68        7.289119
   69        7.412737
   70        7.415355
   71        7.881329
   72        7.886387
   73        7.887038
   74        7.889025
   75        8.645874
   76        8.648826
   77       10.214163
   78       12.685271
   79       12.689473
   80       12.955488
   81       12.958797
   82       12.958873
   83       12.963934
   84       13.204926
 
  0.2222222E+00  0.1111111E+00  0.0000000E+00  0.6172840E-02
    1      -14.028161
    2      -13.822283
    3      -13.821517
    4      -13.595934
    5      -11.428760
    6      -11.252725
    7      -11.252049
    8      -11.062154
    9      -10.801336
   10      -10.633004
   11      -10.632225
   12      -10.451425
   13       -9.057818
   14       -8.928065
   15       -8.927587
   16       -8.797463
   17       -7.452994
   18       -7.356998
   19       -7.353677
   20       -7.241102
   21       -5.821529
   22       -5.711087
   23       -5.710192
   24       -5.593932
   25       -5.223356
   26       -5.116451
   27       -5.115081
   28       -5.002601
   29       -3.069438
   30       -2.997394
   31       -2.995562
   32       -2.964394
   33       -2.920053
   34       -1.870785
   35       -1.851519
   36       -1.849396
   37       -1.812451
   38       -1.812190
   39       -1.751826
   40       -1.051170
   41       -1.004983
   42       -1.001704
   43       -0.954596
   44       -0.471470
   45        0.104013
   46        0.365181
   47        0.399572
   48        0.404185
   49        0.436939
   50        0.819412
   51        1.064931
   52        1.066989
   53        1.135639
   54        1.158542
   55        1.164583
   56        1.189706
   57        1.727381
   58        1.728822
   59        2.196661
   60        2.623358
   61        2.764034
   62        3.258926
   63        3.261153
   64        3.717142
   65        6.650586
   66        6.734361
   67        6.739642
   68        7.219793
   69        7.967534
   70        8.456144
   71        8.458944
   72        8.731829
   73        9.108224
   74        9.254044
   75        9.257430
   76        9.952739
   77       10.562109
   78       12.839071
   79       13.103899
   80       13.105671
   81       13.291096
   82       13.402620
   83       13.407933
   84       13.676914
 
  0.3333333E+00  0.1111111E+00  0.0000000E+00  0.6172840E-02
    1      -13.587746
    2      -13.386862
    3      -13.386124
    4      -13.166537
    5      -12.283073
    6      -12.096969
    7      -12.096260
    8      -11.894436
    9      -11.011245
   10      -10.840163
   11      -10.839372
   12      -10.655428
   13       -9.206186
   14       -9.062008
   15       -9.061535
   16       -8.909966
   17       -6.689772
   18       -6.589893
   19       -6.586750
   20       -6.481174
   21       -5.014472
   22       -4.922563
   23       -4.920929
   24       -4.826147
   25       -4.008359
   26       -3.935273
   27       -3.933244
   28       -3.852930
   29       -3.767305
   30       -3.676302
   31       -3.674702
   32       -3.580298
   33       -2.571369
   34       -2.510222
   35       -2.509492
   36       -2.443503
   37       -2.433218
   38       -1.340789
   39       -1.338589
   40       -0.890053
   41       -0.880899
   42       -0.833837
   43       -0.830580
   44       -0.777148
   45       -0.633688
   46       -0.589936
   47       -0.586531
   48       -0.541802
   49        0.011102
   50        0.142408
   51        0.144437
   52        0.506013
   53        0.538902
   54        0.543929
   55        0.578023
   56        0.604733
   57        1.383229
   58        1.543250
   59        1.544776
   60        2.605120
   61        2.645934
   62        3.349262
   63        3.351128
   64        4.068061
   65        6.543469
   66        6.854932
   67        6.859039
   68        7.322929
   69        8.474900
   70        8.911715
   71        8.914101
   72        9.396655
   73       10.302007
   74       10.759776
   75       10.762976
   76       11.083155
   77       11.347767
   78       12.586630
   79       13.121515
   80       13.297500
   81       13.299433
   82       13.418501
   83       13.422509
   84       13.432814
 
  0.4444444E+00  0.1111111E+00  0.0000000E+00  0.6172840E-02
    1      -13.006387
    2      -13.003326
    3      -12.812890
    4      -12.810814
    5      -12.809862
    6      -12.806886
    7      -12.599673
    8      -12.596536
    9      -11.082118
   10      -10.910375
   11      -10.909574
   12      -10.724504
   13       -9.261905
   14       -9.115035
   15       -9.114435
   16       -8.959045
   17       -6.168000
   18       -6.102013
   19       -6.099056
   20       -6.038410
   21       -4.527439
   22       -4.515209
   23       -4.480122
   24       -4.478118
   25       -4.471981
   26       -4.468366
   27       -4.425706
   28       -4.417624
   29       -2.976070
   30       -2.942563
   31       -2.939851
   32       -2.894448
   33       -2.301879
   34       -2.297737
   35       -2.230331
   36       -2.225636
   37       -2.223662
   38       -2.223479
   39       -2.150939
   40       -2.147156
   41       -1.736448
   42       -1.733857
   43       -0.671583
   44       -0.669361
   45       -0.668502
   46       -0.665065
   47       -0.105817
   48       -0.100987
   49       -0.064636
   50       -0.064534
   51       -0.062315
   52       -0.054530
   53       -0.021734
   54       -0.014911
   55        0.530631
   56        0.635650
   57        0.638558
   58        1.479471
   59        1.481053
   60        2.587463
   61        2.602506
   62        3.372855
   63        3.374253
   64        4.211873
   65        6.502477
   66        6.923082
   67        6.925925
   68        7.376938
   69        8.698053
   70        9.089137
   71        9.091667
   72        9.478010
   73       11.767543
   74       11.770032
   75       11.913689
   76       11.917081
   77       12.249776
   78       12.255790
   79       12.257048
   80       12.259758
   81       12.732246
   82       12.736460
   83       13.353705
   84       13.359170
 
 -0.4444444E+00  0.1111111E+00  0.0000000E+00  0.6172840E-02
    1      -13.588490
    2      -13.387601
    3      -13.386849
    4      -13.167275
    5      -12.281896
    6      -12.095798
    7      -12.095104
    8      -11.893264
    9      -11.013005
   10      -10.842009
   11      -10.841213
   12      -10.657231
   13       -9.203328
   14       -9.058989
   15       -9.058337
   16       -8.906504
   17       -6.683350
   18       -6.582487
   19       -6.581173
   20       -6.474727
   21       -5.024382
   22       -4.932955
   23       -4.929732
   24       -4.835297
   25       -4.018717
   26       -3.945100
   27       -3.944772
   28       -3.863780
   29       -3.769842
   30       -3.679104
   31       -3.677130
   32       -3.582928
   33       -2.558822
   34       -2.498333
   35       -2.495714
   36       -2.434153
   37       -2.430376
   38       -1.341573
   39       -1.339397
   40       -0.888565
   41       -0.879737
   42       -0.831720
   43       -0.829929
   44       -0.775814
   45       -0.631127
   46       -0.587649
   47       -0.583758
   48       -0.539281
   49        0.010298
   50        0.143542
   51        0.145639
   52        0.504407
   53        0.537931
   54        0.541341
   55        0.575919
   56        0.603049
   57        1.384361
   58        1.541108
   59        1.542720
   60        2.606250
   61        2.642782
   62        3.353364
   63        3.354302
   64        4.077935
   65        6.540130
   66        6.856811
   67        6.859160
   68        7.322725
   69        8.470982
   70        8.907675
   71        8.911055
   72        9.395933
   73       10.302310
   74       10.758590
   75       10.762128
   76       11.082014
   77       11.345539
   78       12.588074
   79       13.119092
   80       13.294811
   81       13.297593
   82       13.416273
   83       13.425602
   84       13.437690
 
 -0.3333333E+00  0.1111111E+00  0.0000000E+00  0.6172840E-02
    1      -14.028686
    2      -13.822816
    3      -13.822039
    4      -13.596469
    5      -11.427367
    6      -11.251329
    7      -11.250657
    8      -11.060754
    9      -10.804904
   10      -10.636614
   11      -10.635850
   12      -10.455113
   13       -9.051577
   14       -8.921034
   15       -8.920389
   16       -8.789134
   17       -7.449304
   18       -7.351094
   19       -7.350327
   20       -7.235909
   21       -5.831408
   22       -5.721721
   23       -5.719008
   24       -5.603471
   25       -5.225834
   26       -5.119061
   27       -5.117485
   28       -5.005166
   29       -3.083162
   30       -3.010478
   31       -3.010005
   32       -2.964982
   33       -2.933826
   34       -1.854814
   35       -1.852079
   36       -1.849963
   37       -1.797319
   38       -1.795080
   39       -1.735828
   40       -1.049180
   41       -1.003132
   42       -0.999633
   43       -0.952667
   44       -0.472058
   45        0.105343
   46        0.364097
   47        0.399639
   48        0.401299
   49        0.435274
   50        0.816268
   51        1.066150
   52        1.068282
   53        1.137500
   54        1.161145
   55        1.164196
   56        1.189728
   57        1.723137
   58        1.724766
   59        2.197727
   60        2.624546
   61        2.757542
   62        3.266513
   63        3.267102
   64        3.734494
   65        6.643439
   66        6.737109
   67        6.739901
   68        7.222404
   69        7.963520
   70        8.449995
   71        8.454210
   72        8.731643
   73        9.105160
   74        9.252598
   75        9.256313
   76        9.950442
   77       10.561264
   78       12.837121
   79       13.101828
   80       13.104112
   81       13.290239
   82       13.402134
   83       13.406702
   84       13.675434
 
 -0.2222222E+00  0.1111111E+00  0.0000000E+00  0.6172840E-02
    1      -14.323410
    2      -14.114205
    3      -14.113413
    4      -13.883796
    5      -10.462535
    6      -10.455546
    7      -10.299239
    8      -10.298552
    9      -10.292134
   10      -10.291414
   11      -10.123834
   12      -10.116567
   13       -8.985728
   14       -8.890449
   15       -8.889866
   16       -8.818297
   17       -7.894391
   18       -7.855133
   19       -7.854554
   20       -7.773709
   21       -6.617223
   22       -6.612369
   23       -6.498305
   24       -6.495754
   25       -6.492908
   26       -6.491485
   27       -6.369568
   28       -6.364850
   29       -3.321916
   30       -2.196588
   31       -2.194469
   32       -2.171685
   33       -2.110744
   34       -2.110127
   35       -2.047476
   36       -1.336789
   37       -1.322167
   38       -1.289204
   39       -1.285913
   40       -1.274102
   41       -1.271956
   42       -1.237391
   43       -1.222967
   44       -0.798620
   45        1.160230
   46        1.166547
   47        1.318851
   48        1.341094
   49        1.341867
   50        1.361692
   51        1.692189
   52        1.708135
   53        1.708592
   54        1.726908
   55        2.008934
   56        2.010600
   57        2.016686
   58        2.019222
   59        2.500519
   60        2.917595
   61        2.929524
   62        3.066413
   63        3.067022
   64        3.390711
   65        6.706987
   66        6.727945
   67        6.731212
   68        7.295365
   69        7.413058
   70        7.413437
   71        7.878279
   72        7.882204
   73        7.883073
   74        7.886565
   75        8.643193
   76        8.644372
   77       10.213631
   78       12.686519
   79       12.719637
   80       12.957490
   81       12.959465
   82       12.990791
   83       12.992066
   84       13.214022
 
 -0.1111111E+00  0.1111111E+00  0.0000000E+00  0.6172840E-02
    1      -14.471072
    2      -14.260224
    3      -14.259426
    4      -14.027703
    5       -9.997584
    6       -9.843113
    7       -9.842593
    8       -9.678915
    9       -9.436718
   10       -9.434336
   11       -9.301739
   12       -9.300232
   13       -9.300192
   14       -9.296906
   15       -9.164576
   16       -9.162190
   17       -7.802316
   18       -7.800315
   19       -7.698610
   20       -7.695926
   21       -7.695898
   22       -7.694642
   23       -7.574073
   24       -7.572141
   25       -7.299837
   26       -7.179082
   27       -7.176416
   28       -7.045927
   29       -3.500970
   30       -2.369800
   31       -2.367671
   32       -1.485252
   33       -1.482916
   34       -1.435700
   35       -1.435048
   36       -1.435034
   37       -1.430641
   38       -1.384497
   39       -1.381734
   40       -1.166578
   41       -1.122451
   42       -1.120382
   43       -1.075791
   44       -0.963158
   45        1.609079
   46        1.848339
   47        1.867990
   48        1.873593
   49        1.894081
   50        2.002822
   51        2.021463
   52        2.026373
   53        2.044409
   54        2.108414
   55        2.110299
   56        2.365985
   57        2.367777
   58        2.748713
   59        2.749294
   60        2.749503
   61        2.753637
   62        3.076257
   63        3.218891
   64        3.220700
   65        6.752189
   66        6.754484
   67        6.927596
   68        6.933628
   69        6.934014
   70        6.936147
   71        6.982398
   72        7.336443
   73        7.341733
   74        7.639113
   75        7.642349
   76        8.120037
   77       10.040596
   78       12.343672
   79       12.600750
   80       12.604819
   81       12.618200
   82       12.618856
   83       12.882039
   84       12.883597
 
 -0.1355253E-19  0.2222222E+00  0.0000000E+00  0.6172840E-02
    1      -14.249370
    2      -14.041012
    3      -14.040221
    4      -13.811597
    5      -11.007340
    6      -10.836293
    7      -10.835590
    8      -10.651771
    9       -9.798022
   10       -9.791698
   11       -9.646650
   12       -9.645746
   13       -9.640111
   14       -9.638163
   15       -9.485076
   16       -9.478095
   17       -7.128943
   18       -7.122289
   19       -7.011543
   20       -7.010592
   21       -7.003404
   22       -7.002983
   23       -6.882771
   24       -6.875691
   25       -5.966269
   26       -5.850897
   27       -5.850215
   28       -5.728477
   29       -3.232169
   30       -2.109928
   31       -2.107816
   32       -2.095391
   33       -2.080426
   34       -2.036313
   35       -2.033555
   36       -2.020683
   37       -2.019037
   38       -1.972217
   39       -1.957448
   40       -0.968279
   41       -0.924370
   42       -0.923734
   43       -0.879312
   44       -0.716407
   45        0.568245
   46        1.026479
   47        1.061257
   48        1.061799
   49        1.096703
   50        1.484862
   51        1.486441
   52        1.570826
   53        1.597955
   54        1.598431
   55        1.625854
   56        1.864957
   57        1.869659
   58        2.529996
   59        2.618643
   60        2.620834
   61        2.626084
   62        2.629210
   63        3.331018
   64        3.345393
   65        6.935005
   66        6.939499
   67        7.261920
   68        7.264668
   69        7.268457
   70        7.271172
   71        7.933959
   72        7.938845
   73        8.036167
   74        8.564425
   75        8.567515
   76        9.335208
   77       10.300426
   78       12.432439
   79       12.697492
   80       12.698170
   81       12.953754
   82       13.228289
   83       13.232341
   84       13.518238
 
  0.1111111E+00  0.2222222E+00  0.0000000E+00  0.6172840E-02
    1      -14.028156
    2      -13.822281
    3      -13.821507
    4      -13.595928
    5      -11.428719
    6      -11.252712
    7      -11.251982
    8      -11.062113
    9      -10.801365
   10      -10.633011
   11      -10.632272
   12      -10.451449
   13       -9.057806
   14       -8.928045
   15       -8.927582
   16       -8.797451
   17       -7.453064
   18       -7.356998
   19       -7.353852
   20       -7.241208
   21       -5.822597
   22       -5.712361
   23       -5.711032
   24       -5.594985
   25       -5.222294
   26       -5.115135
   27       -5.114293
   28       -5.001552
   29       -3.069341
   30       -2.997228
   31       -2.995561
   32       -2.964409
   33       -2.919981
   34       -1.869462
   35       -1.851532
   36       -1.849418
   37       -1.812413
   38       -1.809461
   39       -1.750366
   40       -1.052519
   41       -1.004998
   42       -1.004592
   43       -0.956173
   44       -0.471492
   45        0.103616
   46        0.366752
   47        0.401775
   48        0.404185
   49        0.437716