       N       E                     dE             d eps       ncg     rms          rms(c)
DAV:   1     0.570165722300E+03    0.57017E+03   -0.72398E+04 27384   0.161E+03
DAV:   2    -0.265157250015E+03   -0.83532E+03   -0.80443E+03 34056   0.311E+02
DAV:   3    -0.311931771031E+03   -0.46775E+02   -0.46312E+02 33276   0.735E+01
DAV:   4    -0.312794053255E+03   -0.86228E+00   -0.86067E+00 34416   0.108E+01
DAV:   5    -0.312818122377E+03   -0.24069E-01   -0.24059E-01 34620   0.171E+00    0.221E+01
DAV:   6    -0.298621485891E+03    0.14197E+02   -0.14659E+01 31296   0.107E+01    0.116E+01
DAV:   7    -0.294176279492E+03    0.44452E+01   -0.15083E+01 31140   0.108E+01    0.190E+00
DAV:   8    -0.294228913879E+03   -0.52634E-01   -0.35900E-01 30996   0.174E+00    0.261E-01
DAV:   9    -0.294230567131E+03   -0.16533E-02   -0.12751E-02 32820   0.392E-01    0.113E-01
DAV:  10    -0.294231293717E+03   -0.72659E-03   -0.43269E-03 36708   0.194E-01    0.733E-02
DAV:  11    -0.294231458335E+03   -0.16462E-03   -0.74316E-04 31344   0.100E-01    0.453E-02
DAV:  12    -0.294231541752E+03   -0.83417E-04   -0.10186E-03 36264   0.781E-02    0.319E-02
DAV:  13    -0.294231538431E+03    0.33206E-05   -0.49151E-04 32688   0.544E-02    0.193E-02
DAV:  14    -0.294231530889E+03    0.75421E-05   -0.55291E-05 31284   0.204E-02    0.535E-03
DAV:  15    -0.294231532565E+03   -0.16764E-05   -0.20220E-05 29904   0.943E-03    0.141E-02
DAV:  16    -0.294231530784E+03    0.17817E-05   -0.16109E-05 19644   0.533E-03    0.356E-03
DAV:  17    -0.294231534672E+03   -0.38881E-05   -0.35620E-05 22764   0.848E-03    0.166E-02
DAV:  18    -0.294231530491E+03    0.41809E-05   -0.12300E-05 19464   0.631E-03    0.491E-03
DAV:  19    -0.294231530606E+03   -0.11511E-06   -0.74508E-06 19188   0.366E-03
   1 F= -.29955270E+03 E0= -.29955270E+03  d E =0.000000E+00
