 vasp.5.3.5 31Mar14 (build Nov 02 2014 15:17:37) complex                        
  
 executed on        ion-Intel-MKL date 2016.08.14  00:53:08
 running on    6 total cores
 distrk:  each k-point on    6 cores,    1 groups
 distr:  one band on NCORES_PER_BAND=   1 cores,    6 groups


--------------------------------------------------------------------------------------------------------


 INCAR:
 POTCAR:   PAW_PBE C 08Apr2002                    

 ----------------------------------------------------------------------------- 
|                                                                             |
|           W    W    AA    RRRRR   N    N  II  N    N   GGGG   !!!           |
|           W    W   A  A   R    R  NN   N  II  NN   N  G    G  !!!           |
|           W    W  A    A  R    R  N N  N  II  N N  N  G       !!!           |
|           W WW W  AAAAAA  RRRRR   N  N N  II  N  N N  G  GGG   !            |
|           WW  WW  A    A  R   R   N   NN  II  N   NN  G    G                |
|           W    W  A    A  R    R  N    N  II  N    N   GGGG   !!!           |
|                                                                             |
|      For optimal performance we recommend to set                            |
|        NCORE= 4 - approx SQRT( number of cores)                             |
|      NCORE specifies how many cores store one orbital (NPAR=cpu/NCORE).     |
|      This setting can  greatly improve the performance of VASP for DFT.     |
|      The default, NPAR=number of cores might be grossly inefficient         |
|      on modern multi-core architectures or massively parallel machines.     |
|      Do your own testing !!!!                                               |
|      Unfortunately you need to use the default for GW and RPA calculations. |
|      (for HF NCORE is supported but not extensively tested yet)             |
|                                                                             |
 ----------------------------------------------------------------------------- 

 POTCAR:   PAW_PBE C 08Apr2002                    
   VRHFIN =C: s2p2                                                              
   LEXCH  = PE                                                                  
   EATOM  =   147.1560 eV,   10.8157 Ry                                         
                                                                                
   TITEL  = PAW_PBE C 08Apr2002                                                 
   LULTRA =        F    use ultrasoft PP ?                                      
   IUNSCR =        0    unscreen: 0-lin 1-nonlin 2-no                           
   RPACOR =     .000    partial core radius                                     
   POMASS =   12.011; ZVAL   =    4.000    mass and valenz                      
   RCORE  =    1.500    outmost cutoff radius                                   
   RWIGS  =    1.630; RWIGS  =     .863    wigner-seitz radius (au A)           
   ENMAX  =  400.000; ENMIN  =  300.000 eV                                      
   ICORE  =        2    local potential                                         
   LCOR   =        T    correct aug charges                                     
   LPAW   =        T    paw PP                                                  
   EAUG   =  644.873                                                            
   DEXC   =     .000                                                            
   RMAX   =    2.266    core radius for proj-oper                               
   RAUG   =    1.300    factor for augmentation sphere                          
   RDEP   =    1.501    radius for radial grids                                 
   RDEPT  =    1.300    core radius for aug-charge                              
   QCUT   =   -5.516; QGAM   =   11.032    optimization parameters              
                                                                                
   Description                                                                  
     l     E      TYP  RCUT    TYP  RCUT                                        
     0   .000     23  1.200                                                     
     0   .000     23  1.200                                                     
     1   .000     23  1.500                                                     
     1  2.500     23  1.500                                                     
     2   .000      7  1.500                                                     
  local pseudopotential read in
  atomic valenz-charges read in
  non local Contribution for L=           0  read in
    real space projection operators read in
  non local Contribution for L=           0  read in
    real space projection operators read in
  non local Contribution for L=           1  read in
    real space projection operators read in
  non local Contribution for L=           1  read in
    real space projection operators read in
    PAW grid and wavefunctions read in
 
   number of l-projection  operators is LMAX  =           4
   number of lm-projection operators is LMMAX =           8
 

 ----------------------------------------------------------------------------- 
|                                                                             |
|  ADVICE TO THIS USER RUNNING 'VASP/VAMP'   (HEAR YOUR MASTER'S VOICE ...):  |
|                                                                             |
|      You have a (more or less) 'large supercell' and for larger cells       |
|      it might be more efficient to use real space projection operators      |
|      So try LREAL= Auto  in the INCAR   file.                               |
|      Mind: If you want to do a very accurate calculations keep the          |
|      reciprocal projection scheme          (i.e. LREAL=.FALSE.)             |
|                                                                             |
 ----------------------------------------------------------------------------- 

 PAW_PBE C 08Apr2002                    :
 energy of atom  1       EATOM= -147.1560
 kinetic energy error for atom=    0.0057 (will be added to EATOM!!)
 
 
 POSCAR: C                                       
  positions in direct lattice
  No initial velocities read in
 exchange correlation table for  LEXCH =        8
   RHO(1)=    0.500       N(1)  =     2000
   RHO(2)=  100.500       N(2)  =     4000
 


--------------------------------------------------------------------------------------------------------


 ion  position               nearest neighbor table
   1  0.500  0.000  0.125-  20 1.42  18 1.42  19 1.42
   2  1.000  0.000  0.125-  19 1.42  20 1.42  17 1.42
   3  0.500  0.500  0.125-  17 1.42  18 1.42  20 1.42
   4  1.000  0.500  0.125-  19 1.42  18 1.42  17 1.43
   5  0.500  0.000  0.625-  24 1.42  22 1.42  23 1.42
   6  1.000  0.000  0.625-  23 1.42  21 1.42  24 1.42
   7  0.500  0.500  0.625-  22 1.42  24 1.42  21 1.42
   8  1.000  0.500  0.625-  21 1.42  23 1.42  22 1.42
   9  0.000  0.500  0.375-  28 1.42  27 1.42  26 1.42
  10  0.500  0.500  0.375-  27 1.42  28 1.42  25 1.42
  11  0.000  1.000  0.375-  26 1.42  25 1.42  28 1.42
  12  0.500  1.000  0.375-  25 1.42  26 1.42  27 1.42
  13  0.000  0.500  0.875-  32 1.42  31 1.42  30 1.42
  14  0.500  0.500  0.875-  31 1.42  32 1.42  29 1.42
  15  0.000  1.000  0.875-  30 1.42  29 1.42  32 1.42
  16  0.500  1.000  0.875-  29 1.42  30 1.42  31 1.42
  17  0.167  0.333  0.126-   3 1.42   2 1.42   4 1.43
  18  0.667  0.333  0.125-   3 1.42   1 1.42   4 1.42
  19  0.167  0.833  0.125-   2 1.42   4 1.42   1 1.42
  20  0.667  0.833  0.125-   1 1.42   3 1.42   2 1.42
  21  0.167  0.333  0.625-   8 1.42   6 1.42   7 1.42
  22  0.667  0.333  0.625-   7 1.42   5 1.42   8 1.42
  23  0.167  0.833  0.625-   6 1.42   8 1.42   5 1.42
  24  0.667  0.833  0.625-   5 1.42   7 1.42   6 1.42
  25  0.333  0.167  0.375-  12 1.42  11 1.42  10 1.42
  26  0.833  0.167  0.375-  11 1.42  12 1.42   9 1.42
  27  0.333  0.667  0.375-  10 1.42   9 1.42  12 1.42
  28  0.833  0.667  0.375-   9 1.42  10 1.42  11 1.42
  29  0.333  0.167  0.875-  16 1.42  15 1.42  14 1.42
  30  0.833  0.167  0.875-  15 1.42  16 1.42  13 1.42
  31  0.333  0.667  0.875-  14 1.42  13 1.42  16 1.42
  32  0.833  0.667  0.875-  13 1.42  14 1.42  15 1.42
 
  LATTYP: Found a base centered orthorhombic cell.
 ALAT       =     4.9339256766
 B/A-ratio  =     1.7322311103
 C/A-ratio  =     2.1810599521
  
  Lattice vectors:
  
 A1 = (   4.9343108848,  -0.0002224000,   0.0000000000)
 A2 = (  -2.4673480464,   4.2731273763,   0.0000000000)
 A3 = (   0.0000000000,   0.0000000000,  10.7611877000)


Analysis of symmetry for initial positions (statically):
=====================================================================
 Subroutine PRICEL returns:
 Original cell was already a primitive cell.
 

 Routine SETGRP: Setting up the symmetry group for a 
 base centered orthorhombic supercell.


 Subroutine GETGRP returns: Found  1 space group operations
 (whereof  1 operations were pure point group operations)
 out of a pool of  8 trial point group operations.


The static configuration has the point symmetry C_1 .


Analysis of symmetry for dynamics (positions and initial velocities):
=====================================================================
 Subroutine PRICEL returns:
 Original cell was already a primitive cell.
 

 Routine SETGRP: Setting up the symmetry group for a 
 base centered orthorhombic supercell.


 Subroutine GETGRP returns: Found  1 space group operations
 (whereof  1 operations were pure point group operations)
 out of a pool of  8 trial point group operations.


The dynamic configuration has the point symmetry C_1 .
 
 
 KPOINTS: B4C B11C-CBC                            

Automatic generation of k-mesh.
Space group operators:
 irot       det(A)        alpha          n_x          n_y          n_z        tau_x        tau_y        tau_z
    1     1.000000     0.000001     1.000000     0.000000     0.000000     0.000000     0.000000     0.000000
 
 Subroutine IBZKPT returns following result:
 ===========================================
 
 Found    163 irreducible k-points:
 
 Following reciprocal coordinates:
            Coordinates               Weight
  0.000000  0.000000  0.000000      1.000000
  0.111111 -0.000000  0.000000      2.000000
  0.222222 -0.000000  0.000000      2.000000
  0.333333 -0.000000  0.000000      2.000000
  0.444444 -0.000000  0.000000      2.000000
  0.000000  0.111111  0.000000      2.000000
  0.111111  0.111111  0.000000      2.000000
  0.222222  0.111111  0.000000      2.000000
  0.333333  0.111111  0.000000      2.000000
  0.444444  0.111111  0.000000      2.000000
 -0.444444  0.111111  0.000000      2.000000
 -0.333333  0.111111  0.000000      2.000000
 -0.222222  0.111111  0.000000      2.000000
 -0.111111  0.111111  0.000000      2.000000
  0.000000  0.222222  0.000000      2.000000
  0.111111  0.222222  0.000000      2.000000
  0.222222  0.222222  0.000000      2.000000
  0.333333  0.222222  0.000000      2.000000
  0.444444  0.222222  0.000000      2.000000
 -0.444444  0.222222  0.000000      2.000000
 -0.333333  0.222222  0.000000      2.000000
 -0.222222  0.222222  0.000000      2.000000
 -0.111111  0.222222  0.000000      2.000000
  0.000000  0.333333  0.000000      2.000000
  0.111111  0.333333  0.000000      2.000000
  0.222222  0.333333  0.000000      2.000000
  0.333333  0.333333  0.000000      2.000000
  0.444444  0.333333  0.000000      2.000000
 -0.444444  0.333333  0.000000      2.000000
 -0.333333  0.333333  0.000000      2.000000
 -0.222222  0.333333  0.000000      2.000000
 -0.111111  0.333333  0.000000      2.000000
  0.000000  0.444444  0.000000      2.000000
  0.111111  0.444444  0.000000      2.000000
  0.222222  0.444444  0.000000      2.000000
  0.333333  0.444444  0.000000      2.000000
  0.444444  0.444444  0.000000      2.000000
 -0.444444  0.444444  0.000000      2.000000
 -0.333333  0.444444  0.000000      2.000000
 -0.222222  0.444444  0.000000      2.000000
 -0.111111  0.444444  0.000000      2.000000
  0.000000  0.000000  0.250000      2.000000
  0.111111 -0.000000  0.250000      2.000000
  0.222222 -0.000000  0.250000      2.000000
  0.333333 -0.000000  0.250000      2.000000
  0.444444 -0.000000  0.250000      2.000000
 -0.444444  0.000000  0.250000      2.000000
 -0.333333  0.000000  0.250000      2.000000
 -0.222222  0.000000  0.250000      2.000000
 -0.111111  0.000000  0.250000      2.000000
  0.000000  0.111111  0.250000      2.000000
  0.111111  0.111111  0.250000      2.000000
  0.222222  0.111111  0.250000      2.000000
  0.333333  0.111111  0.250000      2.000000
  0.444444  0.111111  0.250000      2.000000
 -0.444444  0.111111  0.250000      2.000000
 -0.333333  0.111111  0.250000      2.000000
 -0.222222  0.111111  0.250000      2.000000
 -0.111111  0.111111  0.250000      2.000000
  0.000000  0.222222  0.250000      2.000000
  0.111111  0.222222  0.250000      2.000000
  0.222222  0.222222  0.250000      2.000000
  0.333333  0.222222  0.250000      2.000000
  0.444444  0.222222  0.250000      2.000000
 -0.444444  0.222222  0.250000      2.000000
 -0.333333  0.222222  0.250000      2.000000
 -0.222222  0.222222  0.250000      2.000000
 -0.111111  0.222222  0.250000      2.000000
  0.000000  0.333333  0.250000      2.000000
  0.111111  0.333333  0.250000      2.000000
  0.222222  0.333333  0.250000      2.000000
  0.333333  0.333333  0.250000      2.000000
  0.444444  0.333333  0.250000      2.000000
 -0.444444  0.333333  0.250000      2.000000
 -0.333333  0.333333  0.250000      2.000000
 -0.222222  0.333333  0.250000      2.000000
 -0.111111  0.333333  0.250000      2.000000
  0.000000  0.444444  0.250000      2.000000
  0.111111  0.444444  0.250000      2.000000
  0.222222  0.444444  0.250000      2.000000
  0.333333  0.444444  0.250000      2.000000
  0.444444  0.444444  0.250000      2.000000
 -0.444444  0.444444  0.250000      2.000000
 -0.333333  0.444444  0.250000      2.000000
 -0.222222  0.444444  0.250000      2.000000
 -0.111111  0.444444  0.250000      2.000000
  0.000000 -0.444444  0.250000      2.000000
  0.111111 -0.444444  0.250000      2.000000
  0.222222 -0.444444  0.250000      2.000000
  0.333333 -0.444444  0.250000      2.000000
  0.444444 -0.444444  0.250000      2.000000
 -0.444444 -0.444444  0.250000      2.000000
 -0.333333 -0.444444  0.250000      2.000000
 -0.222222 -0.444444  0.250000      2.000000
 -0.111111 -0.444444  0.250000      2.000000
  0.000000 -0.333333  0.250000      2.000000
  0.111111 -0.333333  0.250000      2.000000
  0.222222 -0.333333  0.250000      2.000000
  0.333333 -0.333333  0.250000      2.000000
  0.444444 -0.333333  0.250000      2.000000
 -0.444444 -0.333333  0.250000      2.000000
 -0.333333 -0.333333  0.250000      2.000000
 -0.222222 -0.333333  0.250000      2.000000
 -0.111111 -0.333333  0.250000      2.000000
  0.000000 -0.222222  0.250000      2.000000
  0.111111 -0.222222  0.250000      2.000000
  0.222222 -0.222222  0.250000      2.000000
  0.333333 -0.222222  0.250000      2.000000
  0.444444 -0.222222  0.250000      2.000000
 -0.444444 -0.222222  0.250000      2.000000
 -0.333333 -0.222222  0.250000      2.000000
 -0.222222 -0.222222  0.250000      2.000000
 -0.111111 -0.222222  0.250000      2.000000
 -0.000000 -0.111111  0.250000      2.000000
  0.111111 -0.111111  0.250000      2.000000
  0.222222 -0.111111  0.250000      2.000000
  0.333333 -0.111111  0.250000      2.000000
  0.444444 -0.111111  0.250000      2.000000
 -0.444444 -0.111111  0.250000      2.000000
 -0.333333 -0.111111  0.250000      2.000000
 -0.222222 -0.111111  0.250000      2.000000
 -0.111111 -0.111111  0.250000      2.000000
  0.000000  0.000000  0.500000      1.000000
  0.111111 -0.000000  0.500000      2.000000
  0.222222 -0.000000  0.500000      2.000000
  0.333333 -0.000000  0.500000      2.000000
  0.444444 -0.000000  0.500000      2.000000
  0.000000  0.111111  0.500000      2.000000
  0.111111  0.111111  0.500000      2.000000
  0.222222  0.111111  0.500000      2.000000
  0.333333  0.111111  0.500000      2.000000
  0.444444  0.111111  0.500000      2.000000
 -0.444444  0.111111  0.500000      2.000000
 -0.333333  0.111111  0.500000      2.000000
 -0.222222  0.111111  0.500000      2.000000
 -0.111111  0.111111  0.500000      2.000000
  0.000000  0.222222  0.500000      2.000000
  0.111111  0.222222  0.500000      2.000000
  0.222222  0.222222  0.500000      2.000000
  0.333333  0.222222  0.500000      2.000000
  0.444444  0.222222  0.500000      2.000000
 -0.444444  0.222222  0.500000      2.000000
 -0.333333  0.222222  0.500000      2.000000
 -0.222222  0.222222  0.500000      2.000000
 -0.111111  0.222222  0.500000      2.000000
  0.000000  0.333333  0.500000      2.000000
  0.111111  0.333333  0.500000      2.000000
  0.222222  0.333333  0.500000      2.000000
  0.333333  0.333333  0.500000      2.000000
  0.444444  0.333333  0.500000      2.000000
 -0.444444  0.333333  0.500000      2.000000
 -0.333333  0.333333  0.500000      2.000000
 -0.222222  0.333333  0.500000      2.000000
 -0.111111  0.333333  0.500000      2.000000
  0.000000  0.444444  0.500000      2.000000
  0.111111  0.444444  0.500000      2.000000
  0.222222  0.444444  0.500000      2.000000
  0.333333  0.444444  0.500000      2.000000
  0.444444  0.444444  0.500000      2.000000
 -0.444444  0.444444  0.500000      2.000000
 -0.333333  0.444444  0.500000      2.000000
 -0.222222  0.444444  0.500000      2.000000
 -0.111111  0.444444  0.500000      2.000000
 
 Following cartesian coordinates:
            Coordinates               Weight
  0.000000  0.000000  0.000000      1.000000
  0.022519  0.013002  0.000000      2.000000
  0.045037  0.026005  0.000000      2.000000
  0.067556  0.039007  0.000000      2.000000
  0.090075  0.052010  0.000000      2.000000
  0.000001  0.026003  0.000000      2.000000
  0.022520  0.039005  0.000000      2.000000
  0.045038  0.052008  0.000000      2.000000
  0.067557  0.065010  0.000000      2.000000
  0.090076  0.078013  0.000000      2.000000
 -0.090073 -0.026007  0.000000      2.000000
 -0.067555 -0.013005  0.000000      2.000000
 -0.045036 -0.000002  0.000000      2.000000
 -0.022517  0.013000  0.000000      2.000000
  0.000002  0.052006  0.000000      2.000000
  0.022521  0.065008  0.000000      2.000000
  0.045040  0.078011  0.000000      2.000000
  0.067558  0.091013  0.000000      2.000000
  0.090077  0.104016  0.000000      2.000000
 -0.090072 -0.000004  0.000000      2.000000
 -0.067554  0.012998  0.000000      2.000000
 -0.045035  0.026001  0.000000      2.000000
 -0.022516  0.039003  0.000000      2.000000
  0.000004  0.078009  0.000000      2.000000
  0.022522  0.091011  0.000000      2.000000
  0.045041  0.104014  0.000000      2.000000
  0.067559  0.117016  0.000000      2.000000
  0.090078  0.130019  0.000000      2.000000
 -0.090071  0.025999  0.000000      2.000000
 -0.067552  0.039001  0.000000      2.000000
 -0.045034  0.052004  0.000000      2.000000
 -0.022515  0.065006  0.000000      2.000000
  0.000005  0.104012  0.000000      2.000000
  0.022523  0.117014  0.000000      2.000000
  0.045042  0.130017  0.000000      2.000000
  0.067561  0.143019  0.000000      2.000000
  0.090079  0.156022  0.000000      2.000000
 -0.090070  0.052002  0.000000      2.000000
 -0.067551  0.065004  0.000000      2.000000
 -0.045033  0.078007  0.000000      2.000000
 -0.022514  0.091009  0.000000      2.000000
  0.000000  0.000000  0.023232      2.000000
  0.022519  0.013002  0.023232      2.000000
  0.045037  0.026005  0.023232      2.000000
  0.067556  0.039007  0.023232      2.000000
  0.090075  0.052010  0.023232      2.000000
 -0.090075 -0.052010  0.023232      2.000000
 -0.067556 -0.039007  0.023232      2.000000
 -0.045037 -0.026005  0.023232      2.000000
 -0.022519 -0.013002  0.023232      2.000000
  0.000001  0.026003  0.023232      2.000000
  0.022520  0.039005  0.023232      2.000000
  0.045038  0.052008  0.023232      2.000000
  0.067557  0.065010  0.023232      2.000000
  0.090076  0.078013  0.023232      2.000000
 -0.090073 -0.026007  0.023232      2.000000
 -0.067555 -0.013005  0.023232      2.000000
 -0.045036 -0.000002  0.023232      2.000000
 -0.022517  0.013000  0.023232      2.000000
  0.000002  0.052006  0.023232      2.000000
  0.022521  0.065008  0.023232      2.000000
  0.045040  0.078011  0.023232      2.000000
  0.067558  0.091013  0.023232      2.000000
  0.090077  0.104016  0.023232      2.000000
 -0.090072 -0.000004  0.023232      2.000000
 -0.067554  0.012998  0.023232      2.000000
 -0.045035  0.026001  0.023232      2.000000
 -0.022516  0.039003  0.023232      2.000000
  0.000004  0.078009  0.023232      2.000000
  0.022522  0.091011  0.023232      2.000000
  0.045041  0.104014  0.023232      2.000000
  0.067559  0.117016  0.023232      2.000000
  0.090078  0.130019  0.023232      2.000000
 -0.090071  0.025999  0.023232      2.000000
 -0.067552  0.039001  0.023232      2.000000
 -0.045034  0.052004  0.023232      2.000000
 -0.022515  0.065006  0.023232      2.000000
  0.000005  0.104012  0.023232      2.000000
  0.022523  0.117014  0.023232      2.000000
  0.045042  0.130017  0.023232      2.000000
  0.067561  0.143019  0.023232      2.000000
  0.090079  0.156022  0.023232      2.000000
 -0.090070  0.052002  0.023232      2.000000
 -0.067551  0.065004  0.023232      2.000000
 -0.045033  0.078007  0.023232      2.000000
 -0.022514  0.091009  0.023232      2.000000
 -0.000005 -0.104012  0.023232      2.000000
  0.022514 -0.091009  0.023232      2.000000
  0.045033 -0.078007  0.023232      2.000000
  0.067551 -0.065004  0.023232      2.000000
  0.090070 -0.052002  0.023232      2.000000
 -0.090079 -0.156022  0.023232      2.000000
 -0.067561 -0.143019  0.023232      2.000000
 -0.045042 -0.130017  0.023232      2.000000
 -0.022523 -0.117014  0.023232      2.000000
 -0.000004 -0.078009  0.023232      2.000000
  0.022515 -0.065006  0.023232      2.000000
  0.045034 -0.052004  0.023232      2.000000
  0.067552 -0.039001  0.023232      2.000000
  0.090071 -0.025999  0.023232      2.000000
 -0.090078 -0.130019  0.023232      2.000000
 -0.067559 -0.117016  0.023232      2.000000
 -0.045041 -0.104014  0.023232      2.000000
 -0.022522 -0.091011  0.023232      2.000000
 -0.000002 -0.052006  0.023232      2.000000
  0.022516 -0.039003  0.023232      2.000000
  0.045035 -0.026001  0.023232      2.000000
  0.067554 -0.012998  0.023232      2.000000
  0.090072  0.000004  0.023232      2.000000
 -0.090077 -0.104016  0.023232      2.000000
 -0.067558 -0.091013  0.023232      2.000000
 -0.045040 -0.078011  0.023232      2.000000
 -0.022521 -0.065008  0.023232      2.000000
 -0.000001 -0.026003  0.023232      2.000000
  0.022517 -0.013000  0.023232      2.000000
  0.045036  0.000002  0.023232      2.000000
  0.067555  0.013005  0.023232      2.000000
  0.090073  0.026007  0.023232      2.000000
 -0.090076 -0.078013  0.023232      2.000000
 -0.067557 -0.065010  0.023232      2.000000
 -0.045038 -0.052008  0.023232      2.000000
 -0.022520 -0.039005  0.023232      2.000000
  0.000000  0.000000  0.046463      1.000000
  0.022519  0.013002  0.046463      2.000000
  0.045037  0.026005  0.046463      2.000000
  0.067556  0.039007  0.046463      2.000000
  0.090075  0.052010  0.046463      2.000000
  0.000001  0.026003  0.046463      2.000000
  0.022520  0.039005  0.046463      2.000000
  0.045038  0.052008  0.046463      2.000000
  0.067557  0.065010  0.046463      2.000000
  0.090076  0.078013  0.046463      2.000000
 -0.090073 -0.026007  0.046463      2.000000
 -0.067555 -0.013005  0.046463      2.000000
 -0.045036 -0.000002  0.046463      2.000000
 -0.022517  0.013000  0.046463      2.000000
  0.000002  0.052006  0.046463      2.000000
  0.022521  0.065008  0.046463      2.000000
  0.045040  0.078011  0.046463      2.000000
  0.067558  0.091013  0.046463      2.000000
  0.090077  0.104016  0.046463      2.000000
 -0.090072 -0.000004  0.046463      2.000000
 -0.067554  0.012998  0.046463      2.000000
 -0.045035  0.026001  0.046463      2.000000
 -0.022516  0.039003  0.046463      2.000000
  0.000004  0.078009  0.046463      2.000000
  0.022522  0.091011  0.046463      2.000000
  0.045041  0.104014  0.046463      2.000000
  0.067559  0.117016  0.046463      2.000000
  0.090078  0.130019  0.046463      2.000000
 -0.090071  0.025999  0.046463      2.000000
 -0.067552  0.039001  0.046463      2.000000
 -0.045034  0.052004  0.046463      2.000000
 -0.022515  0.065006  0.046463      2.000000
  0.000005  0.104012  0.046463      2.000000
  0.022523  0.117014  0.046463      2.000000
  0.045042  0.130017  0.046463      2.000000
  0.067561  0.143019  0.046463      2.000000
  0.090079  0.156022  0.046463      2.000000
 -0.090070  0.052002  0.046463      2.000000
 -0.067551  0.065004  0.046463      2.000000
 -0.045033  0.078007  0.046463      2.000000
 -0.022514  0.091009  0.046463      2.000000
 


--------------------------------------------------------------------------------------------------------




 Dimension of arrays:
   k-points           NKPTS =    163   k-points in BZ     NKDIM =    163   number of bands    NBANDS=     84
   number of dos      NEDOS =    301   number of ions     NIONS =     32
   non local maximal  LDIM  =      4   non local SUM 2l+1 LMDIM =      8
   total plane-waves  NPLWV = 144000
   max r-space proj   IRMAX =      1   max aug-charges    IRDMAX=   7688
   dimension x,y,z NGX =    40 NGY =   40 NGZ =   90
   dimension x,y,z NGXF=    80 NGYF=   80 NGZF=  180
   support grid    NGXF=    80 NGYF=   80 NGZF=  180
   ions per type =              32
 NGX,Y,Z   is equivalent  to a cutoff of  13.48, 13.48, 13.90 a.u.
 NGXF,Y,Z  is equivalent  to a cutoff of  26.95, 26.95, 27.81 a.u.


 I would recommend the setting:
   dimension x,y,z NGX =    39 NGY =   39 NGZ =   86
 SYSTEM =  graphite                                
 POSCAR =  C                                       

 Startparameter for this run:
   NWRITE =      2    write-flag & timer
   PREC   = accura    normal or accurate (medium, high low for compatibility)
   ISTART =      0    job   : 0-new  1-cont  2-samecut
   ICHARG =      2    charge: 1-file 2-atom 10-const
   ISPIN  =      1    spin polarized calculation?
   LNONCOLLINEAR =      F non collinear calculations
   LSORBIT =      F    spin-orbit coupling
   INIWAV =      1    electr: 0-lowe 1-rand  2-diag
   LASPH  =      F    aspherical Exc in radial PAW
   METAGGA=      F    non-selfconsistent MetaGGA calc.

 Electronic Relaxation 1
   ENCUT  =  600.0 eV  44.10 Ry    6.64 a.u.   9.86  9.86 21.49*2*pi/ulx,y,z
   ENINI  =  600.0     initial cutoff
   ENAUG  =  644.9 eV  augmentation charge cutoff
   NELM   =    200;   NELMIN=  2; NELMDL=  0     # of ELM steps 
   EDIFF  = 0.1E-05   stopping-criterion for ELM
   LREAL  =      F    real-space projection
   NLSPLINE    = F    spline interpolate recip. space projectors
   LCOMPAT=      F    compatible to vasp.4.4
   GGA_COMPAT  = T    GGA compatible to vasp.4.4-vasp.4.6
   LMAXPAW     = -100 max onsite density
   LMAXMIX     =    2 max onsite mixed and CHGCAR
   VOSKOWN=      0    Vosko Wilk Nusair interpolation
   ROPT   =    0.00000
 Ionic relaxation
   EDIFFG = 0.1E-02   stopping-criterion for IOM
   NSW    =      0    number of steps for IOM
   NBLOCK =      1;   KBLOCK =      1    inner block; outer block 
   IBRION =     -1    ionic relax: 0-MD 1-quasi-New 2-CG
   NFREE  =      0    steps in history (QN), initial steepest desc. (CG)
   ISIF   =      2    stress and relaxation
   IWAVPR =     10    prediction:  0-non 1-charg 2-wave 3-comb
   ISYM   =      2    0-nonsym 1-usesym 2-fastsym
   LCORR  =      T    Harris-Foulkes like correction to forces

   POTIM  = 0.5000    time-step for ionic-motion
   TEIN   =    0.0    initial temperature
   TEBEG  =    0.0;   TEEND  =   0.0 temperature during run
   SMASS  =  -3.00    Nose mass-parameter (am)
   estimated Nose-frequenzy (Omega)   =  0.10E-29 period in steps =****** mass=  -0.556E-27a.u.
   SCALEE = 1.0000    scale energy and forces
   NPACO  =    256;   APACO  = 16.0  distance and # of slots for P.C.
   PSTRESS=    0.0 pullay stress

  Mass of Ions in am
   POMASS =  12.01
  Ionic Valenz
   ZVAL   =   4.00
  Atomic Wigner-Seitz radii
   RWIGS  =  -1.00
  virtual crystal weights 
   VCA    =   1.00
   NELECT =     128.0000    total number of electrons
   NUPDOWN=      -1.0000    fix difference up-down

 DOS related values:
   EMIN   =  10.00;   EMAX   =-10.00  energy-range for DOS
   EFERMI =   0.00
   ISMEAR =     0;   SIGMA  =   0.10  broadening in eV -4-tet -1-fermi 0-gaus

 Electronic relaxation 2 (details)
   IALGO  =     38    algorithm
   LDIAG  =      T    sub-space diagonalisation (order eigenvalues)
   LSUBROT=      F    optimize rotation matrix (better conditioning)
   TURBO    =      0    0=normal 1=particle mesh
   IRESTART =      0    0=no restart 2=restart with 2 vectors
   NREBOOT  =      0    no. of reboots
   NMIN     =      0    reboot dimension
   EREF     =   0.00    reference energy to select bands
   IMIX   =      4    mixing-type and parameters
     AMIX     =   0.40;   BMIX     =  1.00
     AMIX_MAG =   1.60;   BMIX_MAG =  1.00
     AMIN     =   0.10
     WC   =   100.;   INIMIX=   1;  MIXPRE=   1;  MAXMIX= -45

 Intra band minimization:
   WEIMIN = 0.0000     energy-eigenvalue tresh-hold
   EBREAK =  0.30E-08  absolut break condition
   DEPER  =   0.30     relativ break condition  

   TIME   =   0.40     timestep for ELM

  volume/ion in A,a.u.               =       7.09        47.85
  Fermi-wavevector in a.u.,A,eV,Ry     =   1.352709  2.556249 24.896238  1.829822
  Thomas-Fermi vector in A             =   2.480025
 
 Write flags
   LWAVE  =      F    write WAVECAR
   LCHARG =      F    write CHGCAR
   LVTOT  =      F    write LOCPOT, total local potential
   LVHAR  =      F    write LOCPOT, Hartree potential only
   LELF   =      F    write electronic localiz. function (ELF)
   LORBIT =      0    0 simple, 1 ext, 2 COOP (PROOUT)


 Dipole corrections
   LMONO  =      F    monopole corrections only (constant potential shift)
   LDIPOL =      F    correct potential (dipole corrections)
   IDIPOL =      0    1-x, 2-y, 3-z, 4-all directions 
   EPSILON=  1.0000000 bulk dielectric constant

 Exchange correlation treatment:
   GGA     =    PE    GGA type
   LEXCH   =     8    internal setting for exchange type
   VOSKOWN=      0    Vosko Wilk Nusair interpolation
   LHFCALC =     F    Hartree Fock is set to
   LHFONE  =     F    Hartree Fock one center treatment
   AEXX    =    0.0000 exact exchange contribution

 Linear response parameters
   LEPSILON=     F    determine dielectric tensor
   LRPA    =     F    only Hartree local field effects (RPA)
   LNABLA  =     F    use nabla operator in PAW spheres
   LVEL    =     F    velocity operator in full k-point grid
   LINTERFAST=   F  fast interpolation
   KINTER  =     0    interpolate to denser k-point grid
   CSHIFT  =0.1000    complex shift for real part using Kramers Kronig
   OMEGAMAX=  -1.0    maximum frequency
   DEG_THRESHOLD= 0.2000000E-02 threshold for treating states as degnerate
   RTIME   =    0.100 relaxation time in fs

 Orbital magnetization related:
   ORBITALMAG=     F  switch on orbital magnetization
   LCHIMAG   =     F  perturbation theory with respect to B field
   DQ        =  0.001000  dq finite difference perturbation B field



--------------------------------------------------------------------------------------------------------


 Static calculation
 charge density and potential will be updated during run
 non-spin polarized calculation
 Variant of blocked Davidson
 Davidson routine will perform the subspace rotation
 perform sub-space diagonalisation
    after iterative eigenvector-optimisation
 modified Broyden-mixing scheme, WC =      100.0
 initial mixing is a Kerker type mixing with AMIX =  0.4000 and BMIX =      1.0000
 Hartree-type preconditioning will be used
 using additional bands           20
 reciprocal scheme for non local part
 calculate Harris-corrections to forces 
   (improved forces if not selfconsistent)
 use gradient corrections 
 use of overlap-Matrix (Vanderbilt PP)
 Gauss-broadening in eV      SIGMA  =   0.10


--------------------------------------------------------------------------------------------------------


  energy-cutoff  :      600.00
  volume of cell :      226.89
      direct lattice vectors                 reciprocal lattice vectors
     4.934310885 -0.000222400  0.000000000     0.202667819  0.117022500  0.000000000
    -2.467348046  4.273127376  0.000000000     0.000010548  0.234026730  0.000000000
     0.000000000  0.000000000 10.761187700     0.000000000  0.000000000  0.092926546

  length of vectors
     4.934310890  4.934310890 10.761187700     0.234026730  0.234026730  0.092926546


 
 k-points in units of 2pi/SCALE and weight: B4C B11C-CBC                            
   0.00000000  0.00000000  0.00000000       0.003
   0.02251865  0.01300250  0.00000000       0.006
   0.04503729  0.02600500  0.00000000       0.006
   0.06755594  0.03900750  0.00000000       0.006
   0.09007459  0.05201000  0.00000000       0.006
   0.00000117  0.02600297  0.00000000       0.006
   0.02251982  0.03900547  0.00000000       0.006
   0.04503847  0.05200797  0.00000000       0.006
   0.06755711  0.06501047  0.00000000       0.006
   0.09007576  0.07801297  0.00000000       0.006
  -0.09007341 -0.02600703  0.00000000       0.006
  -0.06755477 -0.01300453  0.00000000       0.006
  -0.04503612 -0.00000203  0.00000000       0.006
  -0.02251747  0.01300047  0.00000000       0.006
   0.00000234  0.05200594  0.00000000       0.006
   0.02252099  0.06500844  0.00000000       0.006
   0.04503964  0.07801094  0.00000000       0.006
   0.06755828  0.09101344  0.00000000       0.006
   0.09007693  0.10401594  0.00000000       0.006
  -0.09007224 -0.00000406  0.00000000       0.006
  -0.06755360  0.01299844  0.00000000       0.006
  -0.04503495  0.02600094  0.00000000       0.006
  -0.02251630  0.03900344  0.00000000       0.006
   0.00000352  0.07800891  0.00000000       0.006
   0.02252216  0.09101141  0.00000000       0.006
   0.04504081  0.10401391  0.00000000       0.006
   0.06755946  0.11701641  0.00000000       0.006
   0.09007810  0.13001891  0.00000000       0.006
  -0.09007107  0.02599891  0.00000000       0.006
  -0.06755242  0.03900141  0.00000000       0.006
  -0.04503378  0.05200391  0.00000000       0.006
  -0.02251513  0.06500641  0.00000000       0.006
   0.00000469  0.10401188  0.00000000       0.006
   0.02252333  0.11701438  0.00000000       0.006
   0.04504198  0.13001688  0.00000000       0.006
   0.06756063  0.14301938  0.00000000       0.006
   0.09007927  0.15602188  0.00000000       0.006
  -0.09006990  0.05200188  0.00000000       0.006
  -0.06755125  0.06500438  0.00000000       0.006
  -0.04503261  0.07800688  0.00000000       0.006
  -0.02251396  0.09100938  0.00000000       0.006
   0.00000000  0.00000000  0.02323164       0.006
   0.02251865  0.01300250  0.02323164       0.006
   0.04503729  0.02600500  0.02323164       0.006
   0.06755594  0.03900750  0.02323164       0.006
   0.09007459  0.05201000  0.02323164       0.006
  -0.09007459 -0.05201000  0.02323164       0.006
  -0.06755594 -0.03900750  0.02323164       0.006
  -0.04503729 -0.02600500  0.02323164       0.006
  -0.02251865 -0.01300250  0.02323164       0.006
   0.00000117  0.02600297  0.02323164       0.006
   0.02251982  0.03900547  0.02323164       0.006
   0.04503847  0.05200797  0.02323164       0.006
   0.06755711  0.06501047  0.02323164       0.006
   0.09007576  0.07801297  0.02323164       0.006
  -0.09007341 -0.02600703  0.02323164       0.006
  -0.06755477 -0.01300453  0.02323164       0.006
  -0.04503612 -0.00000203  0.02323164       0.006
  -0.02251747  0.01300047  0.02323164       0.006
   0.00000234  0.05200594  0.02323164       0.006
   0.02252099  0.06500844  0.02323164       0.006
   0.04503964  0.07801094  0.02323164       0.006
   0.06755828  0.09101344  0.02323164       0.006
   0.09007693  0.10401594  0.02323164       0.006
  -0.09007224 -0.00000406  0.02323164       0.006
  -0.06755360  0.01299844  0.02323164       0.006
  -0.04503495  0.02600094  0.02323164       0.006
  -0.02251630  0.03900344  0.02323164       0.006
   0.00000352  0.07800891  0.02323164       0.006
   0.02252216  0.09101141  0.02323164       0.006
   0.04504081  0.10401391  0.02323164       0.006
   0.06755946  0.11701641  0.02323164       0.006
   0.09007810  0.13001891  0.02323164       0.006
  -0.09007107  0.02599891  0.02323164       0.006
  -0.06755242  0.03900141  0.02323164       0.006
  -0.04503378  0.05200391  0.02323164       0.006
  -0.02251513  0.06500641  0.02323164       0.006
   0.00000469  0.10401188  0.02323164       0.006
   0.02252333  0.11701438  0.02323164       0.006
   0.04504198  0.13001688  0.02323164       0.006
   0.06756063  0.14301938  0.02323164       0.006
   0.09007927  0.15602188  0.02323164       0.006
  -0.09006990  0.05200188  0.02323164       0.006
  -0.06755125  0.06500438  0.02323164       0.006
  -0.04503261  0.07800688  0.02323164       0.006
  -0.02251396  0.09100938  0.02323164       0.006
  -0.00000469 -0.10401188  0.02323164       0.006
   0.02251396 -0.09100938  0.02323164       0.006
   0.04503261 -0.07800688  0.02323164       0.006
   0.06755125 -0.06500438  0.02323164       0.006
   0.09006990 -0.05200188  0.02323164       0.006
  -0.09007927 -0.15602188  0.02323164       0.006
  -0.06756063 -0.14301938  0.02323164       0.006
  -0.04504198 -0.13001688  0.02323164       0.006
  -0.02252333 -0.11701438  0.02323164       0.006
  -0.00000352 -0.07800891  0.02323164       0.006
   0.02251513 -0.06500641  0.02323164       0.006
   0.04503378 -0.05200391  0.02323164       0.006
   0.06755242 -0.03900141  0.02323164       0.006
   0.09007107 -0.02599891  0.02323164       0.006
  -0.09007810 -0.13001891  0.02323164       0.006
  -0.06755946 -0.11701641  0.02323164       0.006
  -0.04504081 -0.10401391  0.02323164       0.006
  -0.02252216 -0.09101141  0.02323164       0.006
  -0.00000234 -0.05200594  0.02323164       0.006
   0.02251630 -0.03900344  0.02323164       0.006
   0.04503495 -0.02600094  0.02323164       0.006
   0.06755360 -0.01299844  0.02323164       0.006
   0.09007224  0.00000406  0.02323164       0.006
  -0.09007693 -0.10401594  0.02323164       0.006
  -0.06755828 -0.09101344  0.02323164       0.006
  -0.04503964 -0.07801094  0.02323164       0.006
  -0.02252099 -0.06500844  0.02323164       0.006
  -0.00000117 -0.02600297  0.02323164       0.006
   0.02251747 -0.01300047  0.02323164       0.006
   0.04503612  0.00000203  0.02323164       0.006
   0.06755477  0.01300453  0.02323164       0.006
   0.09007341  0.02600703  0.02323164       0.006
  -0.09007576 -0.07801297  0.02323164       0.006
  -0.06755711 -0.06501047  0.02323164       0.006
  -0.04503847 -0.05200797  0.02323164       0.006
  -0.02251982 -0.03900547  0.02323164       0.006
   0.00000000  0.00000000  0.04646327       0.003
   0.02251865  0.01300250  0.04646327       0.006
   0.04503729  0.02600500  0.04646327       0.006
   0.06755594  0.03900750  0.04646327       0.006
   0.09007459  0.05201000  0.04646327       0.006
   0.00000117  0.02600297  0.04646327       0.006
   0.02251982  0.03900547  0.04646327       0.006
   0.04503847  0.05200797  0.04646327       0.006
   0.06755711  0.06501047  0.04646327       0.006
   0.09007576  0.07801297  0.04646327       0.006
  -0.09007341 -0.02600703  0.04646327       0.006
  -0.06755477 -0.01300453  0.04646327       0.006
  -0.04503612 -0.00000203  0.04646327       0.006
  -0.02251747  0.01300047  0.04646327       0.006
   0.00000234  0.05200594  0.04646327       0.006
   0.02252099  0.06500844  0.04646327       0.006
   0.04503964  0.07801094  0.04646327       0.006
   0.06755828  0.09101344  0.04646327       0.006
   0.09007693  0.10401594  0.04646327       0.006
  -0.09007224 -0.00000406  0.04646327       0.006
  -0.06755360  0.01299844  0.04646327       0.006
  -0.04503495  0.02600094  0.04646327       0.006
  -0.02251630  0.03900344  0.04646327       0.006
   0.00000352  0.07800891  0.04646327       0.006
   0.02252216  0.09101141  0.04646327       0.006
   0.04504081  0.10401391  0.04646327       0.006
   0.06755946  0.11701641  0.04646327       0.006
   0.09007810  0.13001891  0.04646327       0.006
  -0.09007107  0.02599891  0.04646327       0.006
  -0.06755242  0.03900141  0.04646327       0.006
  -0.04503378  0.05200391  0.04646327       0.006
  -0.02251513  0.06500641  0.04646327       0.006
   0.00000469  0.10401188  0.04646327       0.006
   0.02252333  0.11701438  0.04646327       0.006
   0.04504198  0.13001688  0.04646327       0.006
   0.06756063  0.14301938  0.04646327       0.006
   0.09007927  0.15602188  0.04646327       0.006
  -0.09006990  0.05200188  0.04646327       0.006
  -0.06755125  0.06500438  0.04646327       0.006
  -0.04503261  0.07800688  0.04646327       0.006
  -0.02251396  0.09100938  0.04646327       0.006
 
 k-points in reciprocal lattice and weights: B4C B11C-CBC                            
   0.00000000  0.00000000  0.00000000       0.003
   0.11111111 -0.00000000  0.00000000       0.006
   0.22222222 -0.00000000  0.00000000       0.006
   0.33333333 -0.00000000  0.00000000       0.006
   0.44444444 -0.00000000  0.00000000       0.006
   0.00000000  0.11111111  0.00000000       0.006
   0.11111111  0.11111111  0.00000000       0.006
   0.22222222  0.11111111  0.00000000       0.006
   0.33333333  0.11111111  0.00000000       0.006
   0.44444444  0.11111111  0.00000000       0.006
  -0.44444444  0.11111111  0.00000000       0.006
  -0.33333333  0.11111111  0.00000000       0.006
  -0.22222222  0.11111111  0.00000000       0.006
  -0.11111111  0.11111111  0.00000000       0.006
   0.00000000  0.22222222  0.00000000       0.006
   0.11111111  0.22222222  0.00000000       0.006
   0.22222222  0.22222222  0.00000000       0.006
   0.33333333  0.22222222  0.00000000       0.006
   0.44444444  0.22222222  0.00000000       0.006
  -0.44444444  0.22222222  0.00000000       0.006
  -0.33333333  0.22222222  0.00000000       0.006
  -0.22222222  0.22222222  0.00000000       0.006
  -0.11111111  0.22222222  0.00000000       0.006
   0.00000000  0.33333333  0.00000000       0.006
   0.11111111  0.33333333  0.00000000       0.006
   0.22222222  0.33333333  0.00000000       0.006
   0.33333333  0.33333333  0.00000000       0.006
   0.44444444  0.33333333  0.00000000       0.006
  -0.44444444  0.33333333  0.00000000       0.006
  -0.33333333  0.33333333  0.00000000       0.006
  -0.22222222  0.33333333  0.00000000       0.006
  -0.11111111  0.33333333  0.00000000       0.006
   0.00000000  0.44444444  0.00000000       0.006
   0.11111111  0.44444444  0.00000000       0.006
   0.22222222  0.44444444  0.00000000       0.006
   0.33333333  0.44444444  0.00000000       0.006
   0.44444444  0.44444444  0.00000000       0.006
  -0.44444444  0.44444444  0.00000000       0.006
  -0.33333333  0.44444444  0.00000000       0.006
  -0.22222222  0.44444444  0.00000000       0.006
  -0.11111111  0.44444444  0.00000000       0.006
   0.00000000  0.00000000  0.25000000       0.006
   0.11111111 -0.00000000  0.25000000       0.006
   0.22222222 -0.00000000  0.25000000       0.006
   0.33333333 -0.00000000  0.25000000       0.006
   0.44444444 -0.00000000  0.25000000       0.006
  -0.44444444  0.00000000  0.25000000       0.006
  -0.33333333  0.00000000  0.25000000       0.006
  -0.22222222  0.00000000  0.25000000       0.006
  -0.11111111  0.00000000  0.25000000       0.006
   0.00000000  0.11111111  0.25000000       0.006
   0.11111111  0.11111111  0.25000000       0.006
   0.22222222  0.11111111  0.25000000       0.006
   0.33333333  0.11111111  0.25000000       0.006
   0.44444444  0.11111111  0.25000000       0.006
  -0.44444444  0.11111111  0.25000000       0.006
  -0.33333333  0.11111111  0.25000000       0.006
  -0.22222222  0.11111111  0.25000000       0.006
  -0.11111111  0.11111111  0.25000000       0.006
   0.00000000  0.22222222  0.25000000       0.006
   0.11111111  0.22222222  0.25000000       0.006
   0.22222222  0.22222222  0.25000000       0.006
   0.33333333  0.22222222  0.25000000       0.006
   0.44444444  0.22222222  0.25000000       0.006
  -0.44444444  0.22222222  0.25000000       0.006
  -0.33333333  0.22222222  0.25000000       0.006
  -0.22222222  0.22222222  0.25000000       0.006
  -0.11111111  0.22222222  0.25000000       0.006
   0.00000000  0.33333333  0.25000000       0.006
   0.11111111  0.33333333  0.25000000       0.006
   0.22222222  0.33333333  0.25000000       0.006
   0.33333333  0.33333333  0.25000000       0.006
   0.44444444  0.33333333  0.25000000       0.006
  -0.44444444  0.33333333  0.25000000       0.006
  -0.33333333  0.33333333  0.25000000       0.006
  -0.22222222  0.33333333  0.25000000       0.006
  -0.11111111  0.33333333  0.25000000       0.006
   0.00000000  0.44444444  0.25000000       0.006
   0.11111111  0.44444444  0.25000000       0.006
   0.22222222  0.44444444  0.25000000       0.006
   0.33333333  0.44444444  0.25000000       0.006
   0.44444444  0.44444444  0.25000000       0.006
  -0.44444444  0.44444444  0.25000000       0.006
  -0.33333333  0.44444444  0.25000000       0.006
  -0.22222222  0.44444444  0.25000000       0.006
  -0.11111111  0.44444444  0.25000000       0.006
   0.00000000 -0.44444444  0.25000000       0.006
   0.11111111 -0.44444444  0.25000000       0.006
   0.22222222 -0.44444444  0.25000000       0.006
   0.33333333 -0.44444444  0.25000000       0.006
   0.44444444 -0.44444444  0.25000000       0.006
  -0.44444444 -0.44444444  0.25000000       0.006
  -0.33333333 -0.44444444  0.25000000       0.006
  -0.22222222 -0.44444444  0.25000000       0.006
  -0.11111111 -0.44444444  0.25000000       0.006
   0.00000000 -0.33333333  0.25000000       0.006
   0.11111111 -0.33333333  0.25000000       0.006
   0.22222222 -0.33333333  0.25000000       0.006
   0.33333333 -0.33333333  0.25000000       0.006
   0.44444444 -0.33333333  0.25000000       0.006
  -0.44444444 -0.33333333  0.25000000       0.006
  -0.33333333 -0.33333333  0.25000000       0.006
  -0.22222222 -0.33333333  0.25000000       0.006
  -0.11111111 -0.33333333  0.25000000       0.006
   0.00000000 -0.22222222  0.25000000       0.006
   0.11111111 -0.22222222  0.25000000       0.006
   0.22222222 -0.22222222  0.25000000       0.006
   0.33333333 -0.22222222  0.25000000       0.006
   0.44444444 -0.22222222  0.25000000       0.006
  -0.44444444 -0.22222222  0.25000000       0.006
  -0.33333333 -0.22222222  0.25000000       0.006
  -0.22222222 -0.22222222  0.25000000       0.006
  -0.11111111 -0.22222222  0.25000000       0.006
  -0.00000000 -0.11111111  0.25000000       0.006
   0.11111111 -0.11111111  0.25000000       0.006
   0.22222222 -0.11111111  0.25000000       0.006
   0.33333333 -0.11111111  0.25000000       0.006
   0.44444444 -0.11111111  0.25000000       0.006
  -0.44444444 -0.11111111  0.25000000       0.006
  -0.33333333 -0.11111111  0.25000000       0.006
  -0.22222222 -0.11111111  0.25000000       0.006
  -0.11111111 -0.11111111  0.25000000       0.006
   0.00000000  0.00000000  0.50000000       0.003
   0.11111111 -0.00000000  0.50000000       0.006
   0.22222222 -0.00000000  0.50000000       0.006
   0.33333333 -0.00000000  0.50000000       0.006
   0.44444444 -0.00000000  0.50000000       0.006
   0.00000000  0.11111111  0.50000000       0.006
   0.11111111  0.11111111  0.50000000       0.006
   0.22222222  0.11111111  0.50000000       0.006
   0.33333333  0.11111111  0.50000000       0.006
   0.44444444  0.11111111  0.50000000       0.006
  -0.44444444  0.11111111  0.50000000       0.006
  -0.33333333  0.11111111  0.50000000       0.006
  -0.22222222  0.11111111  0.50000000       0.006
  -0.11111111  0.11111111  0.50000000       0.006
   0.00000000  0.22222222  0.50000000       0.006
   0.11111111  0.22222222  0.50000000       0.006
   0.22222222  0.22222222  0.50000000       0.006
   0.33333333  0.22222222  0.50000000       0.006
   0.44444444  0.22222222  0.50000000       0.006
  -0.44444444  0.22222222  0.50000000       0.006
  -0.33333333  0.22222222  0.50000000       0.006
  -0.22222222  0.22222222  0.50000000       0.006
  -0.11111111  0.22222222  0.50000000       0.006
   0.00000000  0.33333333  0.50000000       0.006
   0.11111111  0.33333333  0.50000000       0.006
   0.22222222  0.33333333  0.50000000       0.006
   0.33333333  0.33333333  0.50000000       0.006
   0.44444444  0.33333333  0.50000000       0.006
  -0.44444444  0.33333333  0.50000000       0.006
  -0.33333333  0.33333333  0.50000000       0.006
  -0.22222222  0.33333333  0.50000000       0.006
  -0.11111111  0.33333333  0.50000000       0.006
   0.00000000  0.44444444  0.50000000       0.006
   0.11111111  0.44444444  0.50000000       0.006
   0.22222222  0.44444444  0.50000000       0.006
   0.33333333  0.44444444  0.50000000       0.006
   0.44444444  0.44444444  0.50000000       0.006
  -0.44444444  0.44444444  0.50000000       0.006
  -0.33333333  0.44444444  0.50000000       0.006
  -0.22222222  0.44444444  0.50000000       0.006
  -0.11111111  0.44444444  0.50000000       0.006
 
 position of ions in fractional coordinates (direct lattice) 
   0.49999985  0.00000017  0.12500000
   0.99999985  0.00000017  0.12500000
   0.49999985  0.50000017  0.12500000
   0.99999985  0.50000017  0.12500000
   0.49999985  0.00000017  0.62500000
   0.99999985  0.00000017  0.62500000
   0.49999985  0.50000017  0.62500000
   0.99999985  0.50000017  0.62500000
   0.00000017  0.49999985  0.37500000
   0.50000017  0.49999985  0.37500000
   0.00000017  0.99999985  0.37500000
   0.50000017  0.99999985  0.37500000
   0.00000017  0.49999985  0.87500000
   0.50000017  0.49999985  0.87500000
   0.00000017  0.99999985  0.87500000
   0.50000017  0.99999985  0.87500000
   0.16749417  0.33335053  0.12584470
   0.66664946  0.33335053  0.12500000
   0.16664946  0.83335053  0.12500000
   0.66664946  0.83335053  0.12500000
   0.16664946  0.33335053  0.62500000
   0.66664946  0.33335053  0.62500000
   0.16664946  0.83335053  0.62500000
   0.66664946  0.83335053  0.62500000
   0.33335053  0.16664946  0.37500000
   0.83335053  0.16664946  0.37500000
   0.33335053  0.66664946  0.37500000
   0.83335053  0.66664946  0.37500000
   0.33335053  0.16664946  0.87500000
   0.83335053  0.16664946  0.87500000
   0.33335053  0.66664946  0.87500000
   0.83335053  0.66664946  0.87500000
 
 position of ions in cartesian coordinates  (Angst):
   2.46715426 -0.00011045  1.34514846
   4.93430971 -0.00022165  1.34514846
   1.23348024  2.13645323  1.34514846
   3.70063568  2.13634203  1.34514846
   2.46715426 -0.00011045  6.72574231
   4.93430971 -0.00022165  6.72574231
   1.23348024  2.13645323  6.72574231
   3.70063568  2.13634203  6.72574231
  -1.23367279  2.13656304  4.03544539
   1.23348265  2.13645184  4.03544539
  -2.46734681  4.27312673  4.03544539
  -0.00019137  4.27301553  4.03544539
  -1.23367279  2.13656304  9.41603924
   1.23348265  2.13645184  9.41603924
  -2.46734681  4.27312673  9.41603924
  -0.00019137  4.27301553  9.41603924
   0.00397651  1.42441201  1.35423844
   2.46696394  1.42430100  1.34514846
  -1.23386552  3.56097589  1.34514846
   1.23328992  3.56086469  1.34514846
  -0.00019150  1.42441220  6.72574231
   2.46696394  1.42430100  6.72574231
  -1.23386552  3.56097589  6.72574231
   1.23328992  3.56086469  6.72574231
   1.23367290  0.71204025  4.03544539
   3.70082834  0.71192905  4.03544539
  -0.00000112  2.84860394  4.03544539
   2.46715432  2.84849274  4.03544539
   1.23367290  0.71204025  9.41603924
   3.70082834  0.71192905  9.41603924
  -0.00000112  2.84860394  9.41603924
   2.46715432  2.84849274  9.41603924
 


--------------------------------------------------------------------------------------------------------


 k-point  1 :   0.0000 0.0000 0.0000  plane waves:    7555
 k-point  2 :   0.1111-0.0000 0.0000  plane waves:    7569
 k-point  3 :   0.2222-0.0000 0.0000  plane waves:    7573
 k-point  4 :   0.3333-0.0000 0.0000  plane waves:    7579
 k-point  5 :   0.4444-0.0000 0.0000  plane waves:    7579
 k-point  6 :   0.0000 0.1111 0.0000  plane waves:    7569
 k-point  7 :   0.1111 0.1111 0.0000  plane waves:    7556
 k-point  8 :   0.2222 0.1111 0.0000  plane waves:    7570
 k-point  9 :   0.3333 0.1111 0.0000  plane waves:    7574
 k-point 10 :   0.4444 0.1111 0.0000  plane waves:    7594
 k-point 11 :  -0.4444 0.1111 0.0000  plane waves:    7574
 k-point 12 :  -0.3333 0.1111 0.0000  plane waves:    7570
 k-point 13 :  -0.2222 0.1111 0.0000  plane waves:    7556
 k-point 14 :  -0.1111 0.1111 0.0000  plane waves:    7569
 k-point 15 :   0.0000 0.2222 0.0000  plane waves:    7573
 k-point 16 :   0.1111 0.2222 0.0000  plane waves:    7570
 k-point 17 :   0.2222 0.2222 0.0000  plane waves:    7576
 k-point 18 :   0.3333 0.2222 0.0000  plane waves:    7586
 k-point 19 :   0.4444 0.2222 0.0000  plane waves:    7584
 k-point 20 :  -0.4444 0.2222 0.0000  plane waves:    7576
 k-point 21 :  -0.3333 0.2222 0.0000  plane waves:    7570
 k-point 22 :  -0.2222 0.2222 0.0000  plane waves:    7573
 k-point 23 :  -0.1111 0.2222 0.0000  plane waves:    7556
 k-point 24 :   0.0000 0.3333 0.0000  plane waves:    7579
 k-point 25 :   0.1111 0.3333 0.0000  plane waves:    7574
 k-point 26 :   0.2222 0.3333 0.0000  plane waves:    7586
 k-point 27 :   0.3333 0.3333 0.0000  plane waves:    7560
 k-point 28 :   0.4444 0.3333 0.0000  plane waves:    7588
 k-point 29 :  -0.4444 0.3333 0.0000  plane waves:    7574
 k-point 30 :  -0.3333 0.3333 0.0000  plane waves:    7579
 k-point 31 :  -0.2222 0.3333 0.0000  plane waves:    7570
 k-point 32 :  -0.1111 0.3333 0.0000  plane waves:    7570
 k-point 33 :   0.0000 0.4444 0.0000  plane waves:    7579
 k-point 34 :   0.1111 0.4444 0.0000  plane waves:    7594
 k-point 35 :   0.2222 0.4444 0.0000  plane waves:    7584
 k-point 36 :   0.3333 0.4444 0.0000  plane waves:    7588
 k-point 37 :   0.4444 0.4444 0.0000  plane waves:    7594
 k-point 38 :  -0.4444 0.4444 0.0000  plane waves:    7579
 k-point 39 :  -0.3333 0.4444 0.0000  plane waves:    7574
 k-point 40 :  -0.2222 0.4444 0.0000  plane waves:    7576
 k-point 41 :  -0.1111 0.4444 0.0000  plane waves:    7574
 k-point 42 :   0.0000 0.0000 0.2500  plane waves:    7537
 k-point 43 :   0.1111-0.0000 0.2500  plane waves:    7549
 k-point 44 :   0.2222-0.0000 0.2500  plane waves:    7562
 k-point 45 :   0.3333-0.0000 0.2500  plane waves:    7578
 k-point 46 :   0.4444-0.0000 0.2500  plane waves:    7581
 k-point 47 :  -0.4444 0.0000 0.2500  plane waves:    7581
 k-point 48 :  -0.3333 0.0000 0.2500  plane waves:    7578
 k-point 49 :  -0.2222 0.0000 0.2500  plane waves:    7562
 k-point 50 :  -0.1111 0.0000 0.2500  plane waves:    7549
 k-point 51 :   0.0000 0.1111 0.2500  plane waves:    7549
 k-point 52 :   0.1111 0.1111 0.2500  plane waves:    7553
 k-point 53 :   0.2222 0.1111 0.2500  plane waves:    7578
 k-point 54 :   0.3333 0.1111 0.2500  plane waves:    7560
 k-point 55 :   0.4444 0.1111 0.2500  plane waves:    7590
 k-point 56 :  -0.4444 0.1111 0.2500  plane waves:    7563
 k-point 57 :  -0.3333 0.1111 0.2500  plane waves:    7577
 k-point 58 :  -0.2222 0.1111 0.2500  plane waves:    7553
 k-point 59 :  -0.1111 0.1111 0.2500  plane waves:    7549
 k-point 60 :   0.0000 0.2222 0.2500  plane waves:    7562
 k-point 61 :   0.1111 0.2222 0.2500  plane waves:    7578
 k-point 62 :   0.2222 0.2222 0.2500  plane waves:    7581
 k-point 63 :   0.3333 0.2222 0.2500  plane waves:    7579
 k-point 64 :   0.4444 0.2222 0.2500  plane waves:    7579
 k-point 65 :  -0.4444 0.2222 0.2500  plane waves:    7581
 k-point 66 :  -0.3333 0.2222 0.2500  plane waves:    7577
 k-point 67 :  -0.2222 0.2222 0.2500  plane waves:    7562
 k-point 68 :  -0.1111 0.2222 0.2500  plane waves:    7553
 k-point 69 :   0.0000 0.3333 0.2500  plane waves:    7578
 k-point 70 :   0.1111 0.3333 0.2500  plane waves:    7560
 k-point 71 :   0.2222 0.3333 0.2500  plane waves:    7579
 k-point 72 :   0.3333 0.3333 0.2500  plane waves:    7590
 k-point 73 :   0.4444 0.3333 0.2500  plane waves:    7579
 k-point 74 :  -0.4444 0.3333 0.2500  plane waves:    7562
 k-point 75 :  -0.3333 0.3333 0.2500  plane waves:    7580
 k-point 76 :  -0.2222 0.3333 0.2500  plane waves:    7577
 k-point 77 :  -0.1111 0.3333 0.2500  plane waves:    7577
 k-point 78 :   0.0000 0.4444 0.2500  plane waves:    7581
 k-point 79 :   0.1111 0.4444 0.2500  plane waves:    7590
 k-point 80 :   0.2222 0.4444 0.2500  plane waves:    7579
 k-point 81 :   0.3333 0.4444 0.2500  plane waves:    7579
 k-point 82 :   0.4444 0.4444 0.2500  plane waves:    7590
 k-point 83 :  -0.4444 0.4444 0.2500  plane waves:    7582
 k-point 84 :  -0.3333 0.4444 0.2500  plane waves:    7562
 k-point 85 :  -0.2222 0.4444 0.2500  plane waves:    7581
 k-point 86 :  -0.1111 0.4444 0.2500  plane waves:    7563
 k-point 87 :   0.0000-0.4444 0.2500  plane waves:    7581
 k-point 88 :   0.1111-0.4444 0.2500  plane waves:    7563
 k-point 89 :   0.2222-0.4444 0.2500  plane waves:    7581
 k-point 90 :   0.3333-0.4444 0.2500  plane waves:    7562
 k-point 91 :   0.4444-0.4444 0.2500  plane waves:    7582
 k-point 92 :  -0.4444-0.4444 0.2500  plane waves:    7590
 k-point 93 :  -0.3333-0.4444 0.2500  plane waves:    7579
 k-point 94 :  -0.2222-0.4444 0.2500  plane waves:    7579
 k-point 95 :  -0.1111-0.4444 0.2500  plane waves:    7590
 k-point 96 :   0.0000-0.3333 0.2500  plane waves:    7578
 k-point 97 :   0.1111-0.3333 0.2500  plane waves:    7577
 k-point 98 :   0.2222-0.3333 0.2500  plane waves:    7577
 k-point 99 :   0.3333-0.3333 0.2500  plane waves:    7580
 k-point ** :   0.4444-0.3333 0.2500  plane waves:    7562
 k-point ** :  -0.4444-0.3333 0.2500  plane waves:    7579
 k-point ** :  -0.3333-0.3333 0.2500  plane waves:    7590
 k-point ** :  -0.2222-0.3333 0.2500  plane waves:    7579
 k-point ** :  -0.1111-0.3333 0.2500  plane waves:    7560
 k-point ** :   0.0000-0.2222 0.2500  plane waves:    7562
 k-point ** :   0.1111-0.2222 0.2500  plane waves:    7553
 k-point ** :   0.2222-0.2222 0.2500  plane waves:    7562
 k-point ** :   0.3333-0.2222 0.2500  plane waves:    7577
 k-point ** :   0.4444-0.2222 0.2500  plane waves:    7581
 k-point ** :  -0.4444-0.2222 0.2500  plane waves:    7579
 k-point ** :  -0.3333-0.2222 0.2500  plane waves:    7579
 k-point ** :  -0.2222-0.2222 0.2500  plane waves:    7581
 k-point ** :  -0.1111-0.2222 0.2500  plane waves:    7578
 k-point ** :  -0.0000-0.1111 0.2500  plane waves:    7549
 k-point ** :   0.1111-0.1111 0.2500  plane waves:    7549
 k-point ** :   0.2222-0.1111 0.2500  plane waves:    7553
 k-point ** :   0.3333-0.1111 0.2500  plane waves:    7577
 k-point ** :   0.4444-0.1111 0.2500  plane waves:    7563
 k-point ** :  -0.4444-0.1111 0.2500  plane waves:    7590
 k-point ** :  -0.3333-0.1111 0.2500  plane waves:    7560
 k-point ** :  -0.2222-0.1111 0.2500  plane waves:    7578
 k-point ** :  -0.1111-0.1111 0.2500  plane waves:    7553
 k-point ** :   0.0000 0.0000 0.5000  plane waves:    7470
 k-point ** :   0.1111-0.0000 0.5000  plane waves:    7538
 k-point ** :   0.2222-0.0000 0.5000  plane waves:    7580
 k-point ** :   0.3333-0.0000 0.5000  plane waves:    7574
 k-point ** :   0.4444-0.0000 0.5000  plane waves:    7598
 k-point ** :   0.0000 0.1111 0.5000  plane waves:    7538
 k-point ** :   0.1111 0.1111 0.5000  plane waves:    7548
 k-point ** :   0.2222 0.1111 0.5000  plane waves:    7566
 k-point ** :   0.3333 0.1111 0.5000  plane waves:    7584
 k-point ** :   0.4444 0.1111 0.5000  plane waves:    7566
 k-point ** :  -0.4444 0.1111 0.5000  plane waves:    7584
 k-point ** :  -0.3333 0.1111 0.5000  plane waves:    7566
 k-point ** :  -0.2222 0.1111 0.5000  plane waves:    7548
 k-point ** :  -0.1111 0.1111 0.5000  plane waves:    7538
 k-point ** :   0.0000 0.2222 0.5000  plane waves:    7580
 k-point ** :   0.1111 0.2222 0.5000  plane waves:    7566
 k-point ** :   0.2222 0.2222 0.5000  plane waves:    7592
 k-point ** :   0.3333 0.2222 0.5000  plane waves:    7566
 k-point ** :   0.4444 0.2222 0.5000  plane waves:    7568
 k-point ** :  -0.4444 0.2222 0.5000  plane waves:    7592
 k-point ** :  -0.3333 0.2222 0.5000  plane waves:    7564
 k-point ** :  -0.2222 0.2222 0.5000  plane waves:    7580
 k-point ** :  -0.1111 0.2222 0.5000  plane waves:    7548
 k-point ** :   0.0000 0.3333 0.5000  plane waves:    7574
 k-point ** :   0.1111 0.3333 0.5000  plane waves:    7584
 k-point ** :   0.2222 0.3333 0.5000  plane waves:    7566
 k-point ** :   0.3333 0.3333 0.5000  plane waves:    7566
 k-point ** :   0.4444 0.3333 0.5000  plane waves:    7570
 k-point ** :  -0.4444 0.3333 0.5000  plane waves:    7584
 k-point ** :  -0.3333 0.3333 0.5000  plane waves:    7568
 k-point ** :  -0.2222 0.3333 0.5000  plane waves:    7564
 k-point ** :  -0.1111 0.3333 0.5000  plane waves:    7566
 k-point ** :   0.0000 0.4444 0.5000  plane waves:    7598
 k-point ** :   0.1111 0.4444 0.5000  plane waves:    7566
 k-point ** :   0.2222 0.4444 0.5000  plane waves:    7568
 k-point ** :   0.3333 0.4444 0.5000  plane waves:    7570
 k-point ** :   0.4444 0.4444 0.5000  plane waves:    7566
 k-point ** :  -0.4444 0.4444 0.5000  plane waves:    7594
 k-point ** :  -0.3333 0.4444 0.5000  plane waves:    7584
 k-point ** :  -0.2222 0.4444 0.5000  plane waves:    7592
 k-point ** :  -0.1111 0.4444 0.5000  plane waves:    7584

 maximum and minimum number of plane-waves per node :      7598     7470

 maximum number of plane-waves:      7598
 maximum index in each direction: 
   IXMAX=   10   IYMAX=   10   IZMAX=   21
   IXMIN=  -10   IYMIN=  -10   IZMIN=  -21

 WARNING: aliasing errors must be expected set NGX to  42 to avoid them
 WARNING: aliasing errors must be expected set NGY to  42 to avoid them
 NGZ is ok and might be reduce to  86
 aliasing errors are usually negligible using standard VASP settings
 and one can safely disregard these warnings

 serial   3D FFT for wavefunctions
 parallel 3D FFT for charge:
    minimum data exchange during FFTs selected (reduces bandwidth)


 total amount of memory used by VASP on root node   423148. kBytes
========================================================================

   base      :      30000. kBytes
   nonl-proj :      83196. kBytes
   fftplans  :       7336. kBytes
   grid      :      15534. kBytes
   one-center:         98. kBytes
   wavefun   :     286984. kBytes
 
     INWAV:  cpu time    0.00: real time    0.00
 Broyden mixing: mesh for mixing (old mesh)
   NGX = 19   NGY = 19   NGZ = 43
  (NGX  = 80   NGY  = 80   NGZ  =180)
  gives a total of  15523 points

 initial charge density was supplied:
 charge density of overlapping atoms calculated
 number of electron     128.0000000 magnetization 
 keeping initial charge density in first step


--------------------------------------------------------------------------------------------------------


 Maximum index for augmentation-charges         1476 (set IRDMAX)


--------------------------------------------------------------------------------------------------------


 First call to EWALD:  gamma=   0.291
 Maximum number of real-space cells 4x 4x 2
 Maximum number of reciprocal cells 2x 2x 4

 FEWALD executed in parallel
    FEWALD:  cpu time    0.00: real time    0.00


----------------------------------------- Iteration    1(   1)  ---------------------------------------


    POTLOK:  cpu time    0.34: real time    0.34
    SETDIJ:  cpu time    0.01: real time    0.01
     EDDAV:  cpu time   87.10: real time   87.15
       DOS:  cpu time    0.01: real time    0.01
    --------------------------------------------
      LOOP:  cpu time   87.46: real time   87.53

 eigenvalue-minimisations  : 27384
 total energy-change (2. order) : 0.5056252E+03  (-0.7414540E+04)
 number of electron     128.0000000 magnetization 
 augmentation part      128.0000000 magnetization 

 Free energy of the ion-electron system (eV)
  ---------------------------------------------------
  alpha Z        PSCENC =       367.73130239
  Ewald energy   TEWEN  =     -4661.22176628
  -Hartree energ DENC   =      -629.47136978
  -exchange      EXHF   =         0.00000000
  -V(xc)+E(xc)   XCENC  =       448.18660334
  PAW double counting   =      1210.60617908    -1247.42152856
  entropy T*S    EENTRO =        -0.01634939
  eigenvalues    EBANDS =       308.42295091
  atomic energy  EATOM  =      4708.80920826
  ---------------------------------------------------
  free energy    TOTEN  =       505.62522997 eV

  energy without entropy =      505.64157936  energy(sigma->0) =      505.63340467


--------------------------------------------------------------------------------------------------------




----------------------------------------- Iteration    1(   2)  ---------------------------------------


     EDDAV:  cpu time  128.51: real time  128.58
       DOS:  cpu time    0.01: real time    0.01
    --------------------------------------------
      LOOP:  cpu time  128.53: real time  128.60

 eigenvalue-minimisations  : 33960
 total energy-change (2. order) :-0.7723583E+03  (-0.7415746E+03)
 number of electron     128.0000000 magnetization 
 augmentation part      128.0000000 magnetization 

 Free energy of the ion-electron system (eV)
  ---------------------------------------------------
  alpha Z        PSCENC =       367.73130239
  Ewald energy   TEWEN  =     -4661.22176628
  -Hartree energ DENC   =      -629.47136978
  -exchange      EXHF   =         0.00000000
  -V(xc)+E(xc)   XCENC  =       448.18660334
  PAW double counting   =      1210.60617908    -1247.42152856
  entropy T*S    EENTRO =        -0.00236768
  eigenvalues    EBANDS =      -463.94934073
  atomic energy  EATOM  =      4708.80920826
  ---------------------------------------------------
  free energy    TOTEN  =      -266.73307997 eV

  energy without entropy =     -266.73071229  energy(sigma->0) =     -266.73189613


--------------------------------------------------------------------------------------------------------




----------------------------------------- Iteration    1(   3)  ---------------------------------------


     EDDAV:  cpu time  144.11: real time  144.19
       DOS:  cpu time    0.01: real time    0.01
    --------------------------------------------
      LOOP:  cpu time  144.13: real time  144.20

 eigenvalue-minimisations  : 33372
 total energy-change (2. order) :-0.3984353E+02  (-0.3940089E+02)
 number of electron     128.0000000 magnetization 
 augmentation part      128.0000000 magnetization 

 Free energy of the ion-electron system (eV)
  ---------------------------------------------------
  alpha Z        PSCENC =       367.73130239
  Ewald energy   TEWEN  =     -4661.22176628
  -Hartree energ DENC   =      -629.47136978
  -exchange      EXHF   =         0.00000000
  -V(xc)+E(xc)   XCENC  =       448.18660334
  PAW double counting   =      1210.60617908    -1247.42152856
  entropy T*S    EENTRO =        -0.00407780
  eigenvalues    EBANDS =      -503.79116259
  atomic energy  EATOM  =      4708.80920826
  ---------------------------------------------------
  free energy    TOTEN  =      -306.57661193 eV

  energy without entropy =     -306.57253414  energy(sigma->0) =     -306.57457304


--------------------------------------------------------------------------------------------------------




----------------------------------------- Iteration    1(   4)  ---------------------------------------


     EDDAV:  cpu time  126.07: real time  126.14
       DOS:  cpu time    0.01: real time    0.01
    --------------------------------------------
      LOOP:  cpu time  126.09: real time  126.15

 eigenvalue-minimisations  : 33120
 total energy-change (2. order) :-0.6527775E+00  (-0.6513072E+00)
 number of electron     128.0000000 magnetization 
 augmentation part      128.0000000 magnetization 

 Free energy of the ion-electron system (eV)
  ---------------------------------------------------
  alpha Z        PSCENC =       367.73130239
  Ewald energy   TEWEN  =     -4661.22176628
  -Hartree energ DENC   =      -629.47136978
  -exchange      EXHF   =         0.00000000
  -V(xc)+E(xc)   XCENC  =       448.18660334
  PAW double counting   =      1210.60617908    -1247.42152856
  entropy T*S    EENTRO =        -0.00407621
  eigenvalues    EBANDS =      -504.44394168
  atomic energy  EATOM  =      4708.80920826
  ---------------------------------------------------
  free energy    TOTEN  =      -307.22938944 eV

  energy without entropy =     -307.22531323  energy(sigma->0) =     -307.22735134


--------------------------------------------------------------------------------------------------------




----------------------------------------- Iteration    1(   5)  ---------------------------------------


     EDDAV:  cpu time  126.11: real time  126.17
       DOS:  cpu time    0.01: real time    0.01
    CHARGE:  cpu time    6.10: real time    6.10
    MIXING:  cpu time    0.01: real time    0.01
    --------------------------------------------
      LOOP:  cpu time  132.23: real time  132.30

 eigenvalue-minimisations  : 33480
 total energy-change (2. order) :-0.1789339E-01  (-0.1788459E-01)
 number of electron     128.0000010 magnetization 
 augmentation part        3.3785260 magnetization 

 Broyden mixing:
  rms(total) = 0.21983E+01    rms(broyden)= 0.21980E+01
  rms(prec ) = 0.27480E+01
  weight for this iteration     100.00

 Free energy of the ion-electron system (eV)
  ---------------------------------------------------
  alpha Z        PSCENC =       367.73130239
  Ewald energy   TEWEN  =     -4661.22176628
  -Hartree energ DENC   =      -629.47136978
  -exchange      EXHF   =         0.00000000
  -V(xc)+E(xc)   XCENC  =       448.18660334
  PAW double counting   =      1210.60617908    -1247.42152856
  entropy T*S    EENTRO =        -0.00407634
  eigenvalues    EBANDS =      -504.46183494
  atomic energy  EATOM  =      4708.80920826
  ---------------------------------------------------
  free energy    TOTEN  =      -307.24728283 eV

  energy without entropy =     -307.24320649  energy(sigma->0) =     -307.24524466


--------------------------------------------------------------------------------------------------------




----------------------------------------- Iteration    1(   6)  ---------------------------------------


    POTLOK:  cpu time    0.17: real time    0.17
    SETDIJ:  cpu time    0.01: real time    0.01
     EDDAV:  cpu time  132.70: real time  132.77
       DOS:  cpu time    0.01: real time    0.01
    CHARGE:  cpu time    4.40: real time    4.40
    MIXING:  cpu time    0.01: real time    0.01
    --------------------------------------------
      LOOP:  cpu time  137.30: real time  137.37

 eigenvalue-minimisations  : 31296
 total energy-change (2. order) : 0.1304165E+02  (-0.1292631E+01)
 number of electron     128.0000009 magnetization 
 augmentation part        3.2335420 magnetization 

 Broyden mixing:
  rms(total) = 0.11532E+01    rms(broyden)= 0.11532E+01
  rms(prec ) = 0.14256E+01
  weight for this iteration     100.00

 eigenvalues of (default mixing * dielectric matrix)
  average eigenvalue GAMMA=   2.0440
  2.0440

 Free energy of the ion-electron system (eV)
  ---------------------------------------------------
  alpha Z        PSCENC =       367.73130239
  Ewald energy   TEWEN  =     -4661.22176628
  -Hartree energ DENC   =      -731.11049705
  -exchange      EXHF   =         0.00000000
  -V(xc)+E(xc)   XCENC  =       455.86386860
  PAW double counting   =      1638.21477906    -1677.91414773
  entropy T*S    EENTRO =        -0.00364127
  eigenvalues    EBANDS =      -394.57473439
  atomic energy  EATOM  =      4708.80920826
  ---------------------------------------------------
  free energy    TOTEN  =      -294.20562841 eV

  energy without entropy =     -294.20198713  energy(sigma->0) =     -294.20380777


--------------------------------------------------------------------------------------------------------




----------------------------------------- Iteration    1(   7)  ---------------------------------------


    POTLOK:  cpu time    0.16: real time    0.16
    SETDIJ:  cpu time    0.01: real time    0.01
     EDDAV:  cpu time  129.88: real time  129.95
       DOS:  cpu time    0.01: real time    0.01
    CHARGE:  cpu time    7.09: real time    7.10
    MIXING:  cpu time    0.01: real time    0.01
    --------------------------------------------
      LOOP:  cpu time  137.17: real time  137.24

 eigenvalue-minimisations  : 31008
 total energy-change (2. order) : 0.4045893E+01  (-0.1294388E+01)
 number of electron     128.0000008 magnetization 
 augmentation part        3.0819723 magnetization 

 Broyden mixing:
  rms(total) = 0.17577E+00    rms(broyden)= 0.17567E+00
  rms(prec ) = 0.19344E+00
  weight for this iteration     100.00

 eigenvalues of (default mixing * dielectric matrix)
  average eigenvalue GAMMA=   2.0779
  1.9644  2.1914

 Free energy of the ion-electron system (eV)
  ---------------------------------------------------
  alpha Z        PSCENC =       367.73130239
  Ewald energy   TEWEN  =     -4661.22176628
  -Hartree energ DENC   =      -844.02824118
  -exchange      EXHF   =         0.00000000
  -V(xc)+E(xc)   XCENC  =       464.56532455
  PAW double counting   =      2177.67227187    -2219.76739806
  entropy T*S    EENTRO =        -0.00346561
  eigenvalues    EBANDS =      -283.91697088
  atomic energy  EATOM  =      4708.80920826
  ---------------------------------------------------
  free energy    TOTEN  =      -290.15973494 eV

  energy without entropy =     -290.15626933  energy(sigma->0) =     -290.15800213


--------------------------------------------------------------------------------------------------------




----------------------------------------- Iteration    1(   8)  ---------------------------------------


    POTLOK:  cpu time    0.18: real time    0.18
    SETDIJ:  cpu time    0.02: real time    0.02
     EDDAV:  cpu time  131.01: real time  131.08
       DOS:  cpu time    0.01: real time    0.01
    CHARGE:  cpu time    5.54: real time    5.54
    MIXING:  cpu time    0.01: real time    0.01
    --------------------------------------------
      LOOP:  cpu time  136.77: real time  136.84

 eigenvalue-minimisations  : 31332
 total energy-change (2. order) :-0.2836180E-01  (-0.2147930E-01)
 number of electron     128.0000008 magnetization 
 augmentation part        3.0765507 magnetization 

 Broyden mixing:
  rms(total) = 0.31229E-01    rms(broyden)= 0.31212E-01
  rms(prec ) = 0.35382E-01
  weight for this iteration     100.00

 eigenvalues of (default mixing * dielectric matrix)
  average eigenvalue GAMMA=   1.8492
  1.0694  1.9390  2.5390

 Free energy of the ion-electron system (eV)
  ---------------------------------------------------
  alpha Z        PSCENC =       367.73130239
  Ewald energy   TEWEN  =     -4661.22176628
  -Hartree energ DENC   =      -842.23154194
  -exchange      EXHF   =         0.00000000
  -V(xc)+E(xc)   XCENC  =       464.48468878
  PAW double counting   =      2219.74862473    -2261.23581711
  entropy T*S    EENTRO =        -0.00343700
  eigenvalues    EBANDS =      -286.26935858
  atomic energy  EATOM  =      4708.80920826
  ---------------------------------------------------
  free energy    TOTEN  =      -290.18809674 eV

  energy without entropy =     -290.18465974  energy(sigma->0) =     -290.18637824


--------------------------------------------------------------------------------------------------------




----------------------------------------- Iteration    1(   9)  ---------------------------------------


    POTLOK:  cpu time    0.16: real time    0.16
    SETDIJ:  cpu time    0.01: real time    0.01
     EDDAV:  cpu time  112.18: real time  112.24
       DOS:  cpu time    0.01: real time    0.01
    CHARGE:  cpu time    5.11: real time    5.11
    MIXING:  cpu time    0.01: real time    0.01
    --------------------------------------------
      LOOP:  cpu time  117.48: real time  117.55

 eigenvalue-minimisations  : 33156
 total energy-change (2. order) :-0.2396230E-02  (-0.4759767E-03)
 number of electron     128.0000008 magnetization 
 augmentation part        3.0745573 magnetization 

 Broyden mixing:
  rms(total) = 0.77099E-02    rms(broyden)= 0.77073E-02
  rms(prec ) = 0.88384E-02
  weight for this iteration     100.00

 eigenvalues of (default mixing * dielectric matrix)
  average eigenvalue GAMMA=   2.0169
  1.0235  1.8624  2.5909  2.5909

 Free energy of the ion-electron system (eV)
  ---------------------------------------------------
  alpha Z        PSCENC =       367.73130239
  Ewald energy   TEWEN  =     -4661.22176628
  -Hartree energ DENC   =      -843.32052481
  -exchange      EXHF   =         0.00000000
  -V(xc)+E(xc)   XCENC  =       464.58714735
  PAW double counting   =      2232.81906634    -2274.21648771
  entropy T*S    EENTRO =        -0.00344092
  eigenvalues    EBANDS =      -285.37499760
  atomic energy  EATOM  =      4708.80920826
  ---------------------------------------------------
  free energy    TOTEN  =      -290.19049297 eV

  energy without entropy =     -290.18705205  energy(sigma->0) =     -290.18877251


--------------------------------------------------------------------------------------------------------




----------------------------------------- Iteration    1(  10)  ---------------------------------------


    POTLOK:  cpu time    0.15: real time    0.15
    SETDIJ:  cpu time    0.01: real time    0.01
     EDDAV:  cpu time  121.66: real time  121.72
       DOS:  cpu time    0.01: real time    0.01
    CHARGE:  cpu time    5.05: real time    5.05
    MIXING:  cpu time    0.01: real time    0.01
    --------------------------------------------
      LOOP:  cpu time  126.89: real time  126.96

 eigenvalue-minimisations  : 31908
 total energy-change (2. order) :-0.3411982E-03  (-0.5198607E-04)
 number of electron     128.0000008 magnetization 
 augmentation part        3.0748599 magnetization 

 Broyden mixing:
  rms(total) = 0.24241E-02    rms(broyden)= 0.24237E-02
  rms(prec ) = 0.31988E-02
  weight for this iteration     100.00

 eigenvalues of (default mixing * dielectric matrix)
  average eigenvalue GAMMA=   1.8649
  2.7847  2.5161  1.9435  0.9486  1.1317

 Free energy of the ion-electron system (eV)
  ---------------------------------------------------
  alpha Z        PSCENC =       367.73130239
  Ewald energy   TEWEN  =     -4661.22176628
  -Hartree energ DENC   =      -843.18469733
  -exchange      EXHF   =         0.00000000
  -V(xc)+E(xc)   XCENC  =       464.58312350
  PAW double counting   =      2230.05002979    -2271.43261174
  entropy T*S    EENTRO =        -0.00344335
  eigenvalues    EBANDS =      -285.52197942
  atomic energy  EATOM  =      4708.80920826
  ---------------------------------------------------
  free energy    TOTEN  =      -290.19083417 eV

  energy without entropy =     -290.18739082  energy(sigma->0) =     -290.18911250


--------------------------------------------------------------------------------------------------------




----------------------------------------- Iteration    1(  11)  ---------------------------------------


    POTLOK:  cpu time    0.15: real time    0.15
    SETDIJ:  cpu time    0.01: real time    0.01
     EDDAV:  cpu time  108.79: real time  108.85
       DOS:  cpu time    0.01: real time    0.01
    CHARGE:  cpu time    4.04: real time    4.05
    MIXING:  cpu time    0.01: real time    0.01
    --------------------------------------------
      LOOP:  cpu time  113.01: real time  113.08

 eigenvalue-minimisations  : 31680
[...]
     76      13.1821      0.00000
     77      14.5499      0.00000
     78      14.5553      0.00000
     79      14.5725      0.00000
     80      14.5746      0.00000
     81      15.1224      0.00000
     82      15.1290      0.00000
     83      15.4906      0.00000
     84      15.5107      0.00000

 k-point   162 :      -0.2222    0.4444    0.5000
  band No.  band energies     occupation 
      1     -12.2276      2.00000
      2     -12.2271      2.00000
      3     -11.3258      2.00000
      4     -11.3240      2.00000
      5     -10.2582      2.00000
      6     -10.2551      2.00000
      7     -10.2545      2.00000
      8     -10.2513      2.00000
      9      -9.4400      2.00000
     10      -9.4367      2.00000
     11      -9.4361      2.00000
     12      -9.4326      2.00000
     13      -6.8898      2.00000
     14      -6.8880      2.00000
     15      -6.5385      2.00000
     16      -6.5371      2.00000
     17      -5.6941      2.00000
     18      -5.6907      2.00000
     19      -5.5177      2.00000
     20      -5.5137      2.00000
     21      -2.8760      2.00000
     22      -2.8737      2.00000
     23      -2.8719      2.00000
     24      -2.8681      2.00000
     25      -2.5347      2.00000
     26      -2.5323      2.00000
     27      -2.4056      2.00000
     28      -2.4029      2.00000
     29      -2.4011      2.00000
     30      -2.3971      2.00000
     31      -2.1301      2.00000
     32      -2.1272      2.00000
     33      -1.2130      2.00000
     34      -1.2116      2.00000
     35       0.1325      2.00000
     36       0.1352      2.00000
     37       0.1379      2.00000
     38       0.1393      2.00000
     39       0.4306      2.00000
     40       0.4337      2.00000
     41       0.4364      2.00000
     42       0.4375      2.00000
     43       1.0872      2.00000
     44       1.0900      2.00000
     45       1.0911      2.00000
     46       1.0924      2.00000
     47       1.1123      2.00000
     48       1.1190      2.00000
     49       1.2912      2.00000
     50       1.2966      2.00000
     51       2.1245      2.00000
     52       2.1299      2.00000
     53       2.2510      2.00000
     54       2.2557      2.00000
     55       2.2847      2.00000
     56       2.2873      2.00000
     57       4.2125      2.00000
     58       4.2166      2.00000
     59       4.2167      2.00000
     60       4.2205      2.00000
     61       4.5738      2.00000
     62       4.5770      2.00000
     63       5.8497      2.00000
     64       5.8510      2.00000
     65       8.1543      0.00000
     66       8.1586      0.00000
     67       8.5937      0.00000
     68       8.5967      0.00000
     69      10.7346      0.00000
     70      10.7354      0.00000
     71      10.7374      0.00000
     72      10.7407      0.00000
     73      12.2727      0.00000
     74      12.2759      0.00000
     75      12.2768      0.00000
     76      12.2797      0.00000
     77      14.8753      0.00000
     78      14.8794      0.00000
     79      15.3161      0.00000
     80      15.3194      0.00000
     81      15.3240      0.00000
     82      15.3277      0.00000
     83      15.4259      0.00000
     84      15.4499      0.00000

 k-point   163 :      -0.1111    0.4444    0.5000
  band No.  band energies     occupation 
      1     -12.1535      2.00000
      2     -12.1530      2.00000
      3     -11.2547      2.00000
      4     -11.2530      2.00000
      5     -10.8324      2.00000
      6     -10.8320      2.00000
      7      -9.9893      2.00000
      8      -9.9876      2.00000
      9      -9.5433      2.00000
     10      -9.5430      2.00000
     11      -8.7580      2.00000
     12      -8.7563      2.00000
     13      -7.7055      2.00000
     14      -7.7052      2.00000
     15      -7.0330      2.00000
     16      -7.0314      2.00000
     17      -5.1348      2.00000
     18      -5.1324      2.00000
     19      -4.6468      2.00000
     20      -4.6446      2.00000
     21      -3.4574      2.00000
     22      -3.4555      2.00000
     23      -3.0030      2.00000
     24      -3.0009      2.00000
     25      -2.4155      2.00000
     26      -2.4136      2.00000
     27      -2.2041      2.00000
     28      -2.2038      2.00000
     29      -2.0342      2.00000
     30      -2.0316      2.00000
     31      -1.7436      2.00000
     32      -1.7422      2.00000
     33      -1.1260      2.00000
     34      -1.1245      2.00000
     35      -0.9477      2.00000
     36      -0.9458      2.00000
     37      -0.6210      2.00000
     38      -0.6184      2.00000
     39       0.4222      2.00000
     40       0.4233      2.00000
     41       0.7310      2.00000
     42       0.7326      2.00000
     43       1.0111      2.00000
     44       1.0114      2.00000
     45       1.0273      2.00000
     46       1.0305      2.00000
     47       1.2699      2.00000
     48       1.2712      2.00000
     49       1.9051      2.00000
     50       1.9061      2.00000
     51       2.1651      2.00000
     52       2.1672      2.00000
     53       2.3529      2.00000
     54       2.3558      2.00000
     55       2.3751      2.00000
     56       2.3760      2.00000
     57       3.6708      2.00000
     58       3.6739      2.00000
     59       3.9080      2.00000
     60       3.9092      2.00000
     61       4.8600      2.00000
     62       4.8627      2.00000
     63       6.0242      2.00000
     64       6.0267      2.00000
     65       8.0763      0.00000
     66       8.0808      0.00000
     67       9.2614      0.00000
     68       9.2633      0.00000
     69       9.8386      0.00000
     70       9.8415      0.00000
     71      11.2642      0.00000
     72      11.2660      0.00000
     73      11.6073      0.00000
     74      11.6104      0.00000
     75      13.1796      0.00000
     76      13.1818      0.00000
     77      14.5502      0.00000
     78      14.5549      0.00000
     79      14.5695      0.00000
     80      14.5711      0.00000
     81      15.1225      0.00000
     82      15.1274      0.00000
     83      15.4633      0.00000
     84      15.4914      0.00000


--------------------------------------------------------------------------------------------------------


 soft charge-density along one line, spin component           1
         0         1         2         3         4         5         6         7         8         9
 total charge-density along one line
 
 pseudopotential strength for first ion, spin component:           1
  9.640   0.001  -0.000  -0.000   0.000   0.000   0.000  -0.000
  0.001  -0.002  -0.000  -0.000  -0.000   0.000   0.000  -0.000
 -0.000  -0.000  -3.828  -0.000   0.000  -0.014   0.000   0.000
 -0.000  -0.000  -0.000  -3.822  -0.000   0.000  -0.011   0.000
  0.000  -0.000   0.000  -0.000  -3.828   0.000   0.000  -0.014
  0.000   0.000  -0.014   0.000   0.000  -0.761  -0.000   0.000
  0.000   0.000   0.000  -0.011   0.000  -0.000  -0.761  -0.000
 -0.000  -0.000   0.000   0.000  -0.014   0.000  -0.000  -0.761
 total augmentation occupancy for first ion, spin component:           1
  1.478  -1.100  -0.000  -0.000  -0.000  -0.000   0.000  -0.000
 -1.100   1.040   0.000  -0.000   0.000   0.000  -0.000   0.000
 -0.000   0.000   1.225  -0.000  -0.000   0.224   0.000  -0.000
 -0.000  -0.000  -0.000   0.918  -0.000   0.000   0.102  -0.000
 -0.000   0.000  -0.000  -0.000   1.225  -0.000  -0.000   0.224
 -0.000   0.000   0.224   0.000  -0.000   0.047   0.000  -0.000
  0.000  -0.000   0.000   0.102  -0.000   0.000   0.013   0.000
 -0.000   0.000  -0.000  -0.000   0.224  -0.000   0.000   0.047


------------------------ aborting loop because EDIFF is reached ----------------------------------------


    CHARGE:  cpu time    3.85: real time    3.85
    FORLOC:  cpu time    0.04: real time    0.04
    FORNL :  cpu time   33.17: real time   33.18
    STRESS:  cpu time   57.73: real time   57.75
    FORHAR:  cpu time    0.05: real time    0.05
    MIXING:  cpu time    0.00: real time    0.01
    OFIELD:  cpu time    0.00: real time    0.00

 ---------------------------------------------------------------------------------------------

         DFTD3 V3.0 Rev 1        
 IVDW         = 11
 DF pbe       
 parameters
 VDW_S6       =    1.0000
 VDW_S8       =    0.7220
 VDW_SR       =    1.2170
 rs18     =    1.0000
 alpha6   =   14.0000
 alpha8   =   16.0000
 k1-k3    =   16.0000    1.3333   -4.0000
 VDW_RADIUS   =   50.2022 A
 VDW_CNRADIUS =   21.1671 A
 Edisp (eV)   -3.71034

 E6    (eV) :    -2.1770
 E8    (eV) :    -1.5333
 % E8        : 41.33
    FORVDW:  cpu time    0.45: real time    0.45

  FORCE on cell =-STRESS in cart. coord.  units (eV):
  Direction    XX          YY          ZZ          XY          YZ          ZX
  --------------------------------------------------------------------------------------
  Alpha Z   367.73130   367.73130   367.73130
  Ewald    -353.83760  -354.23619 -3953.16316     0.56719    -0.00005    -0.00908
  Hartree   665.18432   665.13838  -486.83383     0.08505     0.00001    -0.00189
  E(xc)    -470.90070  -470.90273  -483.94684     0.00156     0.00000    -0.00001
  Local   -2013.25698 -2012.88973  2480.74216    -0.54278     0.00001     0.00903
  n-local  -111.39902  -111.41442  -105.86447    -0.00612     0.00000     0.00018
  augment   -12.42435   -12.42367   -11.37009    -0.00085     0.00000     0.00001
  Kinetic  1926.11931  1926.26884  2235.21120    -0.00693    -0.00002    -0.00051
  Fock        0.00000     0.00000     0.00000     0.00000     0.00000     0.00000
  vdW         0.30600     0.30697    -1.27890     0.00051    -0.00000    -0.00002
  -------------------------------------------------------------------------------------
  Total      -2.47771    -2.42124    41.22736     0.09763    -0.00004    -0.00228
  in kB     -17.49606   -17.09732   291.12191     0.68940    -0.00030    -0.01612
  external pressure =       85.51 kB  Pullay stress =        0.00 kB


 VOLUME and BASIS-vectors are now :
 -----------------------------------------------------------------------------
  energy-cutoff  :      600.00
  volume of cell :      226.89
      direct lattice vectors                 reciprocal lattice vectors
     4.934310885 -0.000222400  0.000000000     0.202667819  0.117022500  0.000000000
    -2.467348046  4.273127376  0.000000000     0.000010548  0.234026730  0.000000000
     0.000000000  0.000000000 10.761187700     0.000000000  0.000000000  0.092926546

  length of vectors
     4.934310890  4.934310890 10.761187700     0.234026730  0.234026730  0.092926546


 FORCES acting on ions
    electron-ion (+dipol)            ewald-force                    non-local-force                 convergence-correction
 -----------------------------------------------------------------------------------------------
   -.913E-01 0.793E-03 0.290E+00   0.898E-01 0.126E-02 -.288E+00   -.574E-03 0.119E-02 0.114E-01   0.153E-03 0.618E-05 0.181E-04
   0.286E+00 -.683E-02 0.799E+00   -.284E+00 0.967E-02 -.826E+00   0.304E-01 0.966E-03 0.664E-01   -.123E-03 0.209E-04 -.136E-04
   -.391E+00 -.391E+00 0.804E+00   0.457E+00 0.430E+00 -.831E+00   0.202E-01 -.475E-02 0.666E-01   -.254E-04 0.472E-04 -.149E-04
   -.401E+00 0.395E+00 0.795E+00   0.466E+00 -.430E+00 -.820E+00   0.190E-01 0.764E-02 0.662E-01   -.336E-05 -.771E-04 -.177E-04
   -.130E-02 0.508E-03 -.114E+00   -.229E-02 0.157E-02 0.114E+00   -.210E-02 0.119E-02 -.125E-03   -.105E-04 -.103E-04 -.144E-04
   -.394E-03 0.496E-03 -.117E+00   -.321E-02 0.156E-02 0.117E+00   -.207E-02 0.119E-02 0.283E-03   0.173E-04 0.115E-04 -.676E-05
   -.855E-03 0.224E-03 -.117E+00   -.273E-02 0.185E-02 0.117E+00   -.209E-02 0.117E-02 0.283E-03   -.826E-05 -.124E-04 -.233E-05
   -.842E-03 0.756E-03 -.117E+00   -.275E-02 0.131E-02 0.117E+00   -.209E-02 0.120E-02 0.285E-03   0.446E-05 0.503E-05 -.359E-05
   0.515E-01 -.226E-01 -.104E+00   -.479E-01 0.204E-01 0.104E+00   0.211E-02 -.112E-02 0.199E-02   0.492E-05 0.143E-04 -.595E-04
   -.531E-01 -.388E-01 -.151E+00   0.574E-01 0.373E-01 0.153E+00   0.262E-02 -.954E-03 0.354E-02   -.114E-04 -.204E-04 0.638E-04
   0.133E-01 0.599E-01 -.127E+00   -.984E-02 -.624E-01 0.128E+00   0.222E-02 -.148E-02 0.276E-02   0.161E-04 0.138E-04 0.341E-07
   -.866E-02 -.456E-03 -.704E-01   0.131E-01 -.162E-02 0.708E-01   0.202E-02 -.119E-02 -.866E-03   -.161E-04 0.589E-05 0.741E-06
   -.524E-01 0.372E-01 -.151E+00   0.567E-01 -.398E-01 0.152E+00   0.262E-02 -.141E-02 0.348E-02   -.217E-05 0.882E-05 0.686E-04
   0.510E-01 0.215E-01 -.104E+00   -.474E-01 -.234E-01 0.105E+00   0.211E-02 -.125E-02 0.197E-02   -.314E-05 -.172E-04 -.576E-04
   0.130E-01 -.602E-01 -.127E+00   -.953E-02 0.585E-01 0.128E+00   0.222E-02 -.897E-03 0.273E-02   0.160E-04 0.145E-05 0.626E-05
   -.843E-02 -.446E-03 -.709E-01   0.129E-01 -.163E-02 0.713E-01   0.203E-02 -.119E-02 -.841E-03   -.252E-04 0.895E-05 -.105E-05
   0.915E+00 0.347E-02 -.961E+00   -.105E+01 -.664E-02 0.101E+01   -.113E+00 -.147E-02 -.199E+00   -.293E-03 0.856E-06 -.523E-04
   -.247E+00 -.202E-03 0.348E+00   0.266E+00 -.172E-02 -.333E+00   0.233E-01 -.131E-02 -.202E-01   0.320E-03 0.496E-05 0.195E-04
   -.326E-01 0.123E+00 0.348E+00   0.257E-01 -.141E+00 -.333E+00   0.982E-02 -.898E-02 -.202E-01   -.196E-04 -.197E-03 0.211E-04
   -.323E-01 -.124E+00 0.348E+00   0.257E-01 0.137E+00 -.333E+00   0.972E-02 0.662E-02 -.202E-01   -.151E-04 0.194E-03 0.229E-04
   0.152E-02 -.350E-03 -.121E+00   0.205E-02 -.171E-02 0.120E+00   0.210E-02 -.121E-02 0.127E-02   0.452E-04 -.604E-05 -.483E-05
   -.355E-03 -.359E-03 -.115E+00   0.390E-02 -.171E-02 0.115E+00   0.212E-02 -.121E-02 0.454E-03   -.408E-04 -.247E-05 -.393E-05
   0.570E-03 0.171E-03 -.115E+00   0.298E-02 -.224E-02 0.115E+00   0.210E-02 -.122E-02 0.454E-03   0.710E-05 0.338E-04 -.610E-05
   0.589E-03 -.902E-03 -.115E+00   0.298E-02 -.117E-02 0.115E+00   0.210E-02 -.120E-02 0.453E-03   -.123E-04 -.144E-04 -.786E-05
   -.563E-01 0.398E-01 -.151E+00   0.517E-01 -.371E-01 0.153E+00   -.138E-02 0.792E-03 0.715E-03   0.561E-05 0.121E-04 0.478E-04
   0.504E-01 0.225E-01 -.104E+00   -.536E-01 -.203E-01 0.104E+00   -.256E-02 0.957E-03 0.187E-02   -.419E-05 -.266E-04 -.373E-04
   0.121E-01 -.613E-01 -.128E+00   -.155E-01 0.626E-01 0.128E+00   -.211E-02 0.189E-02 0.129E-02   0.245E-04 0.210E-05 0.890E-05
   -.118E-01 0.311E-03 -.701E-01   0.746E-02 0.176E-02 0.708E-01   -.255E-02 0.121E-02 -.116E-02   -.173E-04 -.796E-06 -.136E-04
   0.498E-01 -.216E-01 -.104E+00   -.531E-01 0.236E-01 0.105E+00   -.255E-02 0.147E-02 0.185E-02   -.298E-05 0.273E-04 -.358E-04
   -.556E-01 -.385E-01 -.151E+00   0.510E-01 0.400E-01 0.152E+00   -.139E-02 0.163E-02 0.689E-03   0.109E-04 -.591E-05 0.543E-04
   0.117E-01 0.612E-01 -.128E+00   -.152E-01 -.584E-01 0.128E+00   -.211E-02 0.545E-03 0.127E-02   0.288E-04 -.191E-04 0.689E-05
   -.115E-01 0.310E-03 -.706E-01   0.722E-02 0.176E-02 0.713E-01   -.253E-02 0.121E-02 -.113E-02   -.239E-04 -.185E-05 -.886E-05
 -----------------------------------------------------------------------------------------------
   0.628E-03 -.430E-04 0.257E-01   0.829E-14 0.540E-13 0.391E-13   -.610E-03 0.327E-04 -.257E-01   -.334E-05 0.707E-05 -.228E-04
 
 
 POSITION                                       TOTAL-FORCE (eV/Angst)
 -----------------------------------------------------------------------------------
      2.46715     -0.00011      1.34515        -0.001901      0.003253      0.013378
      4.93431     -0.00022      1.34515         0.032346      0.003828      0.039695
      1.23348      2.13645      1.34515         0.085782      0.034178      0.039145
      3.70064      2.13634      1.34515         0.084785     -0.026950      0.040193
      2.46715     -0.00011      6.72574        -0.005691      0.003252     -0.000448
      4.93431     -0.00022      6.72574        -0.005662      0.003248     -0.000258
      1.23348      2.13645      6.72574        -0.005689      0.003233     -0.000259
      3.70064      2.13634      6.72574        -0.005687      0.003266     -0.000258
     -1.23367      2.13656      4.03545         0.005652     -0.003265      0.002513
      1.23348      2.13645      4.03545         0.007024     -0.002454      0.005027
     -2.46735      4.27313      4.03545         0.005640     -0.004047      0.003765
     -0.00019      4.27302      4.03545         0.006490     -0.003254     -0.000458
     -1.23367      2.13656      9.41604         0.006986     -0.004027      0.004932
      1.23348      2.13645      9.41604         0.005654     -0.003253      0.002494
     -2.46735      4.27313      9.41604         0.005650     -0.002486      0.003715
     -0.00019      4.27302      9.41604         0.006498     -0.003254     -0.000423
      0.00398      1.42441      1.35424        -0.253200     -0.004634     -0.149028
      2.46696      1.42430      1.34515         0.044420     -0.003222     -0.005515
     -1.23387      3.56098      1.34515         0.003230     -0.027020     -0.005581
      1.23329      3.56086      1.34515         0.003371      0.020467     -0.005464
     -0.00019      1.42441      6.72574         0.005715     -0.003272      0.000644
      2.46696      1.42430      6.72574         0.005631     -0.003276     -0.000045
     -1.23387      3.56098      6.72574         0.005664     -0.003254     -0.000045
      1.23329      3.56086      6.72574         0.005664     -0.003291     -0.000045
      1.23367      0.71204      4.03545        -0.005854      0.003428      0.002247
      3.70083      0.71193      4.03545        -0.005888      0.003114      0.002214
     -0.00000      2.84860      4.03545        -0.005595      0.003298      0.002228
      2.46715      2.84849      4.03545        -0.006859      0.003277     -0.000482
      1.23367      0.71204      9.41604        -0.005885      0.003455      0.002199
      3.70083      0.71193      9.41604        -0.005875      0.003112      0.002184
     -0.00000      2.84860      9.41604        -0.005580      0.003271      0.002195
      2.46715      2.84849      9.41604        -0.006835      0.003277     -0.000460
 -----------------------------------------------------------------------------------
    total drift:                                0.000014     -0.000003     -0.000019


--------------------------------------------------------------------------------------------------------



  FREE ENERGIE OF THE ION-ELECTRON SYSTEM (eV)
  ---------------------------------------------------
  free  energy   TOTEN  =      -293.90114848 eV

  energy  without entropy=     -293.89770722  energy(sigma->0) =     -293.89942785
 


--------------------------------------------------------------------------------------------------------


    POTLOK:  cpu time    0.15: real time    0.15


--------------------------------------------------------------------------------------------------------


     LOOP+:  cpu time 1575.06: real time 1575.97
    4ORBIT:  cpu time    0.00: real time    0.00

 total amount of memory used by VASP on root node   423148. kBytes
========================================================================

   base      :      30000. kBytes
   nonl-proj :      83196. kBytes
   fftplans  :       7336. kBytes
   grid      :      15534. kBytes
   one-center:         98. kBytes
   wavefun   :     286984. kBytes
 
  
  
 General timing and accounting informations for this job:
 ========================================================
  
                  Total CPU time used (sec):     1598.332
                            User time (sec):     1189.507
                          System time (sec):      408.825
                         Elapsed time (sec):     1599.522
  
                   Maximum memory used (kb):      533444.
                   Average memory used (kb):           0.
  
                          Minor page faults:     25852995
                          Major page faults:            3
                 Voluntary context switches:          900
