   32   32    1    1
  0.9254429E+01  0.4932875E-09  0.4932875E-09  0.1405931E-08  0.5000000E-15
  1.000000000000000E-004
  CAR 
 graphite                                
    128    163     84
 
  0.0000000E+00  0.0000000E+00  0.0000000E+00  0.3086420E-02
    1      -15.313871
    2      -15.212876
    3      -15.212552
    4      -15.106529
    5      -10.016453
    6      -10.005682
    7      -10.003346
    8       -9.977687
    9       -9.975998
   10       -9.965889
   11       -9.964333
   12       -9.964298
   13       -9.960756
   14       -9.941508
   15       -9.929224
   16       -9.926163
   17       -8.950320
   18       -8.948940
   19       -8.947285
   20       -8.926946
   21       -8.926198
   22       -8.924246
   23       -8.923587
   24       -8.923555
   25       -8.921330
   26       -8.891640
   27       -8.891224
   28       -8.889233
   29       -4.040464
   30       -3.338053
   31       -3.336707
   32       -2.499696
   33       -2.123449
   34       -2.121334
   35       -2.107651
   36       -2.105515
   37       -2.105508
   38       -2.104583
   39       -2.101763
   40       -2.089814
   41       -2.087626
   42       -2.086805
   43       -2.085232
   44       -2.070193
   45        1.266476
   46        1.271127
   47        1.271777
   48        1.275260
   49        1.283468
   50        1.286874
   51        1.287365
   52        1.291974
   53        1.622033
   54        1.625668
   55        1.627303
   56        1.917494
   57        1.920568
   58        1.927504
   59        1.927884
   60        1.928076
   61        1.932122
   62        2.143667
   63        2.159291
   64        2.161764
   65        5.784340
   66        5.787260
   67        5.791479
   68        5.938376
   69        5.940053
   70        5.942272
   71        5.944597
   72        5.944747
   73        5.946905
   74        6.343520
   75        6.350116
   76        6.352597
   77        8.232087
   78       10.521754
   79       10.524874
   80       11.528157
   81       11.533387
   82       11.565037
   83       11.668450
   84       11.675224
 
  0.1111111E+00  0.6938894E-17  0.0000000E+00  0.6172840E-02
    1      -15.240408
    2      -15.139807
    3      -15.139485
    4      -15.033982
    5      -10.790654
    6      -10.720239
    7      -10.719847
    8      -10.647443
    9      -10.256746
   10      -10.247791
   11      -10.197053
   12      -10.196069
   13      -10.187272
   14      -10.186607
   15      -10.135761
   16      -10.125951
   17       -8.633833
   18       -8.629571
   19       -8.586034
   20       -8.584034
   21       -8.580517
   22       -8.579787
   23       -8.532297
   24       -8.527555
   25       -8.115081
   26       -8.061023
   27       -8.059406
   28       -8.003068
   29       -3.951320
   30       -3.250925
   31       -3.249580
   32       -2.415349
   33       -2.348711
   34       -2.332325
   35       -2.329091
   36       -2.328396
   37       -2.313119
   38       -2.310750
   39       -2.308802
   40       -2.291936
   41       -2.049254
   42       -2.033063
   43       -2.030463
   44       -2.014015
   45        0.972017
   46        0.981361
   47        0.985039
   48        0.991652
   49        1.060322
   50        1.113030
   51        1.119005
   52        1.122512
   53        1.131450
   54        1.501156
   55        1.503539
   56        1.514625
   57        1.519452
   58        1.866120
   59        1.869084
   60        1.875611
   61        1.876774
   62        1.947407
   63        2.173730
   64        2.187533
   65        5.881575
   66        5.884734
   67        6.069634
   68        6.072724
   69        6.075235
   70        6.077518
   71        6.207908
   72        6.477349
   73        6.481258
   74        6.485148
   75        6.485623
   76        6.934979
   77        8.322630
   78       10.604161
   79       10.607249
   80       11.570201
   81       11.703800
   82       11.704983
   83       11.842141
   84       11.865193
 
  0.2222222E+00  0.1387779E-16  0.0000000E+00  0.6172840E-02
    1      -15.020229
    2      -14.921023
    3      -14.920709
    4      -14.816695
    5      -11.798997
    6      -11.719964
    7      -11.719711
    8      -11.637912
    9      -10.600116
   10      -10.594166
   11      -10.531454
   12      -10.530849
   13      -10.525188
   14      -10.524435
   15      -10.459985
   16      -10.453608
   17       -7.950973
   18       -7.943534
   19       -7.898778
   20       -7.896926
   21       -7.890499
   22       -7.889885
   23       -7.842557
   24       -7.835067
   25       -6.790843
   26       -6.740513
   27       -6.738978
   28       -6.687418
   29       -3.684795
   30       -2.990598
   31       -2.989261
   32       -2.953498
   33       -2.937561
   34       -2.928909
   35       -2.928816
   36       -2.913699
   37       -2.911661
   38       -2.903665
   39       -2.887527
   40       -2.163406
   41       -1.834391
   42       -1.818503
   43       -1.815829
   44       -1.799764
   45        0.059213
   46        0.150347
   47        0.163107
   48        0.166799
   49        0.179142
   50        0.611396
   51        0.613282
   52        0.694193
   53        0.702955
   54        0.706824
   55        0.717005
   56        1.231916
   57        1.308421
   58        1.313061
   59        1.745611
   60        1.748395
   61        1.753377
   62        1.754462
   63        2.188578
   64        2.198440
   65        6.160541
   66        6.162680
   67        6.403151
   68        6.405774
   69        6.408781
   70        6.411177
   71        6.790494
   72        6.796188
   73        7.374719
   74        7.704287
   75        7.707245
   76        8.147880
   77        8.594844
   78       10.850822
   79       10.853805
   80       11.681852
   81       11.811568
   82       11.812949
   83       11.919916
   84       12.686317
 
  0.3333333E+00  0.0000000E+00  0.0000000E+00  0.6172840E-02
    1      -14.654507
    2      -14.557560
    3      -14.557259
    4      -14.455821
    5      -12.709955
    6      -12.625110
    7      -12.624853
    8      -12.536544
    9      -10.855128
   10      -10.851467
   11      -10.783060
   12      -10.782431
   13      -10.779195
   14      -10.778228
   15      -10.707930
   16      -10.704134
   17       -7.144498
   18       -7.135471
   19       -7.096847
   20       -7.094902
   21       -7.087190
   22       -7.086281
   23       -7.045896
   24       -7.036999
   25       -5.359985
   26       -5.316864
   27       -5.315099
   28       -5.271220
   29       -3.767190
   30       -3.753204
   31       -3.738173
   32       -3.737733
   33       -3.724787
   34       -3.722705
   35       -3.707860
   36       -3.693676
   37       -3.243719
   38       -2.560083
   39       -2.558750
   40       -1.747738
   41       -1.485649
   42       -1.470378
   43       -1.467554
   44       -1.452015
   45       -1.031493
   46       -1.012018
   47       -1.008463
   48       -0.989106
   49       -0.951250
   50       -0.342715
   51       -0.341160
   52        0.132174
   53        0.143197
   54        0.146946
   55        0.158857
   56        0.363469
   57        1.127505
   58        1.130952
   59        1.622292
   60        1.625023
   61        1.628034
   62        1.629014
   63        2.162178
   64        2.168240
   65        6.537918
   66        6.541245
   67        6.793689
   68        6.795603
   69        6.798276
   70        6.801192
   71        7.114915
   72        7.118578
   73        8.884018
   74        9.048341
   75        9.182052
   76        9.184454
   77        9.569365
   78       11.253034
   79       11.255801
   80       11.429716
   81       11.904395
   82       11.972579
   83       11.974308
   84       12.190724
 
  0.4444444E+00  0.2775558E-16  0.0000000E+00  0.6172840E-02
    1      -14.145129
    2      -14.051386
    3      -14.051106
    4      -13.953143
    5      -13.495199
    6      -13.405471
    7      -13.405191
    8      -13.311680
    9      -10.986463
   10      -10.984503
   11      -10.913504
   12      -10.912469
   13      -10.911409
   14      -10.909958
   15      -10.836777
   16      -10.834781
   17       -6.399220
   18       -6.392474
   19       -6.365479
   20       -6.363318
   21       -6.358703
   22       -6.356482
   23       -6.329231
   24       -6.322928
   25       -4.518329
   26       -4.510524
   27       -4.494535
   28       -4.492821
   29       -4.486651
   30       -4.484268
   31       -4.466778
   32       -4.458410
   33       -3.882389
   34       -3.847330
   35       -3.845202
   36       -3.809461
   37       -2.633179
   38       -2.413800
   39       -2.386887
   40       -2.384211
   41       -2.356473
   42       -1.965488
   43       -1.964073
   44       -1.862861
   45       -1.218893
   46       -1.217502
   47       -1.175884
   48       -1.019408
   49       -1.005096
   50       -1.002065
   51       -0.987600
   52       -0.464368
   53       -0.462475
   54       -0.451482
   55       -0.447999
   56       -0.434472
   57        1.026678
   58        1.028841
   59        1.548214
   60        1.551247
   61        1.552294
   62        1.553325
   63        2.134449
   64        2.137395
   65        6.828722
   66        6.831480
   67        7.060811
   68        7.061747
   69        7.062940
   70        7.066935
   71        7.304162
   72        7.306859
   73        9.682155
   74       10.486026
   75       10.500685
   76       10.715877
   77       10.719348
   78       11.043479
   79       11.716587
   80       11.722659
   81       12.076552
   82       12.121695
   83       12.123643
   84       12.126612
 
  0.0000000E+00  0.1111111E+00  0.0000000E+00  0.6172840E-02
    1      -15.240406
    2      -15.139806
    3      -15.139483
    4      -15.033981
    5      -10.790757
    6      -10.720275
    7      -10.720044
    8      -10.647574
    9      -10.256745
   10      -10.247477
   11      -10.197000
   12      -10.196070
   13      -10.187267
   14      -10.185947
   15      -10.135736
   16      -10.125586
   17       -8.634157
   18       -8.630587
   19       -8.586042
   20       -8.585422
   21       -8.580766
   22       -8.580484
   23       -8.532550
   24       -8.528323
   25       -8.114107
   26       -8.059432
   27       -8.059137
   28       -8.002174
   29       -3.951324
   30       -3.250930
   31       -3.249585
   32       -2.415355
   33       -2.347596
   34       -2.331636
   35       -2.329088
   36       -2.326589
   37       -2.312946
   38       -2.310750
   39       -2.307826
   40       -2.292012
   41       -2.050226
   42       -2.033068
   43       -2.032781
   44       -2.015478
   45        0.976992
   46        0.984936
   47        0.985047
   48        0.992889
   49        1.059606
   50        1.111781
   51        1.118992
   52        1.119040
   53        1.126193
   54        1.500722
   55        1.502030
   56        1.514822
   57        1.520347
   58        1.866481
   59        1.869055
   60        1.875780
   61        1.878695
   62        1.946257
   63        2.173827
   64        2.188820
   65        5.879775
   66        5.884416
   67        6.069403
   68        6.071205
   69        6.074401
   70        6.076055
   71        6.209843
   72        6.476982
   73        6.482438
   74        6.485041
   75        6.486354
   76        6.936578
   77        8.322626
   78       10.604146
   79       10.607234
   80       11.569591
   81       11.703545
   82       11.703943
   83       11.841380
   84       11.866809
 
  0.1111111E+00  0.1111111E+00  0.0000000E+00  0.6172840E-02
    1      -15.093404
    2      -14.993783
    3      -14.993467
    4      -14.888944
    5      -11.254531
    6      -11.251656
    7      -11.180735
    8      -11.178045
    9      -11.178020
   10      -11.174942
   11      -11.101682
   12      -11.098730
   13       -9.827622
   14       -9.789328
   15       -9.788100
   16       -9.754318
   17       -8.764988
   18       -8.743336
   19       -8.740104
   20       -8.710028
   21       -7.432454
   22       -7.429242
   23       -7.380874
   24       -7.377168
   25       -7.377146
   26       -7.374663
   27       -7.323769
   28       -7.320701
   29       -3.773365
   30       -3.077096
   31       -3.075754
   32       -3.012436
   33       -2.988768
   34       -2.986745
   35       -2.962417
   36       -2.246972
   37       -2.204123
   38       -2.201915
   39       -2.185386
   40       -2.184169
   41       -2.184162
   42       -2.180394
   43       -2.165255
   44       -2.162169
   45        0.443327
   46        0.452604
   47        0.456264
   48        0.462742
   49        0.635685
   50        0.637449
   51        0.798194
   52        0.803164
   53        0.806614
   54        0.815659
   55        1.140913
   56        1.142582
   57        1.142620
   58        1.145968
   59        1.689688
   60        1.692083
   61        1.889356
   62        2.184110
   63        2.186778
   64        2.406548
   65        5.762781
   66        5.865169
   67        5.869513
   68        6.192466
   69        6.713454
   70        6.716170
   71        7.023266
   72        7.027317
   73        7.027503
   74        7.028919
   75        7.464650
   76        7.467142
   77        8.504299
   78       10.769436
   79       10.772459
   80       11.940228
   81       11.944011
   82       12.074315
   83       12.078613
   84       12.082675
 
  0.2222222E+00  0.1111111E+00  0.0000000E+00  0.6172840E-02
    1      -14.800395
    2      -14.702555
    3      -14.702250
    4      -14.599781
    5      -12.217705
    6      -12.136003
    7      -12.135751
    8      -12.050992
    9      -11.594476
   10      -11.516986
   11      -11.516657
   12      -11.436208
   13       -9.871844
   14       -9.814204
   15       -9.813605
   16       -9.755766
   17       -8.287822
   18       -8.243829
   19       -8.241143
   20       -8.193767
   21       -6.647977
   22       -6.599544
   23       -6.599083
   24       -6.549457
   25       -6.051729
   26       -6.005453
   27       -6.003917
   28       -5.956799
   29       -3.918417
   30       -3.888740
   31       -3.886773
   32       -3.856362
   33       -3.419395
   34       -2.731497
   35       -2.730239
   36       -2.728674
   37       -2.705268
   38       -2.705094
   39       -2.681059
   40       -1.916305
   41       -1.913010
   42       -1.898824
   43       -1.896204
   44       -1.878433
   45       -0.507556
   46       -0.494167
   47       -0.489832
   48       -0.477561
   49       -0.391832
   50        0.190737
   51        0.192285
   52        0.255543
   53        0.263744
   54        0.267852
   55        0.278156
   56        0.308569
   57        0.853719
   58        0.855037
   59        0.859263
   60        1.467733
   61        2.034791
   62        2.386854
   63        2.389422
   64        2.693622
   65        5.755014
   66        5.872554
   67        5.876664
   68        6.148291
   69        7.297447
   70        7.596393
   71        7.597944
   72        7.971168
   73        8.082626
   74        8.395170
   75        8.397724
   76        8.794911
   77        8.868556
   78       11.098399
   79       11.101271
   80       11.970037
   81       12.163936
   82       12.212090
   83       12.213452
   84       12.480054
 
  0.3333333E+00  0.1111111E+00  0.0000000E+00  0.6172840E-02
    1      -14.362728
    2      -14.267603
    3      -14.267316
    4      -14.167862
    5      -13.066302
    6      -12.979248
    7      -12.978977
    8      -12.888390
    9      -11.802940
   10      -11.723952
   11      -11.723612
   12      -11.641673
   13      -10.012953
   14       -9.947869
   15       -9.947650
   16       -9.881029
   17       -7.521847
   18       -7.477980
   19       -7.475459
   20       -7.430471
   21       -5.851469
   22       -5.812031
   23       -5.810883
   24       -5.770902
   25       -4.856312
   26       -4.825000
   27       -4.822859
   28       -4.790587
   29       -4.605130
   30       -4.566757
   31       -4.564997
   32       -4.525871
   33       -3.427367
   34       -3.401882
   35       -3.400930
   36       -3.374534
   37       -2.893202
   38       -2.218677
   39       -2.217375
   40       -1.749176
   41       -1.727671
   42       -1.724077
   43       -1.703140
   44       -1.500412
   45       -1.483833
   46       -1.481113
   47       -1.464327
   48       -1.418744
   49       -1.359981
   50       -0.733454
   51       -0.732022
   52       -0.367421
   53       -0.355462
   54       -0.351379
   55       -0.338397
   56       -0.001711
   57        0.101800
   58        0.669800
   59        0.671087
   60        1.318628
   61        2.046379
   62        2.477893
   63        2.480059
   64        2.919752
   65        5.793040
   66        5.990513
   67        5.993951
   68        6.248230
   69        7.801397
   70        8.050722
   71        8.052557
   72        8.325370
   73        9.413076
   74        9.642965
   75        9.900552
   76        9.903017
   77       10.233678
   78       11.026774
   79       11.571362
   80       11.574177
   81       12.327501
   82       12.363935
   83       12.365839
   84       12.582379
 
  0.4444444E+00  0.1111111E+00  0.0000000E+00  0.6172840E-02
    1      -13.784923
    2      -13.782058
    3      -13.694516
    4      -13.692352
    5      -13.691383
    6      -13.688998
    7      -13.597589
    8      -13.594673
    9      -11.873556
   10      -11.793980
   11      -11.793632
   12      -11.711159
   13      -10.067097
   14      -10.000732
   15      -10.000522
   16       -9.932251
   17       -7.018227
   18       -6.991016
   19       -6.988676
   20       -6.962449
   21       -5.385910
   22       -5.384102
   23       -5.369027
   24       -5.366917
   25       -5.362252
   26       -5.359333
   27       -5.346577
   28       -5.337979
   29       -3.848246
   30       -3.833171
   31       -3.830456
   32       -3.813245
   33       -3.150499
   34       -3.146281
   35       -3.121304
   36       -3.116865
   37       -3.115115
   38       -3.114896
   39       -3.086919
   40       -3.083605
   41       -2.203634
   42       -2.201234
   43       -1.549046
   44       -1.547236
   45       -1.546415
   46       -1.543672
   47       -0.974807
   48       -0.970933
   49       -0.959066
   50       -0.958677
   51       -0.956497
   52       -0.950915
   53       -0.942070
   54       -0.933989
   55       -0.776404
   56       -0.773714
   57        0.031089
   58        0.605977
   59        0.607328
   60        1.265782
   61        2.040188
   62        2.501771
   63        2.503480
   64        2.999882
   65        5.824222
   66        6.057418
   67        6.060000
   68        6.304248
   69        8.015416
   70        8.227712
   71        8.229993
   72        8.442521
   73       10.135040
   74       10.136617
   75       11.221869
   76       11.225353
   77       11.374530
   78       11.380448
   79       11.381542
   80       11.385549
   81       11.666572
   82       11.669950
   83       12.219171
   84       12.225690
 
 -0.4444444E+00  0.1111111E+00  0.0000000E+00  0.6172840E-02
    1      -14.363472
    2      -14.268354
    3      -14.268058
    4      -14.168658
    5      -13.065120
    6      -12.978069
    7      -12.977807
    8      -12.887197
    9      -11.804708
   10      -11.725667
   11      -11.725322
   12      -11.643457
   13      -10.009999
   14       -9.944800
   15       -9.944558
   16       -9.877804
   17       -7.515182
   18       -7.470520
   19       -7.469669
   20       -7.423930
   21       -5.861339
   22       -5.822420
   23       -5.819826
   24       -5.780299
   25       -4.866889
   26       -4.834955
   27       -4.834432
   28       -4.801501
   29       -4.607668
   30       -4.569478
   31       -4.567377
   32       -4.528385
   33       -3.414586
   34       -3.389787
   35       -3.387120
   36       -3.361426
   37       -2.894038
   38       -2.219475
   39       -2.218189
   40       -1.747642
   41       -1.725766
   42       -1.723464
   43       -1.702025
   44       -1.497847
   45       -1.481557
   46       -1.478425
   47       -1.461750
   48       -1.419535
   49       -1.358784
   50       -0.732316
   51       -0.730827
   52       -0.368789
   53       -0.356447
   54       -0.353605
   55       -0.340797
   56       -0.000570
   57        0.099977
   58        0.667637
   59        0.669083
   60        1.316080
   61        2.048335
   62        2.481884
   63        2.483270
   64        2.926267
   65        5.792397
   66        5.992369
   67        5.994202
   68        6.248884
   69        7.797374
   70        8.046691
   71        8.049428
   72        8.323333
   73        9.412005
   74        9.642700
   75        9.899439
   76        9.902256
   77       10.232208
   78       11.028407
   79       11.570459
   80       11.573262
   81       12.324849
   82       12.361732
   83       12.364304
   84       12.579747
 
 -0.3333333E+00  0.1111111E+00  0.0000000E+00  0.6172840E-02
    1      -14.800926
    2      -14.703086
    3      -14.702775
    4      -14.600306
    5      -12.216312
    6      -12.134608
    7      -12.134360
    8      -12.049599
    9      -11.598170
   10      -11.520583
   11      -11.520262
   12      -11.439829
   13       -9.865227
   14       -9.806986
   15       -9.806745
   16       -9.748238
   17       -8.283311
   18       -8.237850
   19       -8.237501
   20       -8.188734
   21       -6.657903
   22       -6.610200
   23       -6.608066
   24       -6.559199
   25       -6.054209
   26       -6.008035
   27       -6.006310
   28       -5.959295
   29       -3.932232
   30       -3.901713
   31       -3.901599
   32       -3.870322
   33       -3.419982
   34       -2.732061
   35       -2.730737
   36       -2.712739
   37       -2.690178
   38       -2.687839
   39       -2.664793
   40       -1.914391
   41       -1.913573
   42       -1.896987
   43       -1.894176
   44       -1.876475
   45       -0.508051
   46       -0.494788
   47       -0.492770
   48       -0.479746
   49       -0.390516
   50        0.191958
   51        0.193589
   52        0.257687
   53        0.266407
   54        0.268450
   55        0.277568
   56        0.305041
   57        0.849762
   58        0.851330
   59        0.859848
   60        1.462573
   61        2.037787
   62        2.394187
   63        2.395472
   64        2.705969
   65        5.751837
   66        5.875491
   67        5.876974
   68        6.151626
   69        7.292678
   70        7.590105
   71        7.593200
   72        7.966548
   73        8.081907
   74        8.393755
   75        8.396696
   76        8.793249
   77        8.867769
   78       11.097595
   79       11.100463
   80       11.970308
   81       12.163043
   82       12.209997
   83       12.211847
   84       12.478284
 
 -0.2222222E+00  0.1111111E+00  0.0000000E+00  0.6172840E-02
    1      -15.093726
    2      -14.994109
    3      -14.993787
    4      -14.889269
    5      -11.258498
    6      -11.251455
    7      -11.183595
    8      -11.183334
    9      -11.176507
   10      -11.176226
   11      -11.105866
   12      -11.098710
   13       -9.816413
   14       -9.776785
   15       -9.776577
   16       -9.741415
   17       -8.764750
   18       -8.741167
   19       -8.740965
   20       -8.708986
   21       -7.438495
   22       -7.433443
   23       -7.386145
   24       -7.384157
   25       -7.380894
   26       -7.379324
   27       -7.330018
   28       -7.325029
   29       -3.773724
   30       -3.077449
   31       -3.076111
   32       -3.027949
   33       -3.003476
   34       -3.003254
   35       -2.978088
   36       -2.247331
   37       -2.201139
   38       -2.186304
   39       -2.182976
   40       -2.180347
   41       -2.167951
   42       -2.165695
   43       -2.162024
   44       -2.147268
   45        0.438082
   46        0.446297
   47        0.446383
   48        0.454275
   49        0.631317
   50        0.638180
   51        0.806960
   52        0.813017
   53        0.813109
   54        0.819636
   55        1.135675
   56        1.137447
   57        1.143524
   58        1.145700
   59        1.682489
   60        1.692291
   61        1.892722
   62        2.193301
   63        2.194623
   64        2.422197
   65        5.758036
   66        5.868820
   67        5.870287
   68        6.198584
   69        6.712343
   70        6.713275
   71        7.019965
   72        7.023214
   73        7.023429
   74        7.026576
   75        7.460428
   76        7.463536
   77        8.503815
   78       10.768914
   79       10.771936
   80       11.941241
   81       11.974495
   82       12.076311
   83       12.083295
   84       12.109931
 
 -0.1111111E+00  0.1111111E+00  0.0000000E+00  0.6172840E-02
    1      -15.240512
    2      -15.139912
    3      -15.139587
    4      -15.034085
    5      -10.798344
    6      -10.727978
    7      -10.727762
    8      -10.655425
    9      -10.247352
   10      -10.245291
   11      -10.187612
   12      -10.185927
   13      -10.185898
   14      -10.183213
   15      -10.125721
   16      -10.123377
   17       -8.632824
   18       -8.630884
   19       -8.584915
   20       -8.582187
   21       -8.582165
   22       -8.581330
   23       -8.530731
   24       -8.529052
   25       -8.119917
   26       -8.066209
   27       -8.064119
   28       -8.008031
   29       -3.951443
   30       -3.251047
   31       -3.249704
   32       -2.415473
   33       -2.348748
   34       -2.346763
   35       -2.329632
   36       -2.328696
   37       -2.328689
   38       -2.325092
   39       -2.309438
   40       -2.306635
   41       -2.033063
   42       -2.016690
   43       -2.014504
   44       -1.998023
   45        0.966084
   46        0.972907
   47        0.976527
   48        0.985547
   49        1.053888
   50        1.118825
   51        1.127721
   52        1.131168
   53        1.137046
   54        1.492690
   55        1.494836
   56        1.519646
   57        1.521430
   58        1.875429
   59        1.876288
   60        1.876477
   61        1.880365
   62        1.935396
   63        2.187125
   64        2.189599
   65        5.879214
   66        5.882254
   67        6.070185
   68        6.075026
   69        6.075183
   70        6.076250
   71        6.209219
   72        6.478406
   73        6.481391
   74        6.482359
   75        6.484803
   76        6.929909
   77        8.322462
   78       10.603965
   79       10.607053
   80       11.603011
   81       11.737624
   82       11.738494
   83       11.866693
   84       11.872769
 
 -0.1355253E-19  0.2222222E+00  0.0000000E+00  0.6172840E-02
    1      -15.020222
    2      -14.921019
    3      -14.920699
    4      -14.816688
    5      -11.798979
    6      -11.719956
    7      -11.719687
    8      -11.637898
    9      -10.600285
   10      -10.593965
   11      -10.531865
   12      -10.530858
   13      -10.525183
   14      -10.523805
   15      -10.460078
   16      -10.453337
   17       -7.951330
   18       -7.944400
   19       -7.898786
   20       -7.898105
   21       -7.890802
   22       -7.890468
   23       -7.842788
   24       -7.835702
   25       -6.789941
   26       -6.739004
   27       -6.738741
   28       -6.686570
   29       -3.684813
   30       -2.990616
   31       -2.989282
   32       -2.952423
   33       -2.937378
   34       -2.928887
   35       -2.926606
   36       -2.913580
   37       -2.911660
   38       -2.902406
   39       -2.887485
   40       -2.163432
   41       -1.835415
   42       -1.818508
   43       -1.818271
   44       -1.801321
   45        0.058790
   46        0.153382
   47        0.166800
   48        0.167088
   49        0.180718
   50        0.611138
   51        0.612439
   52        0.692825
   53        0.702948
   54        0.703085
   55        0.713035
   56        1.231207
   57        1.308511
   58        1.313926
   59        1.745964
   60        1.748354
   61        1.753522
   62        1.756242
   63        2.188739
   64        2.199598
   65        6.159343
   66        6.161809
   67        6.402668
   68        6.403962
   69        6.408514
   70        6.409718
   71        6.789792
   72        6.794850
   73        7.376183
   74        7.706319
   75        7.707765
   76        8.149094
   77        8.594832
   78       10.850769
   79       10.853752
   80       11.681213
   81       11.811379
   82       11.811825
   83       11.919262
   84       12.665340
 
  0.1111111E+00  0.2222222E+00  0.0000000E+00  0.6172840E-02
    1      -14.800390
    2      -14.702552
    3      -14.702242
    4      -14.599775
    5      -12.217666
    6      -12.135983
    7      -12.135694
    8      -12.050954
    9      -11.594504
   10      -11.516995
   11      -11.516702
   12      -11.436233
   13       -9.871834
   14       -9.814185
   15       -9.813604
   16       -9.755756
   17       -8.287884
   18       -8.243829
   19       -8.241298
   20       -8.193863
   21       -6.648964
   22       -6.601021
   23       -6.599531
   24       -6.550400
   25       -6.050743
   26       -6.003931
   27       -6.003522
   28       -5.955862
   29       -3.918324
   30       -3.888590
   31       -3.886772
   32       -3.856299
   33       -3.419409
   34       -2.731505
   35       -2.730198
   36       -2.727599
   37       -2.705100
   38       -2.702751
   39       -2.679643
   40       -1.917432
   41       -1.913030
   42       -1.898852
   43       -1.898788
   44       -1.880019
   45       -0.505583
   46       -0.492491
   47       -0.489830
   48       -0.477043
   49       -0.392192