 running on    6 total cores
 distrk:  each k-point on    6 cores,    1 groups
 distr:  one band on    1 cores,    6 groups
 using from now: INCAR     
 vasp.5.3.5 31Mar14 (build Nov 04 2014 22:34:45) complex                        
  
 POSCAR found :  1 types and      32 ions
 scaLAPACK will be used

 ----------------------------------------------------------------------------- 
|                                                                             |
|           W    W    AA    RRRRR   N    N  II  N    N   GGGG   !!!           |
|           W    W   A  A   R    R  NN   N  II  NN   N  G    G  !!!           |
|           W    W  A    A  R    R  N N  N  II  N N  N  G       !!!           |
|           W WW W  AAAAAA  RRRRR   N  N N  II  N  N N  G  GGG   !            |
|           WW  WW  A    A  R   R   N   NN  II  N   NN  G    G                |
|           W    W  A    A  R    R  N    N  II  N    N   GGGG   !!!           |
|                                                                             |
|      For optimal performance we recommend to set                            |
|        NCORE= 4 - approx SQRT( number of cores)                             |
|      NCORE specifies how many cores store one orbital (NPAR=cpu/NCORE).     |
|      This setting can  greatly improve the performance of VASP for DFT.     |
|      The default, NPAR=number of cores might be grossly inefficient         |
|      on modern multi-core architectures or massively parallel machines.     |
|      Do your own testing !!!!                                               |
|      Unfortunately you need to use the default for GW and RPA calculations. |
|      (for HF NCORE is supported but not extensively tested yet)             |
|                                                                             |
 ----------------------------------------------------------------------------- 


 ----------------------------------------------------------------------------- 
|                                                                             |
|  ADVICE TO THIS USER RUNNING 'VASP/VAMP'   (HEAR YOUR MASTER'S VOICE ...):  |
|                                                                             |
|      You have a (more or less) 'large supercell' and for larger cells       |
|      it might be more efficient to use real space projection operators      |
|      So try LREAL= Auto  in the INCAR   file.                               |
|      Mind: If you want to do a very accurate calculations keep the          |
|      reciprocal projection scheme          (i.e. LREAL=.FALSE.)             |
|                                                                             |
 ----------------------------------------------------------------------------- 

 LDA part: xc-table for Pade appr. of Perdew
 POSCAR, INCAR and KPOINTS ok, starting setup
 WARNING: small aliasing (wrap around) errors must be expected
 FFT: planning ...
 WAVECAR not read
 WARNING: random wavefunctions but no delay for mixing, default for NELMDL
 entering main loop
       N       E                     dE             d eps       ncg     rms          rms(c)
DAV:   1     0.611585873149E+03    0.61159E+03   -0.71173E+04 27396   0.159E+03
DAV:   2    -0.261027294360E+03   -0.87261E+03   -0.84169E+03 34296   0.312E+02
DAV:   3    -0.313117853374E+03   -0.52091E+02   -0.51617E+02 33384   0.769E+01
DAV:   4    -0.314131666375E+03   -0.10138E+01   -0.10119E+01 35340   0.117E+01
DAV:   5    -0.314161007354E+03   -0.29341E-01   -0.29328E-01 35244   0.183E+00    0.221E+01
DAV:   6    -0.299520867246E+03    0.14640E+02   -0.15045E+01 31296   0.107E+01    0.116E+01
DAV:   7    -0.294821603486E+03    0.46993E+01   -0.16093E+01 30816   0.111E+01    0.197E+00
DAV:   8    -0.294895641603E+03   -0.74038E-01   -0.50230E-01 31260   0.206E+00    0.466E-01
DAV:   9    -0.294897028984E+03   -0.13874E-02   -0.35246E-02 31860   0.650E-01    0.237E-01
DAV:  10    -0.294894914304E+03    0.21147E-02   -0.92570E-03 41076   0.360E-01    0.105E-01
DAV:  11    -0.294895821744E+03   -0.90744E-03   -0.57243E-03 31176   0.194E-01    0.107E-01
DAV:  12    -0.294895993668E+03   -0.17192E-03   -0.32433E-03 31272   0.120E-01    0.736E-02
DAV:  13    -0.294896281679E+03   -0.28801E-03   -0.20042E-03 31488   0.981E-02    0.820E-02
DAV:  14    -0.294896321623E+03   -0.39943E-04   -0.37659E-03 40584   0.113E-01    0.776E-02
DAV:  15    -0.294896224487E+03    0.97136E-04   -0.48026E-04 31860   0.477E-02    0.265E-02
DAV:  16    -0.294896256655E+03   -0.32168E-04   -0.16036E-04 31800   0.244E-02    0.525E-02
DAV:  17    -0.294896238304E+03    0.18350E-04   -0.11283E-03 29004   0.533E-02    0.363E-02
DAV:  18    -0.294896217469E+03    0.20835E-04   -0.13865E-04 27276   0.221E-02    0.814E-03
DAV:  19    -0.294896223373E+03   -0.59037E-05   -0.10479E-04 25320   0.194E-02    0.200E-02
DAV:  20    -0.294896217500E+03    0.58728E-05   -0.50196E-05 27468   0.128E-02    0.613E-03
DAV:  21    -0.294896216667E+03    0.83331E-06   -0.71288E-06 19548   0.581E-03
   1 F= -.29962669E+03 E0= -.29962669E+03  d E =0.000000E+00
