   32   32    1    1
  0.8817899E+01  0.4932875E-09  0.4932875E-09  0.1339614E-08  0.5000000E-15
  1.000000000000000E-004
  CAR 
 graphite                                
    128    163     82
 
  0.0000000E+00  0.0000000E+00  0.0000000E+00  0.3086420E-02
    1      -14.940306
    2      -14.793586
    3      -14.793136
    4      -14.636099
    5       -9.615171
    6       -9.606840
    7       -9.604276
    8       -9.554167
    9       -9.553658
   10       -9.545925
   11       -9.542436
   12       -9.542383
   13       -9.540228
   14       -9.503009
   15       -9.492324
   16       -9.489137
   17       -8.538810
   18       -8.535334
   19       -8.533296
   20       -8.507954
   21       -8.504406
   22       -8.502290
   23       -8.501829
   24       -8.501759
   25       -8.498017
   26       -8.453818
   27       -8.449058
   28       -8.446982
   29       -3.814903
   30       -2.921442
   31       -2.919756
   32       -1.831794
   33       -1.711270
   34       -1.708536
   35       -1.689408
   36       -1.684503
   37       -1.680685
   38       -1.680678
   39       -1.679698
   40       -1.662001
   41       -1.659746
   42       -1.653912
   43       -1.651500
   44       -1.632162
   45        1.680301
   46        1.691634
   47        1.696377
   48        1.703948
   49        1.704895
   50        1.712479
   51        1.716680
   52        1.727623
   53        1.927634
   54        1.928700
   55        1.930018
   56        2.334895
   57        2.337211
   58        2.339141
   59        2.342989
   60        2.343377
   61        2.344982
   62        2.611211
   63        2.625041
   64        2.627792
   65        6.207558
   66        6.210608
   67        6.211608
   68        6.341769
   69        6.347019
   70        6.351772
   71        6.352612
   72        6.352846
   73        6.358043
   74        6.876152
   75        6.889477
   76        6.891874
   77        9.012200
   78       11.661257
   79       11.665578
   80       11.892652
   81       12.070722
   82       12.090118
 
  0.1111111E+00 -0.1387779E-16  0.0000000E+00  0.6172840E-02
    1      -14.866637
    2      -14.720468
    3      -14.720020
    4      -14.563724
    5      -10.403940
    6      -10.299265
    7      -10.298726
    8      -10.189892
    9       -9.864741
   10       -9.856518
   11       -9.774490
   12       -9.774241
   13       -9.765585
   14       -9.765097
   15       -9.683317
   16       -9.673961
   17       -8.237399
   18       -8.230962
   19       -8.166889
   20       -8.164060
   21       -8.158699
   22       -8.158493
   23       -8.085152
   24       -8.078143
   25       -7.718608
   26       -7.637157
   27       -7.635337
   28       -7.549488
   29       -3.725431
   30       -2.834368
   31       -2.832685
   32       -1.936049
   33       -1.916606
   34       -1.904735
   35       -1.904450
   36       -1.886141
   37       -1.883812
   38       -1.872709
   39       -1.853085
   40       -1.748188
   41       -1.637961
   42       -1.611038
   43       -1.608347
   44       -1.581420
   45        1.334478
   46        1.398390
   47        1.410094
   48        1.414196
   49        1.426889
   50        1.527922
   51        1.539701
   52        1.544156
   53        1.554582
   54        1.810547
   55        1.812690
   56        1.913734
   57        1.916339
   58        2.283439
   59        2.285523
   60        2.290052
   61        2.292264
   62        2.484672
   63        2.667153
   64        2.680395
   65        6.281515
   66        6.283895
   67        6.473249
   68        6.478399
   69        6.483407
   70        6.484961
   71        6.571710
   72        6.893392
   73        6.897182
   74        7.012082
   75        7.023653
   76        7.490907
   77        9.100889
   78       11.737417
   79       11.741856
   80       11.930465
   81       12.224644
   82       12.286713
 
  0.2222222E+00 -0.2775558E-16  0.0000000E+00  0.6172840E-02
    1      -14.645849
    2      -14.501557
    3      -14.501117
    4      -14.346957
    5      -11.415864
    6      -11.299135
    7      -11.298768
    8      -11.176150
    9      -10.212397
   10      -10.206677
   11      -10.109952
   12      -10.109305
   13      -10.103689
   14      -10.103177
   15      -10.002460
   16       -9.996340
   17       -7.557339
   18       -7.548088
   19       -7.478848
   20       -7.476403
   21       -7.468345
   22       -7.468111
   23       -7.393572
   24       -7.384236
   25       -6.392657
   26       -6.316441
   27       -6.314763
   28       -6.235590
   29       -3.457889
   30       -2.574243
   31       -2.572561
   32       -2.543294
   33       -2.524992
   34       -2.504910
   35       -2.504723
   36       -2.487540
   37       -2.485161
   38       -2.465134
   39       -2.446669
   40       -1.498581
   41       -1.422827
   42       -1.396612
   43       -1.393776
   44       -1.367449
   45        0.312858
   46        0.571376
   47        0.591567
   48        0.595659
   49        0.616434
   50        1.024642
   51        1.026640
   52        1.107714
   53        1.123323
   54        1.127939
   55        1.142872
   56        1.587302
   57        1.590209
   58        1.832865
   59        2.162359
   60        2.163880
   61        2.167629
   62        2.169976
   63        2.729887
   64        2.739019
   65        6.521536
   66        6.525479
   67        6.808089
   68        6.813020
   69        6.817816
   70        6.819334
   71        7.320574
   72        7.328576
   73        7.696229
   74        8.116121
   75        8.119072
   76        8.702410
   77        9.367680
   78       11.964659
   79       11.968694
   80       12.047712
   81       12.232968
   82       12.314900
 
  0.3333333E+00  0.2775558E-16  0.0000000E+00  0.6172840E-02
    1      -14.279105
    2      -14.137921
    3      -14.137493
    4      -13.986890
    5      -12.329345
    6      -12.204669
    7      -12.204301
    8      -12.072239
    9      -10.468988
   10      -10.465364
   11      -10.362035
   12      -10.361032
   13      -10.357821
   14      -10.357156
   15      -10.249001
   16      -10.245218
   17       -6.748977
   18       -6.738256
   19       -6.676787
   20       -6.674215
   21       -6.665007
   22       -6.664557
   23       -6.599261
   24       -6.588745
   25       -4.958077
   26       -4.892139
   27       -4.890267
   28       -4.822167
   29       -3.359169
   30       -3.343270
   31       -3.314068
   32       -3.313782
   33       -3.299041
   34       -3.296533
   35       -3.266868
   36       -3.250688
   37       -3.014837
   38       -2.144212
   39       -2.142549
   40       -1.087041
   41       -1.073792
   42       -1.048793
   43       -1.045731
   44       -1.020202
   45       -0.709726
   46       -0.615072
   47       -0.583944
   48       -0.580353
   49       -0.548961
   50        0.071203
   51        0.072987
   52        0.544932
   53        0.563990
   54        0.568171
   55        0.587185
   56        0.993024
   57        1.394445
   58        1.397022
   59        2.038519
   60        2.039534
   61        2.042092
   62        2.044794
   63        2.740190
   64        2.745774
   65        6.874561
   66        6.879817
   67        7.200151
   68        7.204906
   69        7.208424
   70        7.209888
   71        7.627122
   72        7.631691
   73        9.201967
   74        9.594153
   75        9.596628
   76        9.812818
   77       10.108576
   78       12.069343
   79       12.314989
   80       12.318146
   81       12.375427
   82       12.400755
 
  0.4444444E+00 -0.5551115E-16  0.0000000E+00  0.6172840E-02
    1      -13.768373
    2      -13.631510
    3      -13.631093
    4      -13.485415
    5      -13.116718
    6      -12.985333
    7      -12.984952
    8      -12.845468
    9      -10.601025
   10      -10.599007
   11      -10.492669
   12      -10.491125
   13      -10.490075
   14      -10.488960
   15      -10.377182
   16      -10.375094
   17       -5.997523
   18       -5.989515
   19       -5.945682
   20       -5.942388
   21       -5.936990
   22       -5.935626
   23       -5.890789
   24       -5.883812
   25       -4.105969
   26       -4.097304
   27       -4.069589
   28       -4.068138
   29       -4.061033
   30       -4.058063
   31       -4.027040
   32       -4.017325
   33       -3.476136
   34       -3.421824
   35       -3.419545
   36       -3.363523
   37       -2.401416
   38       -2.002668
   39       -1.960486
   40       -1.957717
   41       -1.913507
   42       -1.627087
   43       -1.549758
   44       -1.547978
   45       -0.804294
   46       -0.802567
   47       -0.607642
   48       -0.583789
   49       -0.580386
   50       -0.556376
   51       -0.521457
   52       -0.052166
   53       -0.030201
   54       -0.026551
   55       -0.004489
   56        0.182436
   57        1.287940
   58        1.289916
   59        1.964077
   60        1.965186
   61        1.966180
   62        1.969511
   63        2.729898
   64        2.732842
   65        7.158825
   66        7.162376
   67        7.468100
   68        7.473043
   69        7.474220
   70        7.475409
   71        7.796415
   72        7.799336
   73       10.433027
   74       10.827081
   75       11.132875
   76       11.135937
   77       11.220374
   78       11.562352
   79       12.424474
   80       12.476267
   81       12.511547
   82       12.597648
 
 -0.6776264E-20  0.1111111E+00  0.0000000E+00  0.6172840E-02
    1      -14.866639
    2      -14.720470
    3      -14.720021
    4      -14.563726
    5      -10.403866
    6      -10.299111
    7      -10.298705
    8      -10.189788
    9       -9.864754
   10       -9.856780
   11       -9.774506
   12       -9.774220
   13       -9.765833
   14       -9.765470
   15       -9.683269
   16       -9.674383
   17       -8.237506
   18       -8.229717
   19       -8.167192
   20       -8.164060
   21       -8.158629
   22       -8.155883
   23       -8.085263
   24       -8.076778
   25       -7.719552
   26       -7.637339
   27       -7.637070
   28       -7.550461
   29       -3.725427
   30       -2.834363
   31       -2.832680
   32       -1.937345
   33       -1.916533
   34       -1.907122
   35       -1.904457
   36       -1.886141
   37       -1.883915
   38       -1.873979
   39       -1.853241
   40       -1.748181
   41       -1.636510
   42       -1.608462
   43       -1.608330
   44       -1.580238
   45        1.335169
   46        1.396275
   47        1.408862
   48        1.410096
   49        1.422609
   50        1.532439
   51        1.544153
   52        1.545000
   53        1.556708
   54        1.810232
   55        1.811977
   56        1.915169
   57        1.916842
   58        2.283268
   59        2.285617
   60        2.288716
   61        2.291175
   62        2.485930
   63        2.667218
   64        2.678887
   65        6.282757
   66        6.284805
   67        6.473604
   68        6.478371
   69        6.483954
   70        6.488252
   71        6.569727
   72        6.892580
   73        6.894419
   74        7.012207
   75        7.025619
   76        7.489246
   77        9.100895
   78       11.737446
   79       11.741595
   80       11.930909
   81       12.128785
   82       12.246781
 
  0.1111111E+00  0.1111111E+00  0.0000000E+00  0.6172840E-02
    1      -14.719302
    2      -14.574365
    3      -14.573923
    4      -14.419039
    5      -10.869709
    6      -10.866686
    7      -10.760069
    8      -10.756812
    9      -10.756784
   10      -10.753980
   11      -10.641654
   12      -10.638566
   13       -9.425867
   14       -9.366157
   15       -9.364859
   16       -9.315732
   17       -8.354043
   18       -8.324804
   19       -8.321527
   20       -8.273171
   21       -7.036253
   22       -7.033080
   23       -6.957325
   24       -6.954751
   25       -6.954724
   26       -6.950774
   27       -6.872214
   28       -6.868800
   29       -3.546819
   30       -2.660695
   31       -2.659014
   32       -2.600553
   33       -2.562475
   34       -2.560353
   35       -2.521518
   36       -1.792819
   37       -1.789880
   38       -1.763578
   39       -1.759605
   40       -1.759598
   41       -1.758293
   42       -1.730132
   43       -1.727669
   44       -1.581518
   45        0.869204
   46        0.881130
   47        0.884114
   48        0.894103
   49        0.898657
   50        0.905429
   51        1.213249
   52        1.223907
   53        1.228237
   54        1.237746
   55        1.553572
   56        1.557061
   57        1.557171
   58        1.559202
   59        2.195888
   60        2.266210
   61        2.268782
   62        2.601139
   63        2.604163
   64        2.872293
   65        6.194040
   66        6.269854
   67        6.274531
   68        6.700783
   69        7.048180
   70        7.050941
   71        7.434630
   72        7.436285
   73        7.436589
   74        7.440628
   75        8.015596
   76        8.018062
   77        9.278961
   78       11.890685
   79       11.894534
   80       12.305406
   81       12.377722
   82       12.503489
 
  0.2222222E+00  0.1111111E+00  0.0000000E+00  0.6172840E-02
    1      -14.425436
    2      -14.282979
    3      -14.282549
    4      -14.130533
    5      -11.835618
    6      -11.715310
    7      -11.714936
    8      -11.588010
    9      -11.210802
   10      -11.096158
   11      -11.095759
   12      -10.975020
   13       -9.478552
   14       -9.391867
   15       -9.391225
   16       -9.304147
   17       -7.890188
   18       -7.824483
   19       -7.821708
   20       -7.748474
   21       -6.250723
   22       -6.177360
   23       -6.176802
   24       -6.100689
   25       -5.651529
   26       -5.581106
   27       -5.579403
   28       -5.506538
   29       -3.509433
   30       -3.463036
   31       -3.460954
   32       -3.413093
   33       -3.191389
   34       -2.318023
   35       -2.315347
   36       -2.313709
   37       -2.280807
   38       -2.280541
   39       -2.242572
   40       -1.505697
   41       -1.476981
   42       -1.474219
   43       -1.445204
   44       -1.250710
   45       -0.145033
   46       -0.085870
   47       -0.065135
   48       -0.060400
   49       -0.039758
   50        0.563327
   51        0.604347
   52        0.606186
   53        0.668905
   54        0.683788
   55        0.688713
   56        0.703276
   57        1.268456
   58        1.270097
   59        1.476102
   60        2.069283
   61        2.330315
   62        2.803420
   63        2.806294
   64        3.186075
   65        6.164920
   66        6.278755
   67        6.283261
   68        6.645261
   69        7.621154
   70        8.005352
   71        8.007405
   72        8.401068
   73        8.501215
   74        8.807122
   75        8.809602
   76        9.336960
   77        9.636005
   78       12.194051
   79       12.197311
   80       12.429989
   81       12.636752
   82       12.674386
 
  0.3333333E+00  0.1111111E+00  0.0000000E+00  0.6172840E-02
    1      -13.986577
    2      -13.847852
    3      -13.847435
    4      -13.699661
    5      -12.686713
    6      -12.558915
    7      -12.558534
    8      -12.423214
    9      -11.419897
   10      -11.303136
   11      -11.302712
   12      -11.179906
   13       -9.623193
   14       -9.526143
   15       -9.525840
   16       -9.425075
   17       -7.124410
   18       -7.058090
   19       -7.055462
   20       -6.986304
   21       -5.450442
   22       -5.390238
   23       -5.388992
   24       -5.327342
   25       -4.447874
   26       -4.399770
   27       -4.397538
   28       -4.346505
   29       -4.200842
   30       -4.141589
   31       -4.139676
   32       -4.078890
   33       -3.016632
   34       -2.977200
   35       -2.976121
   36       -2.934283
   37       -2.662794
   38       -1.803364
   39       -1.801750
   40       -1.334091
   41       -1.299602
   42       -1.295951
   43       -1.262221
   44       -1.120765
   45       -1.089225
   46       -1.062072
   47       -1.059140
   48       -1.031807
   49       -0.761557
   50       -0.319098
   51       -0.317378
   52        0.044424
   53        0.064760
   54        0.069274
   55        0.089738
   56        0.353219
   57        0.635945
   58        1.084398
   59        1.086065
   60        1.933020
   61        2.326528
   62        2.893592
   63        2.896045
   64        3.463426
   65        6.147998
   66        6.398873
   67        6.402767
   68        6.746367
   69        8.129409
   70        8.459923
   71        8.462342
   72        8.825977
   73        9.967175
   74       10.170347
   75       10.313574
   76       10.316200
   77       10.756183
   78       11.743724
   79       12.592004
   80       12.594633
   81       12.712515
   82       12.813076
 
  0.4444444E+00  0.1111111E+00  0.0000000E+00  0.6172840E-02
    1      -13.407270
    2      -13.404290
    3      -13.274678
    4      -13.272131
    5      -13.271181
    6      -13.268909
    7      -13.130800
    8      -13.127757
    9      -11.490480
   10      -11.373262
   11      -11.372826
   12      -11.249306
   13       -9.678214
   14       -9.579150
   15       -9.578848
   16       -9.475618
   17       -6.613026
   18       -6.570589
   19       -6.568101
   20       -6.527860
   21       -4.976964
   22       -4.968754
   23       -4.943983
   24       -4.942889
   25       -4.940679
   26       -4.938795
   27       -4.909376
   28       -4.905526
   29       -3.429619
   30       -3.406877
   31       -3.403956
   32       -3.376059
   33       -2.740588
   34       -2.737431
   35       -2.693203
   36       -2.692836
   37       -2.691213
   38       -2.686576
   39       -2.643422
   40       -2.639506
   41       -1.969679
   42       -1.967238
   43       -1.134580
   44       -1.131572
   45       -1.130789
   46       -1.128749
   47       -0.564832
   48       -0.558046
   49       -0.540435
   50       -0.533949
   51       -0.531746
   52       -0.531551
   53       -0.509734
   54       -0.505661
   55       -0.126931
   56       -0.124176
   57        0.281321
   58        1.020756
   59        1.022480
   60        1.884208
   61        2.314175
   62        2.916730
   63        2.918742
   64        3.567350
   65        6.154095
   66        6.467345
   67        6.470385
   68        6.801881
   69        8.348418
   70        8.636624
   71        8.639527
   72        8.926493
   73       10.877230
   74       10.878896
   75       11.561704
   76       11.565287
   77       11.805020
   78       11.808131
   79       11.809180
   80       11.813864
   81       12.168491
   82       12.171549
 
 -0.4444444E+00  0.1111111E+00  0.0000000E+00  0.6172840E-02
    1      -13.987343
    2      -13.848621
    3      -13.848195
    4      -13.700423
    5      -12.685501
    6      -12.557705
    7      -12.557335
    8      -12.421997
    9      -11.421677
   10      -11.304964
   11      -11.304528
   12      -11.181709
   13       -9.620515
   14       -9.523279
   15       -9.522953
   16       -9.422055
   17       -7.116038
   18       -7.048902
   19       -7.047987
   20       -6.978139
   21       -5.461847
   22       -5.402088
   23       -5.399375
   24       -5.338135
   25       -4.460016
   26       -4.411348
   27       -4.410777
   28       -4.359120
   29       -4.203047
   30       -4.143975
   31       -4.141705
   32       -4.081096
   33       -3.002244
   34       -2.963423
   35       -2.960587
   36       -2.919371
   37       -2.663536
   38       -1.804079
   39       -1.802481
   40       -1.334006
   41       -1.298968
   42       -1.296752
   43       -1.262566
   44       -1.119686
   45       -1.087090
   46       -1.060172
   47       -1.056855
   48       -1.029698
   49       -0.762255
   50       -0.318080
   51       -0.316314
   52        0.044732
   53        0.065199
   54        0.068266
   55        0.089169
   56        0.351826
   57        0.636907
   58        1.082649
   59        1.084475
   60        1.930839
   61        2.327214
   62        2.896381
   63        2.898123
   64        3.469574
   65        6.149067
   66        6.402615
   67        6.404907
   68        6.747944
   69        8.123863
   70        8.454783
   71        8.458122
   72        8.823709
   73        9.967599
   74       10.169325
   75       10.312974
   76       10.315947
   77       10.755074
   78       11.745164
   79       12.590208
   80       12.604342
   81       12.702466
   82       12.810170
 
 -0.3333333E+00  0.1111111E+00  0.0000000E+00  0.6172840E-02
    1      -14.425973
    2      -14.283528
    3      -14.283090
    4      -14.131071
    5      -11.834196
    6      -11.713878
    7      -11.713520
    8      -11.586588
    9      -11.214390
   10      -11.099796
   11      -11.099379
   12      -10.978666
   13       -9.472777
   14       -9.385403
   15       -9.385085
   16       -9.297181
   17       -7.883452
   18       -7.816124
   19       -7.815738
   20       -7.741012
   21       -6.262313
   22       -6.189674
   23       -6.187464
   24       -6.112057
   25       -5.653854
   26       -5.583503
   27       -5.581657
   28       -5.508879
   29       -3.525286
   30       -3.477997
   31       -3.477849
   32       -3.429092
   33       -3.191930
   34       -2.315923
   35       -2.314253
   36       -2.299672
   37       -2.263606
   38       -2.261114
   39       -2.224099
   40       -1.503990
   41       -1.475374
   42       -1.472375
   43       -1.443480
   44       -1.251222
   45       -0.143935
   46       -0.089634
   47       -0.068043
   48       -0.065976
   49       -0.044960
   50        0.560778
   51        0.605350
   52        0.607330
   53        0.674580
   54        0.689031
   55        0.691343
   56        0.706565
   57        1.265050
   58        1.267043
   59        1.477050
   60        2.064828
   61        2.330715
   62        2.808581
   63        2.810271
   64        3.198041
   65        6.164008
   66        6.285017
   67        6.286953
   68        6.651196
   69        7.614050
   70        7.996998
   71        8.000647
   72        8.400934
   73        8.495466
   74        8.806171
   75        8.808975
   76        9.335621
   77        9.635255
   78       12.193477
   79       12.196736
   80       12.427827
   81       12.632581
   82       12.639899
 
 -0.2222222E+00  0.1111111E+00  0.0000000E+00  0.6172840E-02
    1      -14.719603
    2      -14.574701
    3      -14.574254
    4      -14.419374
    5      -10.873570
    6      -10.866553
    7      -10.762583
    8      -10.762214
    9      -10.755510
   10      -10.755121
   11      -10.645720
   12      -10.638586
   13       -9.416387
   14       -9.354997
   15       -9.354735
   16       -9.303788
   17       -8.351133
   18       -8.319609
   19       -8.319405
   20       -8.268761
   21       -7.044982
   22       -7.036299
   23       -6.965726
   24       -6.963686
   25       -6.956914
   26       -6.955199
   27       -6.880895
   28       -6.872304
   29       -3.547146
   30       -2.661016
   31       -2.659339
   32       -2.618344
   33       -2.579368
   34       -2.579152
   35       -2.539428
   36       -1.790830
   37       -1.770935
   38       -1.761170
   39       -1.758404
   40       -1.741152
   41       -1.738752
   42       -1.728491
   43       -1.708639
   44       -1.581792
   45        0.856941
   46        0.869683
   47        0.871214
   48        0.883104
   49        0.897295
   50        0.901583
   51        1.228078
   52        1.238041
   53        1.238199
   54        1.249184
   55        1.551236
   56        1.553481
   57        1.556371
   58        1.558666
   59        2.195779
   60        2.261090
   61        2.267690
   62        2.607753
   63        2.609481
   64        2.887699
   65        6.191261
   66        6.277500
   67        6.279390
   68        6.711148
   69        7.042637
   70        7.050248
   71        7.425681
   72        7.429595
   73        7.435319
   74        7.438741
   75        8.007708
   76        8.016211
   77        9.278495
   78       11.890250
   79       11.893924
   80       12.309931
   81       12.487441
   82       12.503748
 
 -0.1111111E+00  0.1111111E+00  0.0000000E+00  0.6172840E-02
    1      -14.866748
    2      -14.720580
    3      -14.720129
    4      -14.563833
    5      -10.411236
    6      -10.306567
    7      -10.306263
    8      -10.197485
    9       -9.856420
   10       -9.854267
   11       -9.766969
   12       -9.764144
   13       -9.764102
   14       -9.762385
   15       -9.674224
   16       -9.671801
   17       -8.232999
   18       -8.231098
   19       -8.161129
   20       -8.160263
   21       -8.160226
   22       -8.157295
   23       -8.080247
   24       -8.078326
   25       -7.727205
   26       -7.645896
   27       -7.643806
   28       -7.558210
   29       -3.725537
   30       -2.834470
   31       -2.832788
   32       -1.937676
   33       -1.935030
   34       -1.907858
   35       -1.904063
   36       -1.904056
   37       -1.903109
   38       -1.874110
   39       -1.871914
   40       -1.748286
   41       -1.616811
   42       -1.589766
   43       -1.587392
   44       -1.560316
   45        1.331340
   46        1.380398
   47        1.393271
   48        1.397998
   49        1.409550
   50        1.545810
   51        1.556282
   52        1.560564
   53        1.572685
   54        1.811630
   55        1.813670
   56        1.908971
   57        1.911524
   58        2.286977
   59        2.291227
   60        2.291592
   61        2.292583
   62        2.476146
   63        2.678293
   64        2.680966
   65        6.282291
   66        6.285293
   67        6.482088
   68        6.483501
   69        6.483727
   70        6.488720
   71        6.566320
   72        6.883150
   73        6.887365
   74        7.022493
   75        7.024992
   76        7.479458
   77        9.100736
   78       11.737288
   79       11.741557
   80       11.965513
   81       12.212267
   82       12.241264
 
 -0.1355253E-19  0.2222222E+00  0.0000000E+00  0.6172840E-02
    1      -14.645855
    2      -14.501566
    3      -14.501121
    4      -14.346964
    5      -11.415901
    6      -11.299187
    7      -11.298786
    8      -11.176183
    9      -10.212559
   10      -10.206616
   11      -10.110418
   12      -10.109314
   13      -10.103661
   14      -10.102874
   15      -10.002550
   16       -9.996305
   17       -7.557497
   18       -7.546986
   19       -7.479246
   20       -7.476404
   21       -7.468193
   22       -7.465741
   23       -7.393641
   24       -7.382982
   25       -6.393534
   26       -6.316645
   27       -6.316370
   28       -6.236526
   29       -3.457870
   30       -2.574217
   31       -2.572542
   32       -2.544590
   33       -2.525055
   34       -2.507281
   35       -2.504742
   36       -2.487540
   37       -2.485378
   38       -2.466312
   39       -2.446810
   40       -1.498551
   41       -1.421307
   42       -1.393940
   43       -1.393765
   44       -1.366236
   45        0.313299
   46        0.569521
   47        0.591131
   48        0.591573
   49        0.613432
   50        1.025385
   51        1.027019
   52        1.111203
   53        1.127886
   54        1.127957
   55        1.144679
   56        1.586804
   57        1.589763
   58        1.833632
   59        2.161850
   60        2.163452
   61        2.167325
   62        2.168924
   63        2.729804
   64        2.737691
   65        6.521812
   66        6.527308
   67        6.808565
   68        6.812997
   69        6.818461
   70        6.822420
   71        7.320852
   72        7.330463
   73        7.694682
   74        8.115360
   75        8.117175
   76        8.701144
   77        9.367696
   78       11.964671
   79       11.968060
   80       12.047534
   81       12.233327
   82       12.392012
 
  0.1111111E+00  0.2222222E+00  0.0000000E+00  0.6172840E-02
    1      -14.425440
    2      -14.282985
    3      -14.282551
    4      -14.130538
    5      -11.835672
    6      -11.715390
    7      -11.714961
    8      -11.588062
    9      -11.210763
   10      -11.096104
   11      -11.095741
   12      -10.974988
   13       -9.478542
   14       -9.391867
   15       -9.391209
   16       -9.304141
   17       -7.890132
   18       -7.824363
   19       -7.821707
   20       -7.748409
   21       -6.249738
   22       -6.176833
   23       -6.175298
   24       -6.099643
   25       -5.652494
   26       -5.581448
   27       -5.581065
   28       -5.507580
   29       -3.509511
   30       -3.463036
   31       -3.461117
   32       -3.413179
   33       -3.191374
   34       -2.319448
   35       -2.315345
   36       -2.313693
   37       -2.283263
   38       -2.280791
   39       -2.243851
   40       -1.504129
   41       -1.474244
   42       -1.474123
   43       -1.443902
   44       -1.250686
   45       -0.144692
   46       -0.086635
   47       -0.065135
   48       -0.062461
   49       -0.041469
   50        0.562849
   51        0.604923
   52        0.606526
   53        0.671046
   54        0.685817
   55        0.688713
   56        0.704010
   57        1.267716
   58        1.269614
   59        1.476713
   60        2.068464
   61        2.330148
   62        2.803390
   63        2.806018
   64        3.185990
   65        6.164875
   66        6.279238
   67        6.283281
   68        6.645757
   69        7.622744
   70        8.006617
   71        8.009039
   72        8.399655
   73        8.502650
   74        8.806102
   75        8.808110
   76        9.335716
   77        9.636011
   78       12.194099
   79       12.197619