    4    4  200    1
  0.8468675E+01  0.2466437E-09  0.2466437E-09  0.6432798E-09  0.5000000E-15
  1.000000000000000E-004
  CAR 
 graphite                                
     16    215     12
 
  0.0000000E+00  0.0000000E+00  0.0000000E+00  0.8680556E-03
    1      -14.625719
    2      -14.213123
    3       -3.635552
    4       -1.213569
    5        2.054242
    6        2.070719
    7        2.083232
    8        2.098795
    9        9.750920
   10       13.383876
   11       13.391448
   12       13.458209
 
  0.8333333E-01  0.0000000E+00  0.0000000E+00  0.3472222E-02
    1      -14.459478
    2      -14.050784
    3       -3.433727
    4       -1.027439
    5        1.403272
    6        1.453778
    7        1.712332
    8        1.755475
    9        9.946442
   10       13.431050
   11       13.546485
   12       14.080435
 
  0.1666667E+00  0.0000000E+00  0.0000000E+00  0.3472222E-02
    1      -13.962717
    2      -13.565621
    3       -2.832475
    4       -0.475980
    5       -0.259598
    6       -0.165266
    7        0.909846
    8        0.970787
    9       10.534823
   10       13.309489
   11       13.555930
   12       14.164519
 
  0.2500000E+00  0.2775558E-16  0.0000000E+00  0.3472222E-02
    1      -13.141204
    2      -12.763323
    3       -2.385695
    4       -2.242738
    5       -1.847094
    6        0.023840
    7        0.096092
    8        0.414943
    9       11.505374
   10       11.915595
   11       12.730168
   12       12.959313
 
  0.3333333E+00  0.0000000E+00  0.0000000E+00  0.3472222E-02
    1      -12.007447
    2      -11.656029
    3       -4.615970
    4       -4.425189
    5       -0.712812
    6       -0.634458
    7       -0.515086
    8        1.572556
    9        9.464122
   10       10.591867
   11       12.506152
   12       12.789028
 
  0.4166667E+00  0.0000000E+00  0.0000000E+00  0.3472222E-02
    1      -10.591679
    2      -10.277155
    3       -6.738299
    4       -6.508559
    5       -1.187488
    6       -1.105660
    7        1.049006
    8        2.727627
    9        7.348574
   10        8.559342
   11       12.284578
   12       12.792849
 
  0.5000000E+00  0.5551115E-16  0.0000000E+00  0.1736111E-02
    1       -9.263475
    2       -9.106443
    3       -8.174105
    4       -8.057425
    5       -1.350060
    6       -1.267282
    7        2.173575
    8        3.028363
    9        6.602990
   10        7.376151
   11       12.191130
   12       12.725359
 
  0.8333333E-01  0.8333333E-01  0.0000000E+00  0.1736111E-02
    1      -14.127733
    2      -13.726800
    3       -3.031892
    4       -0.658214
    5        0.368425
    6        0.415910
    7        1.038146
    8        1.074043
    9       10.340584
   10       13.707083
   11       13.857821
   12       14.703621
 
  0.1666667E+00  0.8333333E-01  0.0000000E+00  0.3472222E-02
    1      -13.468347
    2      -13.082834
    3       -2.237535
    4       -1.371647
    5       -1.272359
    6        0.025440
    7        0.065154
    8        0.091153
    9       11.129118
   10       12.861808
   11       13.445229
   12       13.771439
 
  0.2500000E+00  0.8333333E-01  0.0000000E+00  0.3472222E-02
    1      -12.490200
    2      -12.127605
    3       -3.477270
    4       -3.319455
    5       -1.074379
    6       -0.872693
    7       -0.785122
    8        1.100803
    9       10.576320
   10       11.454590
   11       12.290363
   12       13.459146
 
  0.3333333E+00  0.8333333E-01  0.0000000E+00  0.3472222E-02
    1      -11.212569
    2      -10.880765
    3       -5.627512
    4       -5.420525
    5       -1.513351
    6       -1.416058
    7        0.396030
    8        2.319960
    9        8.275381
   10        9.405357
   11       13.095556
   12       13.532039
 
  0.4166667E+00  0.8333333E-01  0.0000000E+00  0.3472222E-02
    1       -9.705287
    2       -9.429264
    3       -7.578424
    4       -7.352661
    5       -1.844762
    6       -1.743285
    7        1.934236
    8        3.168621
    9        6.731739
   10        7.649534
   11       12.923244
   12       13.471967
 
  0.5000000E+00  0.8333333E-01  0.0000000E+00  0.3472222E-02
    1       -9.707687
    2       -9.431529
    3       -7.575718
    4       -7.349710
    5       -1.845606
    6       -1.744110
    7        1.932690
    8        3.168470
    9        6.731034
   10        7.651927
   11       12.924237
   12       13.472970
 
 -0.4166667E+00  0.8333333E-01  0.0000000E+00  0.3472222E-02
    1      -11.214746
    2      -10.882935
    3       -5.624026
    4       -5.416927
    5       -1.515784
    6       -1.418389
    7        0.394131
    8        2.318477
    9        8.275284
   10        9.408384
   11       13.098399
   12       13.533294
 
 -0.3333333E+00  0.8333333E-01  0.0000000E+00  0.3472222E-02
    1      -12.491901
    2      -12.129297
    3       -3.474035
    4       -3.315992
    5       -1.076010
    6       -0.875857
    7       -0.788269
    8        1.099280
    9       10.574878
   10       11.457408
   11       12.288090
   12       13.463664
 
 -0.2500000E+00  0.8333333E-01  0.0000000E+00  0.3472222E-02
    1      -13.469559
    2      -13.084040
    3       -2.238765
    4       -1.370693
    5       -1.271336
    6        0.024292
    7        0.063960
    8        0.089790
    9       11.127401
   10       12.857936
   11       13.447592
   12       13.777251
 
 -0.1666667E+00  0.8333333E-01  0.0000000E+00  0.3472222E-02
    1      -14.128459
    2      -13.727519
    3       -3.032649
    4       -0.658960
    5        0.360356
    6        0.408968
    7        1.045561
    8        1.081422
    9       10.339503
   10       13.713986
   11       13.866450
   12       14.703758
 
 -0.8333333E-01  0.8333333E-01  0.0000000E+00  0.1736111E-02
    1      -14.459721
    2      -14.051023
    3       -3.433982
    4       -1.027692
    5        1.390459
    6        1.441491
    7        1.725199
    8        1.767969
    9        9.946065
   10       13.435240
   11       13.551059
   12       14.083152
 
  0.1666667E+00  0.1666667E+00  0.0000000E+00  0.1736111E-02
    1      -12.652324
    2      -12.285930
    3       -2.697400
    4       -2.619138
    5       -1.330974
    6       -1.273750
    7       -1.262892
    8        0.939760
    9       11.120339
   10       11.737221
   11       12.117563
   12       14.945295
 
  0.2500000E+00  0.1666667E+00  0.0000000E+00  0.3472222E-02
    1      -11.528949
    2      -11.189225
    3       -4.461996
    4       -4.313657
    5       -2.413065
    6       -2.308869
    7        0.055414
    8        2.083730
    9        9.093998
   10        9.883628
   11       13.467351
   12       15.036987
 
  0.3333333E+00  0.1666667E+00  0.0000000E+00  0.3472222E-02
    1      -10.132730
    2       -9.830023
    3       -6.403819
    4       -6.195735
    5       -3.005190
    6       -2.873998
    7        1.613644
    8        3.268072
    9        7.172859
   10        8.087323
   11       14.745833
   12       15.121369
 
  0.4166667E+00  0.1666667E+00  0.0000000E+00  0.3472222E-02
    1       -8.837706
    2       -8.686354
    3       -7.770110
    4       -7.667281
    5       -3.194775
    6       -3.057490
    7        2.770360
    8        3.606014
    9        6.552480
   10        6.864449
   11       14.666586
   12       15.351891
 
  0.5000000E+00  0.1666667E+00  0.0000000E+00  0.3472222E-02
    1      -10.137484
    2       -9.834903
    3       -6.397521
    4       -6.189062
    5       -3.007724
    6       -2.876380
    7        1.609941
    8        3.265796
    9        7.170731
   10        8.094235
   11       14.748398
   12       15.115046
 
 -0.4166667E+00  0.1666667E+00  0.0000000E+00  0.3472222E-02
    1      -11.532833
    2      -11.193105
    3       -4.456282
    4       -4.307487
    5       -2.416414
    6       -2.311977
    7        0.051898
    8        2.080463
    9        9.090095
   10        9.890592
   11       13.462009
   12       15.043086
 
 -0.3333333E+00  0.1666667E+00  0.0000000E+00  0.3472222E-02
    1      -12.655222
    2      -12.288827
    3       -2.699064
    4       -2.618991
    5       -1.329093
    6       -1.270831
    7       -1.265736
    8        0.936940
    9       11.112579
   10       11.742816
   11       12.113593
   12       14.964996
 
 -0.2500000E+00  0.1666667E+00  0.0000000E+00  0.3472222E-02
    1      -13.470282
    2      -13.084757
    3       -2.239508
    4       -1.381809
    5       -1.281406
    6        0.036198
    7        0.063167
    8        0.102239
    9       11.126458
   10       12.852945
   11       13.446877
   12       13.797013
 
 -0.1666667E+00  0.1666667E+00  0.0000000E+00  0.1736111E-02
    1      -13.963680
    2      -13.566580
    3       -2.833482
    4       -0.476998
    5       -0.273060
    6       -0.178256
    7        0.924422
    8        0.985149
    9       10.533462
   10       13.328061
   11       13.573541
   12       14.157685
 
  0.2500000E+00  0.2500000E+00  0.0000000E+00  0.1736111E-02
    1      -10.282901
    2       -9.974492
    3       -5.484489
    4       -5.376948
    5       -3.881474
    6       -3.802153
    7        1.488489
    8        3.277337
    9        7.486197
   10        8.248629
   11       14.949786
   12       16.854456
 
  0.3333333E+00  0.2500000E+00  0.0000000E+00  0.3472222E-02
    1       -8.832598
    2       -8.579365
    3       -6.935385
    4       -6.764449
    5       -4.621269
    6       -4.485935
    7        3.048710
    8        4.290036
    9        6.090490
   10        6.767562
   11       16.523943
   12       16.766181
 
  0.4166667E+00  0.2500000E+00  0.0000000E+00  0.3472222E-02
    1       -8.839898
    2       -8.586414
    3       -6.928084
    4       -6.755672
    5       -4.622307
    6       -4.486763
    7        3.044202
    8        4.289186
    9        6.082879
   10        6.778784
   11       16.515076
   12       16.762308
 
  0.5000000E+00  0.2500000E+00  0.0000000E+00  0.3472222E-02
    1      -10.289450
    2       -9.981107
    3       -5.480959
    4       -5.370954
    5       -3.880648
    6       -3.799816
    7        1.483264
    8        3.272000
    9        7.479764
   10        8.259469
   11       14.940557
   12       16.865105
 
 -0.4166667E+00  0.2500000E+00  0.0000000E+00  0.3472222E-02
    1      -11.534017
    2      -11.194344
    3       -4.466370
    4       -4.316575
    5       -2.404644
    6       -2.299553
    7        0.050802
    8        2.078763
    9        9.085635
   10        9.889795
   11       13.460651
   12       15.074215
 
 -0.3333333E+00  0.2500000E+00  0.0000000E+00  0.3472222E-02
    1      -12.493833
    2      -12.131228
    3       -3.486658
    4       -3.328238
    5       -1.077900
    6       -0.859227
    7       -0.771635
    8        1.096996
    9       10.566966
   10       11.454733
   11       12.286041
   12       13.492340
 
 -0.2500000E+00  0.2500000E+00  0.0000000E+00  0.1736111E-02
    1      -13.143376
    2      -12.765483
    3       -2.398435
    4       -2.255092
    5       -1.849288
    6        0.040113
    7        0.112207
    8        0.412590
    9       11.502750
   10       11.906343
   11       12.727712
   12       12.986816
 
  0.3333333E+00  0.3333333E+00  0.0000000E+00  0.1736111E-02
    1       -7.630704
    2       -7.495832
    3       -7.493351
    4       -7.360434
    5       -5.442130
    6       -5.440864
    7        4.254660
    8        5.012086
    9        5.023272
   10        5.973530
   11       16.379305
   12       16.406816
 
  0.4166667E+00  0.3333333E+00  0.0000000E+00  0.3472222E-02
    1       -8.842482
    2       -8.589862
    3       -6.933301
    4       -6.761080
    5       -4.613621
    6       -4.477296
    7        3.044246
    8        4.279114
    9        6.086900
   10        6.779066
   11       16.518458
   12       16.793563
 
  0.5000000E+00  0.3333333E+00  0.0000000E+00  0.3472222E-02
    1      -10.140659
    2       -9.838305
    3       -6.407172
    4       -6.198549
    5       -2.992777
    6       -2.861384
    7        1.608045
    8        3.259057
    9        7.168091
   10        8.091832
   11       14.779241
   12       15.122283
 
 -0.4166667E+00  0.3333333E+00  0.0000000E+00  0.3472222E-02
    1      -11.218447
    2      -10.886709
    3       -5.634970
    4       -5.427649
    5       -1.497850
    6       -1.400584
    7        0.391021
    8        2.313145
    9        8.268669
   10        9.403573
   11       13.128833
   12       13.558048
 
 -0.3333333E+00  0.3333333E+00  0.0000000E+00  0.1736111E-02
    1      -12.011335
    2      -11.659929
    3       -4.626852
    4       -4.436088
    5       -0.695207
    6       -0.616995
    7       -0.518721
    8        1.567985
    9        9.455529
   10       10.587362
   11       12.529811
   12       12.805512
 
  0.4166667E+00  0.4166667E+00  0.0000000E+00  0.1736111E-02
    1       -8.847124
    2       -8.699182
    3       -7.770168
    4       -7.669588
    5       -3.180289
    6       -3.042998
    7        2.771035
    8        3.586965
    9        6.559834
   10        6.859671
   11       14.703536
   12       15.389718
 
  0.5000000E+00  0.4166667E+00  0.0000000E+00  0.3472222E-02
    1       -9.714417
    2       -9.439234
    3       -7.582291
    4       -7.356851
    5       -1.827718
    6       -1.726345
    7        1.930516
    8        3.154142
    9        6.733174
   10        7.644112
   11       12.958731
   12       13.507576
 
 -0.4166667E+00  0.4166667E+00  0.0000000E+00  0.1736111E-02
    1      -10.597969
    2      -10.283676
    3       -6.746310
    4       -6.516490
    5       -1.169052
    6       -1.087355
    7        1.044577
    8        2.718174
    9        7.344957
   10        8.552849
   11       12.317934
   12       12.826041
 
  0.5000000E+00  0.5000000E+00  0.0000000E+00  0.8680556E-03
    1       -9.273622
    2       -9.120135
    3       -8.175218
    4       -8.060994
    5       -1.331342
    6       -1.248696
    7        2.173745
    8        3.008263
    9        6.609955
   10        7.364308
   11       12.225313
   12       12.759557
 
  0.0000000E+00  0.0000000E+00  0.1250000E+00  0.1736111E-02
    1      -14.611259
    2      -14.230247
    3       -3.558705
    4       -1.330169
    5        2.055406
    6        2.071848
    7        2.082154
    8        2.097753
    9        9.973480
   10       13.390024
   11       13.395905
   12       13.457242
 
  0.8333333E-01  0.0000000E+00  0.1250000E+00  0.6944444E-02
    1      -14.445140
    2      -14.067729
    3       -3.357331
    4       -1.143158
    5        1.405199
    6        1.451884
    7        1.713999
    8        1.753869
    9       10.166954
   10       13.433512
   11       13.542454
   12       14.101765
 
  0.1666667E+00  0.0000000E+00  0.1250000E+00  0.6944444E-02
    1      -13.948720
    2      -13.582033
    3       -2.757533
    4       -0.588934
    5       -0.255779
    6       -0.168857
    7        0.912167
    8        0.968556
    9       10.748373
   10       13.312329
   11       13.544696
   12       14.188673
 
  0.2500000E+00  0.2775558E-16  0.1250000E+00  0.6944444E-02
    1      -13.127836
    2      -12.778890
    3       -2.380405
    4       -2.248508
    5       -1.774531
    6        0.026509
    7        0.093321
    8        0.307918
    9       11.666374
   10       11.980611
   11       12.684485
   12       12.975363
 
  0.3333333E+00  0.0000000E+00  0.1250000E+00  0.6944444E-02
    1      -11.994915
    2      -11.670407
    3       -4.609058
    4       -4.432874
    5       -0.709863
    6       -0.637465
    7       -0.447009
    8        1.476582
    9        9.493240
   10       10.537680
   11       12.543817
   12       12.847684
 
  0.4166667E+00  0.0000000E+00  0.1250000E+00  0.6944444E-02
    1      -10.580420
    2      -10.289878
    3       -6.730010
    4       -6.517806
    5       -1.184413
    6       -1.108807
    7        1.108442
    8        2.660143
    9        7.369924
   10        8.493114
   11       12.303747
   12       12.773614
 
  0.5000000E+00  0.5551115E-16  0.1250000E+00  0.3472222E-02
    1       -9.256205
    2       -9.110601
    3       -8.172618
    4       -8.064243
    5       -1.347137
    6       -1.270462
    7        2.217691
    8        3.015517
    9        6.585820
   10        7.308635
   11       12.210434
   12       12.704362
 
  0.8333333E-01  0.8333333E-01  0.1250000E+00  0.3472222E-02
    1      -14.113641
    2      -13.743420
    3       -2.956482
    4       -0.772063
    5        0.370330
    6        0.414244
    7        1.039283
    8        1.072521
    9       10.556947
   10       13.706192
   11       13.851665
   12       14.836962
 
  0.1666667E+00  0.8333333E-01  0.1250000E+00  0.6944444E-02
    1      -13.454736
    2      -13.098738
    3       -2.164162
    4       -1.367911
    5       -1.276022
    6       -0.044402
    7        0.027816
    8        0.088493
    9       11.334799
   10       12.879601
   11       13.410964
   12       13.786143
 
  0.2500000E+00  0.8333333E-01  0.1250000E+00  0.6944444E-02
    1      -12.477382
    2      -12.142487
    3       -3.471508
    4       -3.325649
    5       -1.004214
    6       -0.869355
    7       -0.788489
    8        0.999008
    9       10.599989
   10       11.414916
   11       12.485208
   12       13.475269
 
  0.3333333E+00  0.8333333E-01  0.1250000E+00  0.6944444E-02
    1      -11.200681
    2      -10.894252
    3       -5.619905
    4       -5.428674
    5       -1.509641
    6       -1.419784
    7        0.460306
    8        2.234667
    9        8.304665
   10        9.351503
   11       13.118289
   12       13.535891
 
  0.4166667E+00  0.8333333E-01  0.1250000E+00  0.6944444E-02
    1       -9.695177
    2       -9.440180
    3       -7.570674
    4       -7.362021
    5       -1.840895
    6       -1.747227
    7        1.985447
    8        3.132621
    9        6.730898
   10        7.588215
   11       12.942638
   12       13.449792
 
  0.5000000E+00  0.8333333E-01  0.1250000E+00  0.6944444E-02
    1       -9.697584
    2       -9.442457
    3       -7.567955
    4       -7.359100
    5       -1.841758
    6       -1.748060
    7        1.983914
    8        3.132352
    9        6.730354
   10        7.590510
   11       12.943617
   12       13.450774
 
 -0.4166667E+00  0.8333333E-01  0.1250000E+00  0.6944444E-02
    1      -11.202858
    2      -10.896422
    3       -5.616417
    4       -5.425089
    5       -1.512123
    6       -1.422122
    7        0.458411
    8        2.233149
    9        8.304716
   10        9.354403
   11       13.121132
   12       13.537706
 
 -0.3333333E+00  0.8333333E-01  0.1250000E+00  0.6944444E-02
    1      -12.479084
    2      -12.144180
    3       -3.468177
    4       -3.322196
    5       -1.005856
    6       -0.872550
    7       -0.791614
    8        0.997475
    9       10.598769
   10       11.417559
   11       12.482846
   12       13.479740
 
 -0.2500000E+00  0.8333333E-01  0.1250000E+00  0.6944444E-02
    1      -13.455949
    2      -13.099943
    3       -2.165386
    4       -1.366902
    5       -1.275001
    6       -0.045585
    7        0.026648
    8        0.087141
    9       11.333114
   10       12.875990
   11       13.413221
   12       13.791881
 
 -0.1666667E+00  0.8333333E-01  0.1250000E+00  0.6944444E-02
    1      -14.114367
    2      -13.744118
    3       -2.957185
    4       -0.772809
    5        0.362302
    6        0.407252
    7        1.046704
    8        1.079907
    9       10.555864
   10       13.713104
   11       13.860243
   12       14.717398
 
 -0.8333333E-01  0.8333333E-01  0.1250000E+00  0.3472222E-02
    1      -14.445385
    2      -14.067974
    3       -3.357618
    4       -1.143415
    5        1.392403
    6        1.439569
    7        1.726845
    8        1.766376
    9       10.166575
   10       13.437704
   11       13.547017
   12       14.085177
 
  0.1666667E+00  0.1666667E+00  0.1250000E+00  0.3472222E-02
    1      -12.639292
    2      -12.300920
    3       -2.694227
    4       -2.622026
    5       -1.329238
    6       -1.276271
    7       -1.191940
    8        0.836196
    9       11.142945
   10       11.707807
   11       12.316074
   12       14.953603
 
  0.2500000E+00  0.1666667E+00  0.1250000E+00  0.6944444E-02
    1      -11.516852
    2      -11.203078
    3       -4.456465
    4       -4.319354
    5       -2.409476
    6       -2.313181
    7        0.121801
    8        1.990873
    9        9.121842
   10        9.851596
   11       13.634467
   12       15.051734
 
  0.3333333E+00  0.1666667E+00  0.1250000E+00  0.6944444E-02
    1      -10.121778
    2       -9.842270
    3       -6.396152
    4       -6.204035
    5       -3.000446
    6       -2.879299
    7        1.671925
    8        3.200843
    9        7.195078
   10        8.044199
   11       14.772893
   12       15.168286
 
  0.4166667E+00  0.1666667E+00  0.1250000E+00  0.6944444E-02
    1       -8.830774
    2       -8.690512
    3       -7.769025
    4       -7.673498
    5       -3.189903
    6       -3.062944
    7        2.814446
    8        3.595450
    9        6.525801
   10        6.827333
   11       14.684901
   12       15.315424
 
  0.5000000E+00  0.1666667E+00  0.1250000E+00  0.6944444E-02
    1      -10.126605
    2       -9.847007
    3       -6.389813
    4       -6.197367
    5       -3.002976
    6       -2.881709
    7        1.668238
    8        3.198438
    9        7.193371
   10        8.050739
   11       14.775514
   12       15.163485
 
 -0.4166667E+00  0.1666667E+00  0.1250000E+00  0.6944444E-02
    1      -11.520739
    2      -11.206959
    3       -4.450735
    4       -4.313195
    5       -2.412806
    6       -2.316357
    7        0.118291
    8        1.987579
    9        9.118336
   10        9.858071
   11       13.628951
   12       15.057744
 
 -0.3333333E+00  0.1666667E+00  0.1250000E+00  0.6944444E-02
    1      -12.642203
    2      -12.303820
    3       -2.695800
    4       -2.621878
    5       -1.327352
    6       -1.273483
    7       -1.194776
    8        0.833375
    9       11.135635
   10       11.712814
   11       12.312102
   12       14.973093
 
 -0.2500000E+00  0.1666667E+00  0.1250000E+00  0.6944444E-02
    1      -13.456673
    2      -13.100670
    3       -2.166135
    4       -1.378061
    5       -1.285124
    6       -0.046382
    7        0.038580
    8        0.099567
    9       11.332101
   10       12.871440
   11       13.412636
   12       13.811216
 
 -0.1666667E+00  0.1666667E+00  0.1250000E+00  0.3472222E-02
    1      -13.949686
    2      -13.583000
    3       -2.758540
    4       -0.589950
    5       -0.269277
    6       -0.181863
    7        0.926733
    8        0.982923
    9       10.747001
   10       13.330767
   11       13.562276
   12       14.182150
 
  0.2500000E+00  0.2500000E+00  0.1250000E+00  0.3472222E-02
    1      -10.271834
    2       -9.986892
    3       -5.480114
    4       -5.380810
    5       -3.879411
    6       -3.806116
    7        1.549024
    8        3.199160
    9        7.515754
   10        8.218359
   11       15.037728
   12       16.695853
 
  0.3333333E+00  0.2500000E+00  0.1250000E+00  0.6944444E-02
    1       -8.823263
    2       -8.589324
    3       -6.929201
    4       -6.771257
    5       -4.616790
    6       -4.491630
    7        3.099115
    8        4.253264
    9        6.103223
   10        6.728639
   11       16.203663
   12       16.439146
 
  0.4166667E+00  0.2500000E+00  0.1250000E+00  0.6944444E-02
    1       -8.830553
    2       -8.596381
    3       -6.921831
    4       -6.762520
    5       -4.617809
    6       -4.492462
    7        3.094634
    8        4.252032
    9        6.096454
   10        6.739317
   11       16.190521
   12       16.446163
 
  0.5000000E+00  0.2500000E+00  0.1250000E+00  0.6944444E-02
    1      -10.278332
    2       -9.993478
    3       -5.476459
    4       -5.374811
    5       -3.878445
    6       -3.803744
    7        1.543794
    8        3.193820
    9        7.509872
   10        8.228445
   11       15.028145
   12       16.710893
 
 -0.4166667E+00  0.2500000E+00  0.1250000E+00  0.6944444E-02
    1      -11.521964
    2      -11.208198
    3       -4.460798
    4       -4.322349
    5       -2.401016
    6       -2.303955
    7        0.117180
    8        1.985901
    9        9.113855
   10        9.857041
   11       13.627902
   12       15.088700
 
 -0.3333333E+00  0.2500000E+00  0.1250000E+00  0.6944444E-02
    1      -12.481017
    2      -12.146113
    3       -3.480876
    4       -3.334464
    5       -1.007732
    6       -0.855865
    7       -0.775003
    8        0.995220
    9       10.590791
   10       11.414575
   11       12.481388
   12       13.508305
 
 -0.2500000E+00  0.2500000E+00  0.1250000E+00  0.3472222E-02
    1      -13.130012
    2      -12.781060
    3       -2.393203
    4       -2.260879
    5       -1.776736
    6        0.042776
    7        0.109442
    8        0.305577
    9       11.662058
   10       11.973659
   11       12.682160
   12       13.002592
 
  0.3333333E+00  0.3333333E+00  0.1250000E+00  0.3472222E-02
    1       -7.620916
    2       -7.495096
    3       -7.492721
    4       -7.371278
    5       -5.443335
    6       -5.442162
    7        4.311418
    8        5.020242
    9        5.030611
   10        5.896115
   11       16.080148
   12       16.102453
 
  0.4166667E+00  0.3333333E+00  0.1250000E+00  0.6944444E-02
    1       -8.833168
    2       -8.599792
    3       -6.927081
    4       -6.767951
    5       -4.609093
    6       -4.483023
    7        3.094515
    8        4.242738
    9        6.099825
   10        6.739397
   11       16.188794
   12       16.464608
 
  0.5000000E+00  0.3333333E+00  0.1250000E+00  0.6944444E-02
    1      -10.129782
    2       -9.850391
    3       -6.399464
    4       -6.206885
    5       -2.988018
    6       -2.866690
    7        1.666268
    8        3.192084
    9        7.190362
   10        8.048061
   11       14.808218
   12       15.174718
 
 -0.4166667E+00  0.3333333E+00  0.1250000E+00  0.6944444E-02
    1      -11.206597
    2      -10.900192
    3       -5.627356
    4       -5.435814
    5       -1.494139
    6       -1.404311
    7        0.455266
    8        2.227980
    9        8.297886
   10        9.349312
   11       13.152184
   12       13.565575
 
 -0.3333333E+00  0.3333333E+00  0.1250000E+00  0.3472222E-02
    1      -11.998799
    2      -11.674445
    3       -4.619950
    4       -4.443481
    5       -0.692259
    6       -0.619990
    7       -0.450652
    8        1.472096
    9        9.484571
   10       10.532879
   11       12.571133
   12       12.868270
 
  0.4166667E+00  0.4166667E+00  0.1250000E+00  0.3472222E-02
    1       -8.840309
    2       -8.703234
    3       -7.769191
    4       -7.675759
    5       -3.175435
    6       -3.048456
    7        2.814721
    8        3.577379
    9        6.532278
   10        6.822456
   11       14.721874
   12       15.352691
 
  0.5000000E+00  0.4166667E+00  0.1250000E+00  0.6944444E-02
    1       -9.704342
    2       -9.450114
    3       -7.574655
    4       -7.366231
    5       -1.823875
    6       -1.730291
    7        1.981520
    8        3.118803
    9        6.731616
   10        7.582646
   11       12.978128
   12       13.485327
 
 -0.4166667E+00  0.4166667E+00  0.1250000E+00  0.3472222E-02
    1      -10.586719
    2      -10.296386
    3       -6.738023
    4       -6.525742
    5       -1.165982
    6       -1.090497
    7        1.103930
    8        2.651071
    9        7.365827
   10        8.486468
   11       12.337131
   12       12.806806
 
  0.5000000E+00  0.5000000E+00  0.1250000E+00  0.1736111E-02
    1       -9.266467
    2       -9.124149
    3       -8.173836
    4       -8.067740
    5       -1.328424
    6       -1.251871
    7        2.217435
    8        2.996444
    9        6.591647
   10        7.296995
   11       12.244615
   12       12.738519
 
  0.0000000E+00  0.0000000E+00  0.2500000E+00  0.1736111E-02
    1      -14.569615
    2      -14.278306
    3       -3.335598
    4       -1.646076
    5        2.058499
    6        2.074845
    7        2.078933
    8        2.094628
    9       10.605309
   10       13.393061
   11       13.399541
   12       13.446777
 
  0.8333333E-01  0.0000000E+00  0.2500000E+00  0.6944444E-02
    1      -14.403909
    2      -14.115333
    3       -3.135646
    4       -1.456775
    5        1.410665
    6        1.446429
    7        1.718665
    8        1.749094
    9       10.792604
   10       13.439428
   11       13.531585
   12       14.108344
 
  0.1666667E+00  0.0000000E+00  0.2500000E+00  0.6944444E-02
    1      -13.908519
    2      -13.628194
    3       -2.540036
    4       -0.895063
    5       -0.245581
    6       -0.179166
    7        0.918722
    8        0.961917
    9       11.352444
   10       13.320695
   11       13.516768
   12       14.254990
 
  0.2500000E+00  0.2775558E-16  0.2500000E+00  0.6944444E-02
    1      -13.089464
    2      -12.822616
    3       -2.365357
    4       -2.264394
    5       -1.564116
    6        0.016496
    7        0.034375
    8        0.085372
    9       11.911837
   10       12.360950
   11       12.567205
   12       13.019080
 
  0.3333333E+00  0.0000000E+00  0.2500000E+00  0.6944444E-02
    1      -11.959044
    2      -11.710969
    3       -4.589118
    4       -4.454278
    5       -0.701375
    6       -0.646047
    7       -0.249702
    8        1.213118
    9        9.585341
   10       10.388670
   11       12.612826
   12       12.887942
 