   4   4   0   0
  0.7976710E+01  0.2467155E-09  0.2467155E-09  0.6053168E-09  0.5000000E-15
  1.000000000000000E-004
  CAR 
 graphite                                
     19.84411093    -16.15195344  301      5.58663793      1.00000000
    -16.152  0.0000E+00  0.0000E+00
    -16.032  0.0000E+00  0.0000E+00
    -15.912  0.0000E+00  0.0000E+00
    -15.792  0.0000E+00  0.0000E+00
    -15.672  0.0000E+00  0.0000E+00
    -15.552  0.0000E+00  0.0000E+00
    -15.432  0.0000E+00  0.0000E+00
    -15.312  0.0000E+00  0.0000E+00
    -15.192  0.0000E+00  0.0000E+00
    -15.072  0.0000E+00  0.0000E+00
    -14.952  0.0000E+00  0.0000E+00
    -14.832  0.0000E+00  0.0000E+00
    -14.712  0.0000E+00  0.0000E+00
    -14.592  0.0000E+00  0.0000E+00
    -14.472  0.0000E+00  0.0000E+00
    -14.352  0.0000E+00  0.0000E+00
    -14.232  0.0000E+00  0.0000E+00
    -14.112  0.2669E-03  0.3846E-05
    -13.992  0.9505E-03  0.8904E-04
    -13.872  0.1418E-02  0.2347E-03
    -13.752  0.1765E-02  0.4242E-03
    -13.632  0.2222E-02  0.6624E-03
    -13.512  0.2845E-02  0.9585E-03
    -13.392  0.3065E-02  0.1324E-02
    -13.272  0.3089E-02  0.1696E-02
    -13.152  0.3096E-02  0.2066E-02
    -13.032  0.3091E-02  0.2438E-02
    -12.912  0.3080E-02  0.2807E-02
    -12.792  0.3126E-02  0.3179E-02
    -12.672  0.3125E-02  0.3555E-02
    -12.552  0.3095E-02  0.3927E-02
    -12.432  0.3110E-02  0.4300E-02
    -12.312  0.3132E-02  0.4674E-02
    -12.192  0.3148E-02  0.5051E-02
    -12.072  0.3131E-02  0.5428E-02
    -11.952  0.3137E-02  0.5803E-02
    -11.832  0.3146E-02  0.6180E-02
    -11.712  0.3160E-02  0.6559E-02
    -11.592  0.3164E-02  0.6938E-02
    -11.472  0.3174E-02  0.7318E-02
    -11.352  0.3178E-02  0.7699E-02
    -11.232  0.3187E-02  0.8081E-02
    -11.113  0.3197E-02  0.8464E-02
    -10.993  0.3205E-02  0.8848E-02
    -10.873  0.3207E-02  0.9233E-02
    -10.753  0.3222E-02  0.9619E-02
    -10.633  0.3242E-02  0.1001E-01
    -10.513  0.3251E-02  0.1040E-01
    -10.393  0.3264E-02  0.1079E-01
    -10.273  0.3278E-02  0.1118E-01
    -10.153  0.3289E-02  0.1157E-01
    -10.033  0.3303E-02  0.1197E-01
     -9.913  0.3330E-02  0.1237E-01
     -9.793  0.3363E-02  0.1277E-01
     -9.673  0.3393E-02  0.1317E-01
     -9.553  0.3428E-02  0.1358E-01
     -9.433  0.3483E-02  0.1400E-01
     -9.313  0.3556E-02  0.1442E-01
     -9.193  0.3669E-02  0.1485E-01
     -9.073  0.3831E-02  0.1530E-01
     -8.953  0.4477E-02  0.1579E-01
     -8.833  0.4604E-02  0.1634E-01
     -8.713  0.4455E-02  0.1689E-01
     -8.593  0.5029E-02  0.1745E-01
     -8.473  0.3292E-02  0.1793E-01
     -8.353  0.2920E-02  0.1830E-01
     -8.233  0.2198E-02  0.1863E-01
     -8.113  0.1926E-02  0.1888E-01
     -7.993  0.1653E-02  0.1909E-01
     -7.873  0.1971E-02  0.1931E-01
     -7.753  0.1426E-02  0.1950E-01
     -7.633  0.1220E-02  0.1966E-01
     -7.513  0.1145E-02  0.1980E-01
     -7.393  0.2330E-02  0.1997E-01
     -7.273  0.2778E-02  0.2031E-01
     -7.153  0.3240E-02  0.2068E-01
     -7.033  0.2914E-02  0.2106E-01
     -6.913  0.3503E-02  0.2148E-01
     -6.793  0.4312E-02  0.2194E-01
     -6.673  0.4543E-02  0.2249E-01
     -6.553  0.5413E-02  0.2309E-01
     -6.433  0.4764E-02  0.2369E-01
     -6.313  0.3850E-02  0.2423E-01
     -6.193  0.3686E-02  0.2468E-01
     -6.073  0.3546E-02  0.2511E-01
     -5.953  0.3406E-02  0.2553E-01
     -5.833  0.3259E-02  0.2593E-01
     -5.713  0.3115E-02  0.2631E-01
     -5.593  0.3012E-02  0.2668E-01
     -5.473  0.2961E-02  0.2704E-01
     -5.353  0.2924E-02  0.2739E-01
     -5.233  0.2887E-02  0.2774E-01
     -5.113  0.2846E-02  0.2808E-01
     -4.993  0.2695E-02  0.2841E-01
     -4.873  0.2571E-02  0.2873E-01
     -4.753  0.2974E-02  0.2906E-01
     -4.633  0.3443E-02  0.2944E-01
     -4.513  0.3905E-02  0.2988E-01
     -4.393  0.3769E-02  0.3034E-01
     -4.273  0.3715E-02  0.3079E-01
     -4.153  0.3657E-02  0.3123E-01
     -4.033  0.3605E-02  0.3167E-01
     -3.913  0.3638E-02  0.3210E-01
     -3.793  0.3741E-02  0.3255E-01
     -3.673  0.3838E-02  0.3300E-01
     -3.553  0.3903E-02  0.3346E-01
     -3.433  0.3942E-02  0.3394E-01
     -3.313  0.4082E-02  0.3441E-01
     -3.193  0.4259E-02  0.3492E-01
     -3.073  0.4465E-02  0.3544E-01
     -2.953  0.4663E-02  0.3599E-01
     -2.833  0.4799E-02  0.3656E-01
     -2.713  0.4933E-02  0.3714E-01
     -2.593  0.5065E-02  0.3774E-01
     -2.473  0.5268E-02  0.3836E-01
     -2.353  0.5508E-02  0.3901E-01
     -2.233  0.5723E-02  0.3968E-01
     -2.113  0.5959E-02  0.4038E-01
     -1.994  0.6311E-02  0.4112E-01
     -1.874  0.6511E-02  0.4189E-01
     -1.754  0.6234E-02  0.4266E-01
     -1.634  0.5973E-02  0.4339E-01
     -1.514  0.6111E-02  0.4411E-01
     -1.394  0.6536E-02  0.4486E-01
     -1.274  0.6912E-02  0.4567E-01
     -1.154  0.7304E-02  0.4652E-01
     -1.034  0.8540E-02  0.4748E-01
     -0.914  0.9810E-02  0.4858E-01
     -0.794  0.1128E-01  0.4985E-01
     -0.674  0.1034E-01  0.5117E-01
     -0.554  0.8845E-02  0.5231E-01
     -0.434  0.8026E-02  0.5332E-01
     -0.314  0.7851E-02  0.5427E-01
     -0.194  0.7531E-02  0.5519E-01
     -0.074  0.6704E-02  0.5605E-01
      0.046  0.7113E-02  0.5688E-01
      0.166  0.7552E-02  0.5774E-01
      0.286  0.7262E-02  0.5864E-01
      0.406  0.6812E-02  0.5947E-01
      0.526  0.6245E-02  0.6025E-01
      0.646  0.6187E-02  0.6099E-01
      0.766  0.6308E-02  0.6174E-01
      0.886  0.5955E-02  0.6249E-01
      1.006  0.6525E-02  0.6321E-01
      1.126  0.6877E-02  0.6403E-01
      1.246  0.6360E-02  0.6482E-01
      1.366  0.5992E-02  0.6556E-01
      1.486  0.5801E-02  0.6627E-01
      1.606  0.5787E-02  0.6696E-01
      1.726  0.5907E-02  0.6767E-01
      1.846  0.5809E-02  0.6837E-01
      1.966  0.5677E-02  0.6906E-01
      2.086  0.5613E-02  0.6973E-01
      2.206  0.5864E-02  0.7042E-01
      2.326  0.5775E-02  0.7112E-01
      2.446  0.6203E-02  0.7185E-01
      2.566  0.5571E-02  0.7257E-01
      2.686  0.3756E-02  0.7312E-01
      2.806  0.3711E-02  0.7356E-01
      2.926  0.3857E-02  0.7402E-01
      3.046  0.3755E-02  0.7447E-01
      3.166  0.3723E-02  0.7492E-01
      3.286  0.3767E-02  0.7537E-01
      3.406  0.3795E-02  0.7583E-01
      3.526  0.4039E-02  0.7629E-01
      3.646  0.5034E-02  0.7681E-01
      3.766  0.3801E-02  0.7736E-01
      3.886  0.3181E-02  0.7779E-01
      4.006  0.2697E-02  0.7813E-01
      4.126  0.2394E-02  0.7844E-01
      4.246  0.2000E-02  0.7870E-01
      4.366  0.1801E-02  0.7893E-01
      4.486  0.1585E-02  0.7913E-01
      4.606  0.1336E-02  0.7931E-01
      4.726  0.1105E-02  0.7945E-01
      4.846  0.9917E-03  0.7958E-01
      4.966  0.8554E-03  0.7969E-01
      5.086  0.7319E-03  0.7978E-01
      5.206  0.6497E-03  0.7986E-01
      5.326  0.5012E-03  0.7994E-01
      5.446  0.2560E-03  0.7998E-01
      5.566  0.3330E-04  0.8000E-01
      5.686  0.7795E-04  0.8000E-01
      5.806  0.1786E-03  0.8002E-01
      5.926  0.2843E-03  0.8005E-01
      6.046  0.3950E-03  0.8009E-01
      6.166  0.5130E-03  0.8014E-01
      6.286  0.6097E-03  0.8021E-01
      6.406  0.7533E-03  0.8029E-01
      6.526  0.9280E-03  0.8039E-01
      6.646  0.1128E-02  0.8051E-01
      6.766  0.1344E-02  0.8066E-01
      6.886  0.1692E-02  0.8084E-01
      7.006  0.2972E-02  0.8112E-01
      7.126  0.3596E-02  0.8151E-01
      7.245  0.5813E-02  0.8212E-01
      7.365  0.4897E-02  0.8283E-01
      7.485  0.4121E-02  0.8336E-01
      7.605  0.3929E-02  0.8384E-01
      7.725  0.3793E-02  0.8430E-01
      7.845  0.3734E-02  0.8476E-01
      7.965  0.3510E-02  0.8519E-01
      8.085  0.3480E-02  0.8561E-01
      8.205  0.3586E-02  0.8603E-01
      8.325  0.3149E-02  0.8643E-01
      8.445  0.2981E-02  0.8680E-01
      8.565  0.2842E-02  0.8715E-01
      8.685  0.2732E-02  0.8749E-01
      8.805  0.2634E-02  0.8781E-01
      8.925  0.2541E-02  0.8812E-01
      9.045  0.2466E-02  0.8842E-01
      9.165  0.2403E-02  0.8871E-01
      9.285  0.2347E-02  0.8900E-01
      9.405  0.2296E-02  0.8927E-01
      9.525  0.2247E-02  0.8955E-01
      9.645  0.2200E-02  0.8981E-01
      9.765  0.2153E-02  0.9007E-01
      9.885  0.2107E-02  0.9033E-01
     10.005  0.2060E-02  0.9058E-01
     10.125  0.2024E-02  0.9082E-01
     10.245  0.1984E-02  0.9107E-01
     10.365  0.1949E-02  0.9130E-01
     10.485  0.1916E-02  0.9153E-01
     10.605  0.1885E-02  0.9176E-01
     10.725  0.1854E-02  0.9199E-01
     10.845  0.1823E-02  0.9221E-01
     10.965  0.1793E-02  0.9242E-01
     11.085  0.1794E-02  0.9264E-01
     11.205  0.1917E-02  0.9286E-01
     11.325  0.2050E-02  0.9310E-01
     11.445  0.2078E-02  0.9335E-01
     11.565  0.2108E-02  0.9360E-01
     11.685  0.2153E-02  0.9385E-01
     11.805  0.2192E-02  0.9411E-01
     11.925  0.2234E-02  0.9438E-01
     12.045  0.2304E-02  0.9465E-01
     12.165  0.2396E-02  0.9493E-01
     12.285  0.2752E-02  0.9524E-01
     12.405  0.2770E-02  0.9558E-01
     12.525  0.2545E-02  0.9590E-01
     12.645  0.2448E-02  0.9619E-01
     12.765  0.3063E-02  0.9652E-01
     12.885  0.3809E-02  0.9693E-01
     13.005  0.4327E-02  0.9743E-01
     13.125  0.4814E-02  0.9798E-01
     13.245  0.5490E-02  0.9859E-01
     13.365  0.6739E-02  0.9932E-01
     13.485  0.8273E-02  0.1002E+00
     13.605  0.9549E-02  0.1013E+00
     13.725  0.9747E-02  0.1025E+00
     13.845  0.9409E-02  0.1036E+00
     13.965  0.1326E-01  0.1048E+00
     14.085  0.1244E-01  0.1064E+00
     14.205  0.1021E-01  0.1078E+00
     14.325  0.8358E-02  0.1089E+00
     14.445  0.7052E-02  0.1098E+00
     14.565  0.6276E-02  0.1106E+00
     14.685  0.6622E-02  0.1114E+00
     14.805  0.5918E-02  0.1121E+00
     14.925  0.5429E-02  0.1128E+00
     15.045  0.5641E-02  0.1134E+00
     15.165  0.4249E-02  0.1141E+00
     15.285  0.3077E-02  0.1145E+00
     15.405  0.2928E-02  0.1148E+00
     15.525  0.3073E-02  0.1152E+00
     15.645  0.3153E-02  0.1156E+00
     15.765  0.2956E-02  0.1159E+00
     15.885  0.3171E-02  0.1163E+00
     16.005  0.3690E-02  0.1167E+00
     16.125  0.4175E-02  0.1172E+00
     16.245  0.4978E-02  0.1177E+00
     16.364  0.3924E-02  0.1183E+00
     16.484  0.2940E-02  0.1187E+00
     16.604  0.2356E-02  0.1190E+00
     16.724  0.2415E-02  0.1193E+00
     16.844  0.1181E-02  0.1195E+00
     16.964  0.9737E-03  0.1196E+00
     17.084  0.8672E-03  0.1197E+00
     17.204  0.6949E-03  0.1198E+00
     17.324  0.5631E-03  0.1199E+00
     17.444  0.3529E-03  0.1199E+00
     17.564  0.2192E-03  0.1200E+00
     17.684  0.4603E-04  0.1200E+00
     17.804  0.2290E-05  0.1200E+00
     17.924  0.0000E+00  0.1200E+00
     18.044  0.0000E+00  0.1200E+00
     18.164  0.0000E+00  0.1200E+00
     18.284  0.0000E+00  0.1200E+00
     18.404  0.0000E+00  0.1200E+00
     18.524  0.0000E+00  0.1200E+00
     18.644  0.0000E+00  0.1200E+00
     18.764  0.0000E+00  0.1200E+00
     18.884  0.0000E+00  0.1200E+00
     19.004  0.0000E+00  0.1200E+00
     19.124  0.0000E+00  0.1200E+00
     19.244  0.0000E+00  0.1200E+00
     19.364  0.0000E+00  0.1200E+00
     19.484  0.0000E+00  0.1200E+00
     19.604  0.0000E+00  0.1200E+00
     19.724  0.0000E+00  0.1200E+00
     19.844  0.0000E+00  0.1200E+00
