    4    4  200    1
  0.7976710E+01  0.2467155E-09  0.2467155E-09  0.6053168E-09  0.5000000E-15
  1.000000000000000E-004
  CAR 
 graphite                                
     16    455     12
 
  0.0000000E+00  0.0000000E+00  0.0000000E+00  0.3858025E-03
    1      -14.151953
    2      -13.515770
    3       -3.380286
    4       -0.167754
    5        2.629766
    6        2.634392
    7        2.680999
    8        2.685588
    9       11.035003
   10       13.927995
   11       13.931460
   12       14.050599
 
  0.5555556E-01 -0.6938894E-17  0.0000000E+00  0.1543210E-02
    1      -14.077724
    2      -13.443966
    3       -3.290019
    4       -0.086418
    5        2.325666
    6        2.395099
    7        2.468182
    8        2.532448
    9       11.117848
   10       13.955552
   11       14.101693
   12       14.246135
 
  0.1111111E+00 -0.1387779E-16  0.0000000E+00  0.1543210E-02
    1      -13.855396
    2      -13.229166
    3       -3.020686
    4        0.156174
    5        1.485972
    6        1.595924
    7        2.041489
    8        2.128667
    9       11.367618
   10       13.951789
   11       14.186072
   12       15.133785
 
  0.1666667E+00 -0.1387779E-16  0.0000000E+00  0.1543210E-02
    1      -13.486169
    2      -12.872406
    3       -2.574508
    4        0.285090
    5        0.444035
    6        0.555328
    7        1.473199
    8        1.579421
    9       11.784210
   10       13.817940
   11       14.193807
   12       14.591722
 
  0.2222222E+00 -0.1387779E-16  0.0000000E+00  0.1543210E-02
    1      -12.971865
    2      -12.375389
    3       -1.956027
    4       -1.116535
    5       -0.906251
    6        0.872398
    7        0.992569
    8        1.101606
    9       12.358834
   10       13.113690
   11       13.579595
   12       14.103326
 
  0.2777778E+00 -0.2775558E-16  0.0000000E+00  0.1543210E-02
    1      -12.315699
    2      -11.741265
    3       -2.603190
    4       -2.342163
    5       -1.173643
    6        0.314857
    7        0.444189
    8        1.776172
    9       11.481686
   10       12.761680
   11       13.012910
   12       13.357010
 
  0.3333333E+00 -0.2775558E-16  0.0000000E+00  0.1543210E-02
    1      -11.522917
    2      -10.975222
    3       -4.096773
    4       -3.787600
    5       -0.242958
    6       -0.152666
    7       -0.017385
    8        2.538120
    9        9.841533
   10       11.368522
   11       12.990964
   12       13.600975
 
  0.3888889E+00 -0.2775558E-16  0.0000000E+00  0.1543210E-02
    1      -10.602494
    2      -10.088068
    3       -5.540965
    4       -5.189578
    5       -0.502388
    6       -0.362964
    7        0.802670
    8        3.281381
    9        8.375159
   10       10.009144
   11       12.796404
   12       13.536917
 
  0.4444444E+00 -0.2775558E-16  0.0000000E+00  0.1543210E-02
    1       -9.580520
    2       -9.117173
    3       -6.868239
    4       -6.496130
    5       -0.717934
    6       -0.575932
    7        1.869088
    8        3.708814
    9        7.431328
   10        8.806204
   11       12.668508
   12       13.457117
 
  0.5000000E+00 -0.5551115E-16  0.0000000E+00  0.7716049E-03
    1       -8.750218
    2       -8.508551
    3       -7.597913
    4       -7.422156
    5       -0.790501
    6       -0.647797
    7        2.513165
    8        3.625320
    9        7.288140
   10        8.166219
   11       12.624589
   12       13.427640
 
  0.5555556E-01  0.5555556E-01  0.0000000E+00  0.7716049E-03
    1      -13.929434
    2      -13.300677
    3       -3.110217
    4        0.075566
    5        1.792753
    6        1.859716
    7        2.161612
    8        2.217048
    9       11.284561
   10       14.053418
   11       14.225863
   12       14.763723
 
  0.1111111E+00  0.5555556E-01  0.0000000E+00  0.1543210E-02
    1      -13.633664
    2      -13.014839
    3       -2.752371
    4        0.396593
    5        0.826808
    6        0.937029
    7        1.606530
    8        1.689030
    9       11.619908
   10       14.118711
   11       14.390891
   12       15.074795
 
  0.1666667E+00  0.5555556E-01  0.0000000E+00  0.1543210E-02
    1      -13.191883
    2      -12.587977
    3       -2.219848
    4       -0.436740
    5       -0.266125
    6        0.869926
    7        0.971364
    8        1.083326
    9       12.121502
   10       13.771319
   11       13.992158
   12       14.424262
 
  0.2222222E+00  0.5555556E-01  0.0000000E+00  0.1543210E-02
    1      -12.606636
    2      -12.022431
    3       -1.857292
    4       -1.629745
    5       -1.518822
    6        0.360914
    7        0.491964
    8        1.482523
    9       12.239929
   10       12.774613
   11       13.321450
   12       13.756687
 
  0.2777778E+00  0.5555556E-01  0.0000000E+00  0.1543210E-02
    1      -11.881959
    2      -11.322187
    3       -3.333727
    4       -3.053442
    5       -0.660478
    6       -0.169418
    7       -0.026560
    8        2.207502
    9       10.615694
   10       11.967700
   11       13.367186
   12       13.663458
 
  0.3333333E+00  0.5555556E-01  0.0000000E+00  0.1543210E-02
    1      -11.024670
    2      -10.494785
    3       -4.795690
    4       -4.468258
    5       -0.587700
    6       -0.437695
    7        0.332964
    8        2.981679
    9        9.052685
   10       10.605205
   11       13.211835
   12       13.899173
 
  0.3888889E+00  0.5555556E-01  0.0000000E+00  0.1543210E-02
    1      -10.049191
    2       -9.557771
    3       -6.185778
    4       -5.821417
    5       -0.875268
    6       -0.720895
    7        1.408551
    8        3.625630
    9        7.795364
   10        9.319277
   11       13.048280
   12       13.821742
 
  0.4444444E+00  0.5555556E-01  0.0000000E+00  0.1543210E-02
    1       -9.021245
    2       -8.627728
    3       -7.360634
    4       -7.029763
    5       -1.021458
    6       -0.864952
    7        2.377749
    8        3.751065
    9        7.290445
   10        8.302459
   11       12.961225
   12       13.766400
 
  0.5000000E+00  0.5555556E-01  0.0000000E+00  0.1543210E-02
    1       -9.021428
    2       -8.627870
    3       -7.360477
    4       -7.029561
    5       -1.021494
    6       -0.864989
    7        2.377682
    8        3.751098
    9        7.290431
   10        8.302454
   11       12.961306
   12       13.766492
 
 -0.4444444E+00  0.5555556E-01  0.0000000E+00  0.1543210E-02
    1      -10.049387
    2       -9.557963
    3       -6.185538
    4       -5.821179
    5       -0.875368
    6       -0.720998
    7        1.408448
    8        3.625631
    9        7.795348
   10        9.319229
   11       13.048529
   12       13.822024
 
 -0.3888889E+00  0.5555556E-01  0.0000000E+00  0.1543210E-02
    1      -11.024846
    2      -10.494960
    3       -4.795458
    4       -4.468038
    5       -0.587835
    6       -0.437841
    7        0.332860
    8        2.981647
    9        9.052637
   10       10.605091
   11       13.212266
   12       13.899646
 
 -0.3333333E+00  0.5555556E-01  0.0000000E+00  0.1543210E-02
    1      -11.882110
    2      -11.322337
    3       -3.333551
    4       -3.053299
    5       -0.660574
    6       -0.169522
    7       -0.026695
    8        2.207458
    9       10.615571
   10       11.967511
   11       13.367664
   12       13.663661
 
 -0.2777778E+00  0.5555556E-01  0.0000000E+00  0.1543210E-02
    1      -12.606760
    2      -12.022554
    3       -1.857270
    4       -1.629799
    5       -1.518906
    6        0.360981
    7        0.491954
    8        1.482477
    9       12.239697
   10       12.774554
   11       13.321194
   12       13.757550
 
 -0.2222222E+00  0.5555556E-01  0.0000000E+00  0.1543210E-02
    1      -13.191980
    2      -12.588073
    3       -2.219916
    4       -0.437084
    5       -0.266648
    6        0.869886
    7        0.971903
    8        1.083678
    9       12.121425
   10       13.770966
   11       13.993451
   12       14.425846
 
 -0.1666667E+00  0.5555556E-01  0.0000000E+00  0.1543210E-02
    1      -13.633733
    2      -13.014907
    3       -2.752420
    4        0.396562
    5        0.825614
    6        0.935493
    7        1.608116
    8        1.690247
    9       11.619845
   10       14.120746
   11       14.393243
   12       15.073624
 
 -0.1111111E+00  0.5555556E-01  0.0000000E+00  0.1543210E-02
    1      -13.929475
    2      -13.300718
    3       -3.110248
    4        0.075546
    5        1.789793
    6        1.856792
    7        2.164618
    8        2.220045
    9       11.284519
   10       14.056485
   11       14.229001
   12       14.764437
 
 -0.5555556E-01  0.5555556E-01  0.0000000E+00  0.7716049E-03
    1      -14.077738
    2      -13.443979
    3       -3.290030
    4       -0.086424
    5        2.322298
    6        2.391771
    7        2.471565
    8        2.535827
    9       11.117833
   10       13.958150
   11       14.104347
   12       14.242773
 
  0.1111111E+00  0.1111111E+00  0.0000000E+00  0.7716049E-03
    1      -13.265375
    2      -12.659044
    3       -2.308156
    4       -0.071152
    5        0.028078
    6        0.792225
    7        0.908966
    8        0.980887
    9       12.043808
   10       14.032319
   11       14.531217
   12       14.782772
 
  0.1666667E+00  0.1111111E+00  0.0000000E+00  0.1543210E-02
    1      -12.752629
    2      -12.163515
    3       -1.692361
    4       -1.235463
    5       -1.081384
    6        0.149057
    7        0.257191
    8        1.333980
    9       12.634272
   10       12.730436
   11       13.583104
   12       14.652673
 
  0.2222222E+00  0.1111111E+00  0.0000000E+00  0.1543210E-02
    1      -12.098810
    2      -11.531697
    3       -2.583955
    4       -2.356802
    5       -0.913368
    6       -0.513035
    7       -0.365584
    8        2.003843
    9       11.251015
   10       12.317643
   11       13.376927
   12       14.485865
 
  0.2777778E+00  0.1111111E+00  0.0000000E+00  0.1543210E-02
    1      -11.309221
    2      -10.769264
    3       -3.998900
    4       -3.710736
    5       -1.034482
    6       -0.864367
    7        0.013566
    8        2.763984
    9        9.716615
   10       11.020706
   11       14.115649
   12       14.383289
 
  0.3333333E+00  0.1111111E+00  0.0000000E+00  0.1543210E-02
    1      -10.393922
    2       -9.887161
    3       -5.396768
    4       -5.060140
    5       -1.410470
    6       -1.228266
    7        1.056264
    8        3.515246
    9        8.307066
   10        9.745529
   11       14.014408
   12       14.759239
 
  0.3888889E+00  0.1111111E+00  0.0000000E+00  0.1543210E-02
    1       -9.379714
    2       -8.924292
    3       -6.696513
    4       -6.335280
    5       -1.637750
    6       -1.449628
    7        2.124609
    8        3.963368
    9        7.386197
   10        8.585854
   11       13.888220
   12       14.712057
 
  0.4444444E+00  0.1111111E+00  0.0000000E+00  0.1543210E-02
    1       -8.559765
    2       -8.321503
    3       -7.413080
    4       -7.245065
    5       -1.713923
    6       -1.523882
    7        2.777854
    8        3.878743
    9        7.299829
   10        7.910507
   11       13.843714
   12       14.685872
 
  0.5000000E+00  0.1111111E+00  0.0000000E+00  0.1543210E-02
    1       -9.380101
    2       -8.924666
    3       -6.696077
    4       -6.334831
    5       -1.637853
    6       -1.449599
    7        2.124428
    8        3.963421
    9        7.386138
   10        8.585803
   11       13.888520
   12       14.712419
 
 -0.4444444E+00  0.1111111E+00  0.0000000E+00  0.1543210E-02
    1      -10.394295
    2       -9.887530
    3       -5.396312
    4       -5.059705
    5       -1.410633
    6       -1.228453
    7        1.056060
    8        3.515217
    9        8.306961
   10        9.745362
   11       14.015042
   12       14.759978
 
 -0.3888889E+00  0.1111111E+00  0.0000000E+00  0.1543210E-02
    1      -11.309547
    2      -10.769588
    3       -3.998541
    4       -3.710437
    5       -1.034587
    6       -0.864535
    7        0.013370
    8        2.763912
    9        9.716374
   10       11.020409
   11       14.116289
   12       14.383528
 
 -0.3333333E+00  0.1111111E+00  0.0000000E+00  0.1543210E-02
    1      -12.099085
    2      -11.531970
    3       -2.583892
    4       -2.356883
    5       -0.913545
    6       -0.512814
    7       -0.365517
    8        2.003757
    9       11.250558
   10       12.317233
   11       13.376725
   12       14.487409
 
 -0.2777778E+00  0.1111111E+00  0.0000000E+00  0.1543210E-02
    1      -12.752849
    2      -12.163734
    3       -1.692510
    4       -1.236135
    5       -1.082306
    6        0.150103
    7        0.257967
    8        1.333897
    9       12.634072
   10       12.729718
   11       13.582633
   12       14.655387
 
 -0.2222222E+00  0.1111111E+00  0.0000000E+00  0.1543210E-02
    1      -13.265540
    2      -12.659208
    3       -2.308272
    4       -0.073247
    5        0.026008
    6        0.792155
    7        0.911189
    8        0.983099
    9       12.043650
   10       14.031420
   11       14.535775
   12       14.808954
 
 -0.1666667E+00  0.1111111E+00  0.0000000E+00  0.1543210E-02
    1      -13.633774
    2      -13.014948
    3       -2.752450
    4        0.396543
    5        0.823638
    6        0.933932
    7        1.609815
    8        1.692351
    9       11.619796
   10       14.122927
   11       14.395046
   12       15.073145
 
 -0.1111111E+00  0.1111111E+00  0.0000000E+00  0.7716049E-03
    1      -13.855451
    2      -13.229221
    3       -3.020726
    4        0.156148
    5        1.482793
    6        1.592778
    7        2.044791
    8        2.131968
    9       11.367557
   10       13.954878
   11       14.189050
   12       15.135012
 
  0.1666667E+00  0.1666667E+00  0.0000000E+00  0.7716049E-03
    1      -12.171324
    2      -11.601767
    3       -2.147735
    4       -2.015969
    5       -0.998063
    6       -0.762672
    7       -0.666533
    8        1.935105
    9       11.521375
   10       12.411624
   11       13.311986
   12       15.452697
 
  0.2222222E+00  0.1666667E+00  0.0000000E+00  0.1543210E-02
    1      -11.452381
    2      -10.907320
    3       -3.291427
    4       -3.092804
    5       -1.551588
    6       -1.407159
    7       -0.147848
    8        2.650147
    9       10.179076
   10       11.193810
   11       14.138740
   12       15.588320
 
  0.2777778E+00  0.1666667E+00  0.0000000E+00  0.1543210E-02
    1      -10.603725
    2      -10.088743
    3       -4.583697
    4       -4.303961
    5       -2.111387
    6       -1.918360
    7        0.837465
    8        3.426219
    9        8.800102
   10        9.988753
   11       15.064281
   12       15.439577
 
  0.3333333E+00  0.1666667E+00  0.0000000E+00  0.1543210E-02
    1       -9.641054
    2       -9.164987
    3       -5.883426
    4       -5.549948
    5       -2.460945
    6       -2.244611
    7        1.909811
    8        4.105183
    9        7.617261
   10        8.833358
   11       15.207761
   12       16.016009
 
  0.3888889E+00  0.1666667E+00  0.0000000E+00  0.1543210E-02
    1       -8.631925
    2       -8.252054
    3       -7.009760
    4       -6.700773
    5       -2.630303
    6       -2.404749
    7        2.893869
    8        4.260653
    9        7.180257
   10        7.825020
   11       15.120945
   12       16.059938
 
  0.4444444E+00  0.1666667E+00  0.0000000E+00  0.1543210E-02
    1       -8.632463
    2       -8.252470
    3       -7.009319
    4       -6.700206
    5       -2.630344
    6       -2.404801
    7        2.893685
    8        4.260767
    9        7.180126
   10        7.825016
   11       15.121140
   12       16.060216
 
  0.5000000E+00  0.1666667E+00  0.0000000E+00  0.1543210E-02
    1       -9.641638
    2       -9.165557
    3       -5.882794
    4       -5.549342
    5       -2.461019
    6       -2.244731
    7        1.909533
    8        4.105217
    9        7.617035
   10        8.833198
   11       15.208398
   12       16.016595
 
 -0.4444444E+00  0.1666667E+00  0.0000000E+00  0.1543210E-02
    1      -10.604249
    2      -10.089263
    3       -4.583222
    4       -4.303588
    5       -2.111304
    6       -1.918399
    7        0.837178
    8        3.426157
    9        8.799683
   10        9.988435
   11       15.064114
   12       15.440346
 
 -0.3888889E+00  0.1666667E+00  0.0000000E+00  0.1543210E-02
    1      -11.452831
    2      -10.907767
    3       -3.291497
    4       -3.093075
    5       -1.550927
    6       -1.406732
    7       -0.148118
    8        2.650041
    9       10.178329
   10       11.193372
   11       14.138289
   12       15.590613
 
 -0.3333333E+00  0.1666667E+00  0.0000000E+00  0.1543210E-02
    1      -12.171681
    2      -11.602131
    3       -2.149008
    4       -2.017198
    5       -0.998300
    6       -0.761051
    7       -0.664845
    8        1.934988
    9       11.520253
   10       12.411106
   11       13.311611
   12       15.458068
 
 -0.2777778E+00  0.1666667E+00  0.0000000E+00  0.1543210E-02
    1      -12.752918
    2      -12.163802
    3       -1.692554
    4       -1.237754
    5       -1.083553
    6        0.151578
    7        0.259804
    8        1.333872
    9       12.633986
   10       12.729057
   11       13.582516
   12       14.658141
 
 -0.2222222E+00  0.1666667E+00  0.0000000E+00  0.1543210E-02
    1      -13.192090
    2      -12.588183
    3       -2.219991
    4       -0.439506
    5       -0.268879
    6        0.869841
    7        0.974492
    8        1.086436
    9       12.121297
   10       13.769922
   11       13.996640
   12       14.428798
 
 -0.1666667E+00  0.1666667E+00  0.0000000E+00  0.7716049E-03
    1      -13.486293
    2      -12.872529
    3       -2.574595
    4        0.282188
    5        0.441164
    6        0.555274
    7        1.476403
    8        1.582627
    9       11.784075
   10       13.821501
   11       14.197194
   12       14.590607
 
  0.2222222E+00  0.2222222E+00  0.0000000E+00  0.7716049E-03
    1      -10.673891
    2      -10.156458
    3       -4.078429
    4       -3.915665
    5       -2.503369
    6       -2.382882
    7        0.763451
    8        3.392741
    9        9.023151
   10       10.047069
   11       15.032524
   12       16.702460
 
  0.2777778E+00  0.2222222E+00  0.0000000E+00  0.1543210E-02
    1       -9.775260
    2       -9.291714
    3       -5.113629
    4       -4.874787
    5       -3.194542
    6       -3.014087
    7        1.792509
    8        4.162432
    9        7.839458
   10        8.948233
   11       16.020189
   12       16.728119
 
  0.3333333E+00  0.2222222E+00  0.0000000E+00  0.1543210E-02
    1       -8.785796
    2       -8.353531
    3       -6.253752
    4       -5.947561
    5       -3.564533
    6       -3.333120
    7        2.864149
    8        4.702462
    9        6.944084
   10        7.932851
   11       16.539436
   12       17.090530
 
  0.3888889E+00  0.2222222E+00  0.0000000E+00  0.1543210E-02
    1       -7.990402
    2       -7.762710
    3       -6.914453
    4       -6.792854
    5       -3.677157
    6       -3.432023
    7        3.555394
    8        4.613097
    9        6.969493
   10        7.204196
   11       16.497463
   12       17.675342
 
  0.4444444E+00  0.2222222E+00  0.0000000E+00  0.1543210E-02
    1       -8.786573
    2       -8.354265
    3       -6.253050
    4       -5.946880
    5       -3.564429
    6       -3.333097
    7        2.863857
    8        4.702638
    9        6.943663
   10        7.932757
   11       16.539935
   12       17.089666
 
  0.5000000E+00  0.2222222E+00  0.0000000E+00  0.1543210E-02
    1       -9.775997
    2       -9.292440
    3       -5.113219
    4       -4.874527
    5       -3.194035
    6       -3.013784
    7        1.792168
    8        4.162452
    9        7.838775
   10        8.947968
   11       16.019388
   12       16.728991
 
 -0.4444444E+00  0.2222222E+00  0.0000000E+00  0.1543210E-02
    1      -10.674538
    2      -10.157101
    3       -4.079009
    4       -3.916187
    5       -2.502140
    6       -2.381650
    7        0.763108
    8        3.392661
    9        9.022070
   10       10.046677
   11       15.031772
   12       16.706005
 
 -0.3888889E+00  0.2222222E+00  0.0000000E+00  0.1543210E-02
    1      -11.452927
    2      -10.907863
    3       -3.292939
    4       -3.094170
    5       -1.549573
    6       -1.405031
    7       -0.148165
    8        2.650024
    9       10.177604
   10       11.193270
   11       14.138160
   12       15.594286
 
 -0.3333333E+00  0.2222222E+00  0.0000000E+00  0.1543210E-02
    1      -12.099249
    2      -11.532134
    3       -2.585963
    4       -2.358766
    5       -0.913640
    6       -0.510440
    7       -0.362971
    8        2.003712
    9       11.249299
   10       12.316929
   11       13.376539
   12       14.491112
 
 -0.2777778E+00  0.2222222E+00  0.0000000E+00  0.1543210E-02
    1      -12.606966
    2      -12.022759
    3       -1.859654
    4       -1.632096
    5       -1.519036
    6        0.363894
    7        0.494930
    8        1.482407
    9       12.238151
   10       12.774366
   11       13.320665
   12       13.761220
 
 -0.2222222E+00  0.2222222E+00  0.0000000E+00  0.7716049E-03
    1      -12.972086
    2      -12.375608
    3       -1.956174
    4       -1.119129
    5       -0.908816
    6        0.875533
    7        0.995705
    8        1.101521
    9       12.358632
   10       13.112089
   11       13.583475
   12       14.106137
 
  0.2777778E+00  0.2777778E+00  0.0000000E+00  0.7716049E-03
    1       -8.843774
    2       -8.402081
    3       -5.724942
    4       -5.534574
    5       -4.041051
    6       -3.910654
    7        2.841484
    8        4.901180
    9        6.831180
   10        7.986701
   11       16.980503
   12       17.844111
 
  0.3333333E+00  0.2777778E+00  0.0000000E+00  0.1543210E-02
    1       -7.875350
    2       -7.519458
    3       -6.543299
    4       -6.320796
    5       -4.499511
    6       -4.319555
    7        3.854846
    8        5.227675
    9        6.189638
   10        7.206338
   11       17.449746
   12       17.627543
 
  0.3888889E+00  0.2777778E+00  0.0000000E+00  0.1543210E-02
    1       -7.876202
    2       -7.520135
    3       -6.542819
    4       -6.320207
    5       -4.499205
    6       -4.319353
    7        3.854671
    8        5.227986
    9        6.189156
   10        7.206247
   11       17.450016
   12       17.627179
 
  0.4444444E+00  0.2777778E+00  0.0000000E+00  0.1543210E-02
    1       -8.844713
    2       -8.402995
    3       -5.724968
    4       -5.534529
    5       -4.040064
    6       -3.909652
    7        2.841182
    8        4.901408
    9        6.830216
   10        7.986442
   11       16.979246
   12       17.835932
 
  0.5000000E+00  0.2777778E+00  0.0000000E+00  0.1543210E-02
    1       -9.776119
    2       -9.292564
    3       -5.114485
    4       -4.875480
    5       -3.192835
    6       -3.012253
    7        1.792154
    8        4.162460
    9        7.838096
   10        8.947828
   11       16.019201
   12       16.733517
 
 -0.4444444E+00  0.2777778E+00  0.0000000E+00  0.1543210E-02
    1      -10.604467
    2      -10.089481
    3       -4.585017
    4       -4.305218
    5       -2.109151
    6       -1.916091
    7        0.837103
    8        3.426145
    9        8.798400
   10        9.988119
   11       15.064105
   12       15.444452
 
 -0.3888889E+00  0.2777778E+00  0.0000000E+00  0.1543210E-02
    1      -11.309834
    2      -10.769875
    3       -4.000580
    4       -3.712391
    5       -1.031875
    6       -0.861758
    7        0.013233
    8        2.763865
    9        9.714702
   10       11.019828
   11       14.118050
   12       14.385815
 
 -0.3333333E+00  0.2777778E+00  0.0000000E+00  0.1543210E-02
    1      -11.882439
    2      -11.322664
    3       -3.335730
    4       -3.055430
    5       -0.660758
    6       -0.166502
    7       -0.023651
    8        2.207376
    9       10.613695
   10       11.966703
   11       13.369918
   12       13.665609
 
 -0.2777778E+00  0.2777778E+00  0.0000000E+00  0.7716049E-03
    1      -12.316042
    2      -11.741606
    3       -2.605467
    4       -2.344415
    5       -1.173854
    6        0.317955
    7        0.447285
    8        1.776066
    9       11.479770
   10       12.760790
   11       13.013478
   12       13.360507
 
  0.3333333E+00  0.3333333E+00  0.0000000E+00  0.7716049E-03
    1       -7.135287
    2       -6.919495
    3       -6.919217
    4       -6.702391
    5       -4.845006
    6       -4.844795
    7        4.515275
    8        5.541079
    9        5.542084
   10        6.900942
   11       17.329373
   12       17.342429
 
  0.3888889E+00  0.3333333E+00  0.0000000E+00  0.1543210E-02
    1       -7.876371
    2       -7.520383
    3       -6.543678
    4       -6.320950
    5       -4.498272
    6       -4.318104
    7        3.854872
    8        5.227617
    9        6.189024
   10        7.205874
   11       17.449720
   12       17.630837
 
  0.4444444E+00  0.3333333E+00  0.0000000E+00  0.1543210E-02
    1       -8.786845
    2       -8.354555
    3       -6.254529
    4       -5.948236
    5       -3.562581
    6       -3.331113
    7        2.863954
    8        4.702547
    9        6.942622
   10        7.932306
   11       16.544077
   12       17.089552
 
  0.5000000E+00  0.3333333E+00  0.0000000E+00  0.1543210E-02
    1       -9.642004
    2       -9.165928
    3       -5.884510
    4       -5.550988
    5       -2.458608
    6       -2.242262
    7        1.909507
    8        4.105201
    9        7.615409
   10        8.832562
   11       15.212694
   12       16.019143
 
 -0.4444444E+00  0.3333333E+00  0.0000000E+00  0.1543210E-02
    1      -10.394730
    2       -9.887966
    3       -5.398154
    4       -5.061502
    5       -1.407827
    6       -1.225622
    7        1.055929
    8        3.515190
    9        8.305027
   10        9.744462
   11       14.019155
   12       14.763720
 
 -0.3888889E+00  0.3333333E+00  0.0000000E+00  0.1543210E-02
    1      -11.025323
    2      -10.495436
    3       -4.797377
    4       -4.469926
    5       -0.584789
    6       -0.434789
    7        0.332650
    8        2.981583
    9        9.050559
   10       10.603997
   11       13.216221
   12       13.903325
 
 -0.3333333E+00  0.3333333E+00  0.0000000E+00  0.7716049E-03
    1      -11.523409
    2      -10.975713
    3       -4.098741
    4       -3.789546
    5       -0.243218
    6       -0.149585
    7       -0.014307
    8        2.538018
    9        9.839432
   10       11.367385
   11       12.994906
   12       13.604320
 
  0.3888889E+00  0.3888889E+00  0.0000000E+00  0.7716049E-03
    1       -7.991117
    2       -7.763519
    3       -6.915518
    4       -6.793839
    5       -3.675155
    6       -3.429962
    7        3.555769
    8        4.612488
    9        6.968836
   10        7.203166
   11       16.502108
   12       17.679467
 
  0.4444444E+00  0.3888889E+00  0.0000000E+00  0.1543210E-02
    1       -8.633011
    2       -8.253095
    3       -7.010762
    4       -6.701663
    5       -2.627893
    6       -2.402327
    7        2.893935
    8        4.260341
    9        7.178633
   10        7.823968
   11       15.125757
   12       16.064831
 
  0.5000000E+00  0.3888889E+00  0.0000000E+00  0.1543210E-02
    1       -9.380706
    2       -8.925287
    3       -6.697669
    4       -6.336398
    5       -1.635049
    6       -1.446787
    7        2.124446
    8        3.963257
    9        7.384190
   10        8.584536
   11       13.892898
   12       14.716770
 
 -0.4444444E+00  0.3888889E+00  0.0000000E+00  0.1543210E-02
    1      -10.050036
    2       -9.558616
    3       -6.187188
    4       -5.822803
    5       -0.872333
    6       -0.717964
    7        1.408300
    8        3.625567
    9        7.793181
   10        9.317836
   11       13.052713
   12       13.826171
 
 -0.3888889E+00  0.3888889E+00  0.0000000E+00  0.7716049E-03
    1      -10.603157
    2      -10.088732
    3       -5.542615
    4       -5.191223
    5       -0.499312
    6       -0.359833
    7        0.802416
    8        3.281322
    9        8.372950
   10       10.007764
   11       12.800583
   12       13.541062
 
  0.4444444E+00  0.4444444E+00  0.0000000E+00  0.7716049E-03
    1       -8.560659
    2       -8.322493
    3       -7.414301
    4       -7.246254
    5       -1.711163
    6       -1.521119
    7        2.778185
    8        3.878098
    9        7.298277
   10        7.908816
   11       13.848262
   12       14.690439
 
  0.5000000E+00  0.4444444E+00  0.0000000E+00  0.1543210E-02
    1       -9.022258
    2       -8.628744
    3       -7.361857
    4       -7.030932
    5       -1.018488
    6       -0.861986
    7        2.377845
    8        3.750644
    9        7.288582
   10        8.300644
   11       12.965620
   12       13.770798
 
 -0.4444444E+00  0.4444444E+00  0.0000000E+00  0.7716049E-03
    1       -9.581372
    2       -9.118032
    3       -6.869656
    4       -6.497521
    5       -0.714859
    6       -0.572862
    7        1.868999
    8        3.708636
    9        7.429204
   10        8.804514
   11       12.672766
   12       13.461364
 
  0.5000000E+00  0.5000000E+00  0.0000000E+00  0.3858025E-03
    1       -8.751172
    2       -8.509601
    3       -7.599163
    4       -7.423374
    5       -0.787426
    6       -0.644728
    7        2.513472
    8        3.624651
    9        7.286438
   10        8.164147
   11       12.628869
   12       13.431914
 