  32  32   0   0
  0.8817899E+01  0.4932875E-09  0.4932875E-09  0.1339614E-08  0.5000000E-15
  1.000000000000000E-004
  CAR 
 graphite                                
     15.69211076    -16.94139521  301      4.68563229      1.00000000
    -16.941  0.0000E+00  0.0000E+00
    -16.833  0.0000E+00  0.0000E+00
    -16.724  0.0000E+00  0.0000E+00
    -16.615  0.0000E+00  0.0000E+00
    -16.506  0.0000E+00  0.0000E+00
    -16.398  0.0000E+00  0.0000E+00
    -16.289  0.0000E+00  0.0000E+00
    -16.180  0.0000E+00  0.0000E+00
    -16.071  0.0000E+00  0.0000E+00
    -15.962  0.0000E+00  0.0000E+00
    -15.854  0.0000E+00  0.0000E+00
    -15.745  0.0000E+00  0.0000E+00
    -15.636  0.0000E+00  0.0000E+00
    -15.527  0.0000E+00  0.0000E+00
    -15.418  0.0000E+00  0.0000E+00
    -15.310  0.0000E+00  0.0000E+00
    -15.201  0.0000E+00  0.0000E+00
    -15.092  0.0000E+00  0.0000E+00
    -14.983  0.0000E+00  0.0000E+00
    -14.875  0.6582E+00  0.1701E-01
    -14.766  0.2520E+01  0.2025E+00
    -14.657  0.3426E+01  0.5157E+00
    -14.548  0.5004E+01  0.9819E+00
    -14.439  0.4849E+01  0.1526E+01
    -14.331  0.5013E+01  0.2065E+01
    -14.222  0.4984E+01  0.2609E+01
    -14.113  0.4885E+01  0.3148E+01
    -14.004  0.4862E+01  0.3676E+01
    -13.896  0.5112E+01  0.4218E+01
    -13.787  0.5502E+01  0.4788E+01
    -13.678  0.7281E+01  0.5519E+01
    -13.569  0.7384E+01  0.6320E+01
    -13.460  0.5846E+01  0.7126E+01
    -13.352  0.2359E+01  0.7528E+01
    -13.243  0.1849E+01  0.7749E+01
    -13.134  0.2076E+01  0.7957E+01
    -13.025  0.2477E+01  0.8205E+01
    -12.917  0.3223E+01  0.8502E+01
    -12.808  0.1038E+02  0.9283E+01
    -12.699  0.8176E+01  0.1016E+02
    -12.590  0.6779E+01  0.1101E+02
    -12.481  0.4042E+01  0.1152E+02
    -12.373  0.4153E+01  0.1196E+02
    -12.264  0.4281E+01  0.1242E+02
    -12.155  0.4436E+01  0.1290E+02
    -12.046  0.4581E+01  0.1339E+02
    -11.938  0.4712E+01  0.1389E+02
    -11.829  0.5082E+01  0.1442E+02
    -11.720  0.5523E+01  0.1499E+02
    -11.611  0.6415E+01  0.1562E+02
    -11.502  0.5985E+01  0.1630E+02
    -11.394  0.5618E+01  0.1693E+02
    -11.285  0.5515E+01  0.1753E+02
    -11.176  0.5681E+01  0.1814E+02
    -11.067  0.5848E+01  0.1877E+02
    -10.959  0.6015E+01  0.1941E+02
    -10.850  0.5743E+01  0.2006E+02
    -10.741  0.5588E+01  0.2067E+02
    -10.632  0.5485E+01  0.2127E+02
    -10.523  0.4776E+01  0.2184E+02
    -10.415  0.3833E+01  0.2230E+02
    -10.306  0.4623E+01  0.2275E+02
    -10.197  0.4996E+01  0.2328E+02
    -10.088  0.5183E+01  0.2383E+02
     -9.980  0.6736E+01  0.2446E+02
     -9.871  0.9418E+01  0.2532E+02
     -9.762  0.1004E+02  0.2649E+02
     -9.653  0.7706E+01  0.2746E+02
     -9.544  0.5494E+01  0.2817E+02
     -9.436  0.4597E+01  0.2870E+02
     -9.327  0.4114E+01  0.2918E+02
     -9.218  0.3631E+01  0.2960E+02
     -9.109  0.5297E+01  0.3025E+02
     -9.001  0.3847E+01  0.3083E+02
     -8.892  0.1891E+01  0.3106E+02
     -8.783  0.1685E+01  0.3125E+02
     -8.674  0.1478E+01  0.3142E+02
     -8.565  0.1271E+01  0.3157E+02
     -8.457  0.1446E+01  0.3171E+02
     -8.348  0.1945E+01  0.3190E+02
     -8.239  0.2445E+01  0.3214E+02
     -8.130  0.2983E+01  0.3243E+02
     -8.022  0.6932E+01  0.3293E+02
     -7.913  0.9731E+01  0.3396E+02
     -7.804  0.5061E+01  0.3465E+02
     -7.695  0.5469E+01  0.3521E+02
     -7.586  0.6643E+01  0.3587E+02
     -7.478  0.7818E+01  0.3665E+02
     -7.369  0.8993E+01  0.3757E+02
     -7.260  0.8742E+01  0.3859E+02
     -7.151  0.5628E+01  0.3940E+02
     -7.043  0.5583E+01  0.4001E+02
     -6.934  0.5581E+01  0.4061E+02
     -6.825  0.5496E+01  0.4122E+02
     -6.716  0.5338E+01  0.4181E+02
     -6.607  0.5154E+01  0.4238E+02
     -6.499  0.5034E+01  0.4293E+02
     -6.390  0.4915E+01  0.4347E+02
     -6.281  0.4797E+01  0.4400E+02
     -6.172  0.4678E+01  0.4452E+02
     -6.064  0.4559E+01  0.4502E+02
     -5.955  0.4440E+01  0.4551E+02
     -5.846  0.4348E+01  0.4599E+02
     -5.737  0.4910E+01  0.4649E+02
     -5.628  0.5504E+01  0.4705E+02
     -5.520  0.6098E+01  0.4768E+02
     -5.411  0.6692E+01  0.4838E+02
     -5.302  0.7286E+01  0.4914E+02
     -5.193  0.7881E+01  0.4996E+02
     -5.085  0.8475E+01  0.5085E+02
     -4.976  0.8832E+01  0.5181E+02
     -4.867  0.3899E+01  0.5247E+02
     -4.758  0.6195E+01  0.5300E+02
     -4.649  0.6702E+01  0.5375E+02
     -4.541  0.5224E+01  0.5440E+02
     -4.432  0.3745E+01  0.5489E+02
     -4.323  0.2266E+01  0.5521E+02
     -4.214  0.1069E+01  0.5538E+02
     -4.106  0.2383E+01  0.5556E+02
     -3.997  0.3899E+01  0.5590E+02
     -3.888  0.5416E+01  0.5641E+02
     -3.779  0.8896E+01  0.5715E+02
     -3.670  0.1186E+02  0.5833E+02
     -3.562  0.1317E+02  0.5966E+02
     -3.453  0.1171E+02  0.6107E+02
     -3.344  0.5220E+01  0.6202E+02
     -3.235  0.5077E+01  0.6253E+02
     -3.127  0.6271E+01  0.6316E+02
     -3.018  0.7195E+01  0.6389E+02
     -2.909  0.1236E+02  0.6493E+02
     -2.800  0.1819E+02  0.6659E+02
     -2.691  0.8909E+01  0.6882E+02
     -2.583  0.6965E+01  0.6957E+02
     -2.474  0.7192E+01  0.7034E+02
     -2.365  0.7756E+01  0.7114E+02
     -2.256  0.8480E+01  0.7202E+02
     -2.148  0.1331E+02  0.7310E+02
     -2.039  0.1430E+02  0.7480E+02
     -1.930  0.1118E+02  0.7617E+02
     -1.821  0.1085E+02  0.7731E+02
     -1.712  0.3946E+02  0.7943E+02
     -1.604  0.1745E+02  0.8210E+02
     -1.495  0.1475E+02  0.8416E+02
     -1.386  0.1430E+02  0.8569E+02
     -1.277  0.1744E+02  0.8737E+02
     -1.169  0.1086E+02  0.8910E+02
     -1.060  0.6948E+01  0.9006E+02
     -0.951  0.6781E+01  0.9077E+02
     -0.842  0.7778E+01  0.9156E+02
     -0.733  0.8722E+01  0.9246E+02
     -0.625  0.1002E+02  0.9347E+02
     -0.516  0.1111E+02  0.9464E+02
     -0.407  0.1107E+02  0.9584E+02
     -0.298  0.2637E+02  0.9747E+02
     -0.190  0.1241E+02  0.9883E+02
     -0.081  0.1163E+02  0.1002E+03
      0.028  0.1122E+02  0.1015E+03
      0.137  0.9530E+01  0.1025E+03
      0.246  0.9689E+01  0.1036E+03
      0.354  0.9666E+01  0.1046E+03
      0.463  0.9723E+01  0.1057E+03
      0.572  0.9604E+01  0.1067E+03
      0.681  0.9633E+01  0.1078E+03
      0.789  0.9335E+01  0.1088E+03
      0.898  0.9204E+01  0.1098E+03
      1.007  0.9217E+01  0.1108E+03
      1.116  0.9715E+01  0.1119E+03
      1.225  0.9522E+01  0.1129E+03
      1.333  0.9789E+01  0.1140E+03
      1.442  0.1034E+02  0.1151E+03
      1.551  0.9987E+01  0.1162E+03
      1.660  0.7741E+01  0.1172E+03
      1.768  0.6558E+01  0.1179E+03
      1.877  0.5959E+01  0.1186E+03
      1.986  0.4078E+01  0.1192E+03
      2.095  0.2971E+01  0.1196E+03
      2.204  0.3075E+01  0.1199E+03
      2.312  0.3924E+01  0.1202E+03
      2.421  0.5423E+01  0.1207E+03
      2.530  0.7787E+01  0.1215E+03
      2.639  0.8938E+01  0.1224E+03
      2.747  0.8848E+01  0.1234E+03
      2.856  0.6929E+01  0.1243E+03
      2.965  0.5278E+01  0.1249E+03
      3.074  0.4220E+01  0.1254E+03
      3.183  0.3493E+01  0.1258E+03
      3.291  0.3113E+01  0.1262E+03
      3.400  0.2737E+01  0.1265E+03
      3.509  0.2376E+01  0.1268E+03
      3.618  0.2067E+01  0.1270E+03
      3.726  0.1784E+01  0.1273E+03
      3.835  0.1489E+01  0.1274E+03
      3.944  0.1255E+01  0.1276E+03
      4.053  0.1020E+01  0.1277E+03
      4.162  0.8078E+00  0.1278E+03
      4.270  0.6166E+00  0.1279E+03
      4.379  0.4383E+00  0.1279E+03
      4.488  0.2714E+00  0.1280E+03
      4.597  0.1143E+00  0.1280E+03
      4.705  0.9340E-02  0.1280E+03
      4.814  0.1263E+00  0.1280E+03
      4.923  0.2539E+00  0.1280E+03
      5.032  0.3931E+00  0.1281E+03
      5.141  0.5461E+00  0.1281E+03
      5.249  0.7147E+00  0.1282E+03
      5.358  0.9073E+00  0.1283E+03
      5.467  0.1144E+01  0.1284E+03
      5.576  0.1393E+01  0.1285E+03
      5.685  0.1641E+01  0.1287E+03
      5.793  0.2315E+01  0.1289E+03
      5.902  0.3132E+01  0.1292E+03
      6.011  0.3676E+01  0.1296E+03
      6.120  0.4072E+01  0.1300E+03
      6.228  0.6554E+01  0.1305E+03
      6.337  0.1248E+02  0.1316E+03
      6.446  0.1018E+02  0.1328E+03
      6.555  0.8024E+01  0.1338E+03
      6.664  0.6444E+01  0.1346E+03
      6.772  0.5758E+01  0.1353E+03
      6.881  0.5312E+01  0.1359E+03
      6.990  0.5129E+01  0.1364E+03
      7.099  0.4511E+01  0.1369E+03
      7.207  0.3781E+01  0.1374E+03
      7.316  0.3627E+01  0.1378E+03
      7.425  0.3788E+01  0.1382E+03
      7.534  0.4196E+01  0.1386E+03
      7.643  0.4600E+01  0.1391E+03
      7.751  0.4878E+01  0.1396E+03
      7.860  0.4800E+01  0.1402E+03
      7.969  0.4613E+01  0.1407E+03
      8.078  0.4461E+01  0.1412E+03
      8.186  0.4305E+01  0.1416E+03
      8.295  0.4196E+01  0.1421E+03
      8.404  0.4114E+01  0.1425E+03
      8.513  0.4049E+01  0.1430E+03
      8.622  0.3990E+01  0.1434E+03
      8.730  0.3943E+01  0.1439E+03
      8.839  0.3719E+01  0.1443E+03
      8.948  0.3466E+01  0.1447E+03
      9.057  0.3371E+01  0.1450E+03
      9.165  0.3515E+01  0.1454E+03
      9.274  0.3698E+01  0.1458E+03
      9.383  0.3673E+01  0.1462E+03
      9.492  0.3641E+01  0.1466E+03
      9.601  0.3698E+01  0.1470E+03
      9.709  0.3751E+01  0.1474E+03
      9.818  0.3774E+01  0.1478E+03
      9.927  0.3753E+01  0.1482E+03
     10.036  0.3724E+01  0.1486E+03
     10.144  0.3715E+01  0.1490E+03
     10.253  0.3722E+01  0.1494E+03
     10.362  0.4830E+01  0.1499E+03
     10.471  0.6017E+01  0.1505E+03
     10.580  0.5361E+01  0.1511E+03
     10.688  0.5797E+01  0.1517E+03
     10.797  0.5567E+01  0.1523E+03
     10.906  0.4984E+01  0.1529E+03
     11.015  0.6310E+01  0.1535E+03
     11.123  0.4073E+01  0.1540E+03
     11.232  0.2591E+01  0.1544E+03
     11.341  0.2510E+01  0.1547E+03
     11.450  0.2748E+01  0.1549E+03
     11.559  0.3045E+01  0.1553E+03
     11.667  0.3431E+01  0.1556E+03
     11.776  0.3160E+01  0.1560E+03
     11.885  0.3130E+01  0.1563E+03
     11.994  0.6565E+01  0.1568E+03
     12.102  0.6833E+01  0.1575E+03
     12.211  0.8443E+01  0.1584E+03
     12.320  0.1087E+02  0.1594E+03
     12.429  0.1309E+02  0.1607E+03
     12.538  0.1335E+02  0.1622E+03
     12.646  0.1355E+02  0.1636E+03
     12.755  0.1200E+02  0.1650E+03
     12.864  0.9991E+01  0.1662E+03
     12.973  0.1153E+02  0.1674E+03
     13.081  0.3233E+00  0.1679E+03
     13.190  0.1957E+00  0.1680E+03
     13.299  0.1200E+00  0.1680E+03
     13.408  0.6280E-01  0.1680E+03
     13.517  0.2394E-01  0.1680E+03
     13.625  0.3465E-02  0.1680E+03
     13.734  0.0000E+00  0.1680E+03
     13.843  0.0000E+00  0.1680E+03
     13.952  0.0000E+00  0.1680E+03
     14.060  0.0000E+00  0.1680E+03
     14.169  0.0000E+00  0.1680E+03
     14.278  0.0000E+00  0.1680E+03
     14.387  0.0000E+00  0.1680E+03
     14.496  0.0000E+00  0.1680E+03
     14.604  0.0000E+00  0.1680E+03
     14.713  0.0000E+00  0.1680E+03
     14.822  0.0000E+00  0.1680E+03
     14.931  0.0000E+00  0.1680E+03
     15.039  0.0000E+00  0.1680E+03
     15.148  0.0000E+00  0.1680E+03
     15.257  0.0000E+00  0.1680E+03
     15.366  0.0000E+00  0.1680E+03
     15.475  0.0000E+00  0.1680E+03
     15.583  0.0000E+00  0.1680E+03
     15.692  0.0000E+00  0.1680E+03
