   32   32    1    1
  0.8817899E+01  0.4932875E-09  0.4932875E-09  0.1339614E-08  0.5000000E-15
  1.000000000000000E-004
  CAR 
 graphite                                
    128     76     84
 
  0.0000000E+00  0.0000000E+00  0.0000000E+00  0.6944444E-02
    1      -14.941395
    2      -14.794811
    3      -14.793999
    4      -14.637135
    5       -9.617680
    6       -9.609592
    7       -9.606421
    8       -9.556419
    9       -9.556231
   10       -9.548494
   11       -9.544652
   12       -9.544642
   13       -9.542849
   14       -9.505466
   15       -9.494419
   16       -9.492027
   17       -8.541870
   18       -8.538493
   19       -8.536885
   20       -8.511441
   21       -8.507410
   22       -8.505678
   23       -8.504726
   24       -8.504719
   25       -8.501521
   26       -8.457125
   27       -8.452344
   28       -8.449796
   29       -3.817293
   30       -2.924147
   31       -2.922275
   32       -1.834777
   33       -1.715761
   34       -1.713006
   35       -1.693870
   36       -1.689560
   37       -1.685281
   38       -1.685274
   39       -1.684777
   40       -1.666555
   41       -1.664813
   42       -1.658926
   43       -1.656539
   44       -1.637188
   45        1.674957
   46        1.686326
   47        1.691456
   48        1.698732
   49        1.699770
   50        1.707644
   51        1.711414
   52        1.722117
   53        1.924566
   54        1.926256
   55        1.928025
   56        2.332781
   57        2.334172
   58        2.336505
   59        2.340361
   60        2.340377
   61        2.341405
   62        2.607870
   63        2.622746
   64        2.624504
   65        6.205924
   66        6.207987
   67        6.209162
   68        6.338542
   69        6.344855
   70        6.348931
   71        6.350146
   72        6.350565
   73        6.356184
   74        6.873073
   75        6.886593
   76        6.889751
   77        9.010999
   78       11.660182
   79       11.663294
   80       11.885548
   81       11.889451
   82       11.922755
   83       12.079246
   84       12.085865
 
  0.1666667E+00  0.0000000E+00  0.0000000E+00  0.1388889E-01
    1      -14.775720
    2      -14.630528
    3      -14.629723
    4      -14.474491
    5      -10.920464
    6      -10.809180
    7      -10.808388
    8      -10.691639
    9      -10.047851
   10      -10.040935
   11       -9.950005
   12       -9.949072
   13       -9.942222
   14       -9.941899
   15       -9.847903
   16       -9.840358
   17       -7.925980
   18       -7.917931
   19       -7.848872
   20       -7.845874
   21       -7.839342
   22       -7.838797
   23       -7.763056
   24       -7.754738
   25       -7.078358
   26       -6.998127
   27       -6.996964
   28       -6.913182
   29       -3.616220
   30       -2.728562
   31       -2.726693
   32       -2.205939
   33       -2.186919
   34       -2.171635
   35       -2.170900
   36       -2.153000
   37       -2.151162
   38       -2.135855
   39       -2.116689
   40       -1.646912
   41       -1.552361
   42       -1.526170
   43       -1.522936
   44       -1.496549
   45        0.833760
   46        1.036117
   47        1.051767
   48        1.055514
   49        1.071863
   50        1.338154
   51        1.351691
   52        1.356807
   53        1.369140
   54        1.490878
   55        1.493106
   56        1.698422
   57        1.701211
   58        2.203217
   59        2.225134
   60        2.226163
   61        2.231254
   62        2.232224
   63        2.701816
   64        2.713093
   65        6.378744
   66        6.380901
   67        6.619888
   68        6.625776
   69        6.630150
   70        6.632497
   71        7.058187
   72        7.152898
   73        7.162998
   74        7.451513
   75        7.455154
   76        8.054984
   77        9.210742
   78       11.831306
   79       11.834411
   80       11.978006
   81       12.166025
   82       12.168029
   83       12.356403
   84       12.619488
 
  0.3333333E+00  0.0000000E+00  0.0000000E+00  0.1388889E-01
    1      -14.280485
    2      -14.139490
    3      -14.138707
    4      -13.988309
    5      -12.331373
    6      -12.206893
    7      -12.206193
    8      -12.074596
    9      -10.471197
   10      -10.467574
   11      -10.364714
   12      -10.363218
   13      -10.360093
   14      -10.359762
   15      -10.251408
   16      -10.247645
   17       -6.752164
   18       -6.741429
   19       -6.680286
   20       -6.677271
   21       -6.668482
   22       -6.667579
   23       -6.602519
   24       -6.592016
   25       -4.961688
   26       -4.895440
   27       -4.894085
   28       -4.825760
   29       -3.363176
   30       -3.347216
   31       -3.318003
   32       -3.317710
   33       -3.302682
   34       -3.300703
   35       -3.270840
   36       -3.254618
   37       -3.017270
   38       -2.147011
   39       -2.145137
   40       -1.089970
   41       -1.078603
   42       -1.053581
   43       -1.050043
   44       -1.024950
   45       -0.712357
   46       -0.619420
   47       -0.588108
   48       -0.585039
   49       -0.553504
   50        0.068500
   51        0.070352
   52        0.540053
   53        0.558983
   54        0.563627
   55        0.582192
   56        0.990183
   57        1.391816
   58        1.394434
   59        2.036107
   60        2.036645
   61        2.039679
   62        2.041571
   63        2.737200
   64        2.742733
   65        6.871885
   66        6.877061
   67        7.197199
   68        7.202338
   69        7.205507
   70        7.207243
   71        7.624367
   72        7.628943
   73        9.199401
   74        9.591165
   75        9.594106
   76        9.811576
   77       10.105622
   78       12.067710
   79       12.313218
   80       12.315496
   81       12.318896
   82       12.397171
   83       12.399400
   84       12.704308
 
  0.5000000E+00  0.0000000E+00  0.0000000E+00  0.6944444E-02
    1      -13.463038
    2      -13.460247
    3      -13.330272
    4      -13.326852
    5      -13.326839
    6      -13.324637
    7      -13.185686
    8      -13.182846
    9      -10.619962
   10      -10.618218
   11      -10.511809
   12      -10.509352
   13      -10.509310
   14      -10.508262
   15      -10.395905
   16      -10.394141
   17       -5.839580
   18       -5.837131
   19       -5.801586
   20       -5.797495
   21       -5.796413
   22       -5.796411
   23       -5.760761
   24       -5.759007
   25       -4.244534
   26       -4.243490
   27       -4.219192
   28       -4.219190
   29       -4.218516
   30       -4.215753
   31       -4.186756
   32       -4.184986
   33       -2.739844
   34       -2.737120
   35       -2.690627
   36       -2.689517
   37       -2.689510
   38       -2.684486
   39       -2.638911
   40       -2.635373
   41       -2.037177
   42       -2.034916
   43       -1.200197
   44       -1.196717
   45       -1.196498
   46       -1.194416
   47       -0.347534
   48       -0.340574
   49       -0.324562
   50       -0.316567
   51       -0.316545
   52       -0.315786
   53       -0.295213
   54       -0.291634
   55       -0.189646
   56       -0.187076
   57        1.271516
   58        1.273473
   59        1.951491
   60        1.953025
   61        1.953352
   62        1.956375
   63        2.724897
   64        2.727244
   65        7.199592
   66        7.202373
   67        7.503257
   68        7.508587
   69        7.508901
   70        7.508931
   71        7.814008
   72        7.816574
   73       10.805084
   74       10.806105
   75       11.632449
   76       11.635504
   77       11.868319
   78       11.872283
   79       11.873582
   80       11.880381
   81       12.272636
   82       12.276048
   83       12.627079
   84       12.630315
 
 -0.1355253E-19  0.1666667E+00  0.0000000E+00  0.1388889E-01
    1      -14.775723
    2      -14.630534
    3      -14.629724
    4      -14.474495
    5      -10.920471
    6      -10.809188
    7      -10.808388
    8      -10.691640
    9      -10.047936
   10      -10.041018
   11       -9.950278
   12       -9.949077
   13       -9.942238
   14       -9.941914
   15       -9.847937
   16       -9.840474
   17       -7.926148
   18       -7.916791
   19       -7.849282
   20       -7.845875
   21       -7.838826
   22       -7.836780
   23       -7.763158
   24       -7.753482
   25       -7.079225
   26       -6.998770
   27       -6.998091
   28       -6.914086
   29       -3.616210
   30       -2.728546
   31       -2.726684
   32       -2.207230
   33       -2.186914
   34       -2.173984
   35       -2.170905
   36       -2.153000
   37       -2.151314
   38       -2.137043
   39       -2.116820
   40       -1.646897
   41       -1.550882
   42       -1.523575
   43       -1.522932
   44       -1.495376
   45        0.834389
   46        1.034152
   47        1.050609
   48        1.051766
   49        1.068366
   50        1.342232
   51        1.356454
   52        1.356810
   53        1.370979
   54        1.492138
   55        1.493320
   56        1.698059
   57        1.700465
   58        2.204024
   59        2.225034
   60        2.225857
   61        2.230026
   62        2.231559
   63        2.701790
   64        2.711913
   65        6.379116
   66        6.382451
   67        6.620365
   68        6.625720
   69        6.631066
   70        6.635332
   71        7.056552
   72        7.153067
   73        7.165008
   74        7.450382
   75        7.453226
   76        8.053469
   77        9.210753
   78       11.831378
   79       11.834476
   80       11.978526
   81       12.167021
   82       12.168060
   83       12.356907
   84       12.630264
 
  0.1666667E+00  0.1666667E+00  0.0000000E+00  0.1388889E-01
    1      -14.445023
    2      -14.302637
    3      -14.301848
    4      -14.149846
    5      -11.542826
    6      -11.539873
    7      -11.426739
    8      -11.423114
    9      -11.423094
   10      -11.420799
   11      -11.300739
   12      -11.297747
   13       -9.191924
   14       -9.133525
   15       -9.132708
   16       -9.084529
   17       -8.138107
   18       -8.111610
   19       -8.107838
   20       -8.063452
   21       -5.969506
   22       -5.966160
   23       -5.898374
   24       -5.895041
   25       -5.895021
   26       -5.891514
   27       -5.821418
   28       -5.817865
   29       -3.534066
   30       -3.487081
   31       -3.485612
   32       -3.437166
   33       -3.215884
   34       -2.339644
   35       -2.337775
   36       -1.879002
   37       -1.875853
   38       -1.847691
   39       -1.843142
   40       -1.843136
   41       -1.841998
   42       -1.811278
   43       -1.808610
   44       -1.274057
   45        0.001849
   46        0.017348
   47        0.020787
   48        0.035824
   49        0.188708
   50        0.191280
   51        0.662021
   52        0.673224
   53        0.677976
   54        0.688865
   55        0.916441
   56        0.919666
   57        0.919780
   58        0.921694
   59        1.756366
   60        1.758805
   61        2.525114
   62        2.930049
   63        2.932062
   64        3.192297
   65        6.125506
   66        6.131910
   67        6.132924
   68        6.427011
   69        8.002767
   70        8.005131
   71        8.401678
   72        8.403985
   73        8.404686
   74        8.408101
   75        8.920577
   76        8.923196
   77        9.612770
   78       12.177430
   79       12.180646
   80       12.772420
   81       12.776764
   82       12.976853
   83       12.981636
   84       12.982014
 
  0.3333333E+00  0.1666667E+00  0.0000000E+00  0.1388889E-01
    1      -13.787734
    2      -13.650906
    3      -13.650146
    4      -13.504519
    5      -12.814495
    6      -12.685906
    7      -12.685170
    8      -12.548936
    9      -11.858496
   10      -11.738223
   11      -11.737389
   12      -11.610481
   13       -9.178713
   14       -9.088673
   15       -9.088350
   16       -8.995877
   17       -7.283514
   18       -7.224358
   19       -7.221108
   20       -7.159425
   21       -4.967769
   22       -4.922224
   23       -4.920620
   24       -4.870468
   25       -4.809275
   26       -4.757724
   27       -4.755555
   28       -4.703564
   29       -3.824603
   30       -3.769831
   31       -3.768516
   32       -3.712449
   33       -2.775747
   34       -2.740860
   35       -2.739812
   36       -2.702532
   37       -2.424721
   38       -1.730188
   39       -1.698754
   40       -1.695515
   41       -1.660224
   42       -1.570856
   43       -1.569349
   44       -1.268856
   45       -1.239884
   46       -1.211600
   47       -1.208361
   48       -1.179417
   49       -0.542891
   50       -0.460046
   51       -0.458295
   52       -0.344042
   53       -0.323749
   54       -0.318778
   55       -0.297933
   56       -0.147430
   57        0.505869
   58        0.612256
   59        0.613668
   60        1.504873
   61        2.813103
   62        3.337851
   63        3.339556
   64        3.824431
   65        5.765309
   66        5.985571
   67        5.989601
   68        6.316516
   69        8.810673
   70        9.117283
   71        9.119951
   72        9.445355
   73       10.299027
   74       10.416385
   75       10.612912
   76       10.615426
   77       10.999605
   78       11.604544
   79       12.564300
   80       12.661186
   81       12.672634
   82       12.796993
   83       12.929161
   84       12.939572
 
  0.5000000E+00  0.1666667E+00  0.0000000E+00  0.1388889E-01
    1      -13.788966
    2      -13.652151
    3      -13.651358
    4      -13.505744
    5      -12.812764
    6      -12.684154
    7      -12.683465
    8      -12.547212
    9      -11.859735
   10      -11.739476
   11      -11.738615
   12      -11.611728
   13       -9.176242
   14       -9.086107
   15       -9.085486
   16       -8.992848
   17       -7.277112
   18       -7.217121
   19       -7.215572
   20       -7.153149
   21       -4.977309
   22       -4.931452
   23       -4.931265
   24       -4.880748
   25       -4.820023
   26       -4.768692
   27       -4.765247
   28       -4.713435
   29       -3.827587
   30       -3.773187
   31       -3.771183
   32       -3.715436
   33       -2.763189
   34       -2.728670
   35       -2.726086
   36       -2.689199
   37       -2.425903
   38       -1.730085
   39       -1.697888
   40       -1.696578
   41       -1.660573
   42       -1.571959
   43       -1.570522
   44       -1.267288
   45       -1.237276
   46       -1.209259
   47       -1.205239
   48       -1.176628
   49       -0.544001
   50       -0.458584
   51       -0.456731
   52       -0.343468
   53       -0.322892
   54       -0.319954
   55       -0.298439
   56       -0.148462
   57        0.507345
   58        0.611075
   59        0.612506
   60        1.503455
   61        2.813033
   62        3.340611
   63        3.341268
   64        3.831697
   65        5.764105
   66        5.988008
   67        5.990327
   68        6.317150
   69        8.805790
   70        9.113121
   71        9.116499
   72        9.443794
   73       10.300352
   74       10.414760
   75       10.612463
   76       10.615288
   77       10.997890
   78       11.606753
   79       12.560628
   80       12.661892
   81       12.673390
   82       12.795572
   83       12.926669
   84       12.937008
 
 -0.3333333E+00  0.1666667E+00  0.0000000E+00  0.1388889E-01
    1      -14.445760
    2      -14.303382
    3      -14.302573
    4      -14.150578
    5      -11.545046
    6      -11.539077
    7      -11.427628
    8      -11.426782
    9      -11.421567
   10      -11.420874
   11      -11.303090
   12      -11.297087
   13       -9.182985
   14       -9.123348
   15       -9.122640
   16       -9.073076
   17       -8.135724
   18       -8.106984
   19       -8.106309
   20       -8.059681
   21       -5.980139
   22       -5.970648
   23       -5.908598
   24       -5.905949
   25       -5.898557
   26       -5.897231
   27       -5.831911
   28       -5.822654
   29       -3.549647
   30       -3.502328
   31       -3.501648
   32       -3.452867
   33       -3.216613
   34       -2.340347
   35       -2.338503
   36       -1.875856
   37       -1.857506
   38       -1.844181
   39       -1.840779
   40       -1.825200
   41       -1.823181
   42       -1.808480
   43       -1.790189
   44       -1.274748
   45       -0.008031
   46        0.008639
   47        0.009660
   48        0.025348
   49        0.187290
   50        0.191549
   51        0.673825
   52        0.684971
   53        0.685553
   54        0.698140
   55        0.915448
   56        0.916924
   57        0.919905
   58        0.921877
   59        1.753597
   60        1.758653
   61        2.524411
   62        2.936252
   63        2.936892
   64        3.207612
   65        6.127847
   66        6.132501
   67        6.134908
   68        6.433943
   69        7.995268
   70        8.004627
   71        8.393449
   72        8.397684
   73        8.402698
   74        8.405763
   75        8.914745
   76        8.920385
   77        9.611756
   78       12.176686
   79       12.179873
   80       12.771359
   81       12.803291
   82       12.976420
   83       12.997456
   84       13.014439
 
 -0.1666667E+00  0.1666667E+00  0.0000000E+00  0.1388889E-01
    1      -14.775971
    2      -14.630782
    3      -14.629965
    4      -14.474740
    5      -10.926749
    6      -10.815520
    7      -10.814757
    8      -10.698064
    9      -10.039812
   10      -10.037742
   11       -9.942595
   12       -9.939677
   13       -9.939652
   14       -9.938439
   15       -9.839341
   16       -9.837281
   17       -7.921052
   18       -7.919305
   19       -7.843054
   20       -7.841653
   21       -7.841636
   22       -7.839415
   23       -7.758071
   24       -7.756201
   25       -7.088257
   26       -7.008631
   27       -7.006196
   28       -6.922998
   29       -3.616456
   30       -2.728785
   31       -2.726930
   32       -2.207070
   33       -2.204536
   34       -2.174261
   35       -2.170063
   36       -2.170055
   37       -2.169683
   38       -2.136727
   39       -2.134605
   40       -1.647132
   41       -1.531260
   42       -1.504498
   43       -1.502615
   44       -1.475564
   45        0.830243
   46        1.017958
   47        1.033882
   48        1.039098
   49        1.054351
   50        1.356660
   51        1.369604
   52        1.373408
   53        1.387226
   54        1.486732
   55        1.488252
   56        1.700499
   57        1.702907
   58        2.196634
   59        2.228452
   60        2.232516
   61        2.232675
   62        2.233332
   63        2.711698
   64        2.713795
   65        6.380548
   66        6.382840
   67        6.628143
   68        6.630090
   69        6.630437
   70        6.635525
   71        7.050669
   72        7.160683
   73        7.163641
   74        7.440919
   75        7.445574
   76        8.044846
   77        9.210400
   78       11.831065
   79       11.834159
   80       12.012574
   81       12.201321
   82       12.201925
   83       12.390807
   84       12.616904
 
 -0.2710505E-19  0.3333333E+00  0.0000000E+00  0.1388889E-01
    1      -14.280498
    2      -14.139515
    3      -14.138709
    4      -13.988323
    5      -12.331426
    6      -12.206993
    7      -12.206201
    8      -12.074650
    9      -10.471483
   10      -10.467307
   11      -10.365466
   12      -10.363223
   13      -10.359997
   14      -10.359042
   15      -10.251634
   16      -10.247345
   17       -6.752194
   18       -6.740300
   19       -6.680436
   20       -6.677271
   21       -6.667596
   22       -6.665803
   23       -6.602426
   24       -6.590691
   25       -4.962656
   26       -4.896119
   27       -4.895417
   28       -4.826806
   29       -3.364528
   30       -3.347478
   31       -3.320523
   32       -3.317729
   33       -3.302684
   34       -3.301246
   35       -3.272059
   36       -3.254915
   37       -3.017224
   38       -2.146938
   39       -2.145101
   40       -1.089898
   41       -1.076946
   42       -1.050750
   43       -1.050039
   44       -1.023696
   45       -0.712106
   46       -0.621024
   47       -0.588713
   48       -0.588106
   49       -0.555648
   50        0.068971
   51        0.070522
   52        0.542763
   53        0.562982
   54        0.563630
   55        0.583837
   56        0.990591
   57        1.391100
   58        1.394219
   59        2.034586
   60        2.036620
   61        2.039722
   62        2.040966
   63        2.736768
   64        2.741932
   65        6.872284
   66        6.878873
   67        7.197866
   68        7.202313
   69        7.206597
   70        7.209773
   71        7.624583
   72        7.630790
   73        9.198236
   74        9.590134
   75        9.593109
   76        9.811598
   77       10.104632
   78       12.067993
   79       12.313917
   80       12.315788
   81       12.319178
   82       12.398588
   83       12.399406
   84       12.704826
 
  0.1666667E+00  0.3333333E+00  0.0000000E+00  0.1388889E-01
    1      -13.787742
    2      -13.650919
    3      -13.650147
    4      -13.504526
    5      -12.814555
    6      -12.686017
    7      -12.685177
    8      -12.548995
    9      -11.858438
   10      -11.738113
   11      -11.737383
   12      -11.610422
   13       -9.178761
   14       -9.088759
   15       -9.088371
   16       -8.995936
   17       -7.283091
   18       -7.223545
   19       -7.221105
   20       -7.159021
   21       -4.968149
   22       -4.922229
   23       -4.921416
   24       -4.870893
   25       -4.807851
   26       -4.755565
   27       -4.754873
   28       -4.702146
   29       -3.825904
   30       -3.771217
   31       -3.769821
   32       -3.713843
   33       -2.777428
   34       -2.743163
   35       -2.740858
   36       -2.704197
   37       -2.424681
   38       -1.731058
   39       -1.698775
   40       -1.697522
   41       -1.661450
   42       -1.570805
   43       -1.569340
   44       -1.268654
   45       -1.237993
   46       -1.208370
   47       -1.208121
   48       -1.177797
   49       -0.542804
   50       -0.459737
   51       -0.458152
   52       -0.342417
   53       -0.321623
   54       -0.318777
   55       -0.297094
   56       -0.147735
   57        0.506177
   58        0.611799
   59        0.613391
   60        1.504412
   61        2.812646
   62        3.337797
   63        3.338665
   64        3.824026
   65        5.765837
   66        5.986928
   67        5.989632
   68        6.317277
   69        8.811996
   70        9.119231
   71        9.120331
   72        9.446371
   73       10.297874
   74       10.416386
   75       10.611749
   76       10.614628
   77       10.998677
   78       11.604609
   79       12.563942
   80       12.661425
   81       12.672842
   82       12.796941
   83       12.928839
   84       12.939232
 
  0.3333333E+00  0.3333333E+00  0.0000000E+00  0.1388889E-01
    1      -12.979016
    2      -12.976336
    3      -12.973733
    4      -12.850843
    5      -12.846639
    6      -12.846613
    7      -12.845996
    8      -12.843723
    9      -12.842065
   10      -12.710440
   11      -12.707814
   12      -12.705142
   13       -7.964285
   14       -7.872487
   15       -7.872245
   16       -7.866003
   17       -7.864029
   18       -7.861130
   19       -7.859281
   20       -7.770715
   21       -5.823095
   22       -5.822454
   23       -5.818374
   24       -5.817056
   25       -3.064755
   26       -3.060829
   27       -3.057749
   28       -3.038233
   29       -3.032564
   30       -3.032084
   31       -3.032074
   32       -3.031167
   33       -3.026731
   34       -3.007187
   35       -3.004921
   36       -3.001160
   37       -1.703776
   38       -1.697739
   39       -1.694886
   40       -1.686081
   41       -1.680420
   42       -1.679334
   43       -1.677896
   44       -1.677878
   45       -1.672410
   46       -1.660834
   47       -1.656790
   48       -1.651516
   49       -1.458440
   50       -1.456288
   51       -1.454012
   52       -0.642238
   53       -0.638624
   54       -0.638319
   55       -0.637308
   56       -0.635806
   57       -0.633537
   58        0.339009
   59        0.341426
   60        0.343628
   61        4.051573
   62        4.666396
   63        4.675504
   64        4.685168
   65        4.685592
   66        4.705154
   67        4.705892
   68        5.414140
   69       10.820608
   70       10.823463
   71       10.830262
   72       11.056128
   73       11.061762
   74       11.062235
   75       11.062343
   76       11.063725
   77       11.065970
   78       11.307799
   79       11.311587
   80       11.313985
   81       11.418345
   82       11.420210
   83       11.425297
   84       13.692111
 
  0.5000000E+00  0.3333333E+00  0.0000000E+00  0.1388889E-01
    1      -13.789709
    2      -13.652913
    3      -13.652081
    4      -13.506486
    5      -12.816493
    6      -12.687960
    7      -12.687105
    8      -12.550932
    9      -11.854526
   10      -11.734173
   11      -11.733495
   12      -11.606515
   13       -9.169111
   14       -9.079171
   15       -9.078315
   16       -8.985916
   17       -7.283767
   18       -7.223606
   19       -7.223352
   20       -7.160735
   21       -4.977185
   22       -4.932022
   23       -4.930533
   24       -4.880706
   25       -4.812892
   26       -4.761401
   27       -4.759236
   28       -4.707290
   29       -3.839683
   30       -3.785769
   31       -3.782393
   32       -3.727147
   33       -2.775242
   34       -2.741655
   35       -2.737691
   36       -2.701794
   37       -2.426577
   38       -1.743196
   39       -1.711070
   40       -1.708332
   41       -1.672789
   42       -1.572845
   43       -1.571421
   44       -1.270439
   45       -1.220301
   46       -1.191674
   47       -1.189052
   48       -1.159670
   49       -0.544661
   50       -0.461550
   51       -0.459996
   52       -0.329169
   53       -0.307692
   54       -0.306091
   55       -0.283636
   56       -0.144394
   57        0.504221
   58        0.614846
   59        0.616730
   60        1.507396
   61        2.816652
   62        3.343088
   63        3.344761
   64        3.832617
   65        5.770352
   66        5.987205
   67        5.988455
   68        6.309171
   69        8.815523
   70        9.118473
   71        9.120339
   72        9.441683
   73       10.289596
   74       10.413803
   75       10.604427
   76       10.608042
   77       10.994640
   78       11.602390
   79       12.555302
   80       12.657103
   81       12.668491
   82       12.802127
   83       12.930353
   84       12.940889
 
 -0.3333333E+00  0.3333333E+00  0.0000000E+00  0.1388889E-01
    1      -14.281482
    2      -14.140508
    3      -14.139673
    4      -13.989300
    5      -12.335342
    6      -12.210944
    7      -12.210089
    8      -12.078574
    9      -10.463924
   10      -10.462135
   11      -10.357723
   12      -10.355264
   13      -10.355232
   14      -10.354091
   15      -10.244033
   16      -10.242221
   17       -6.747906
   18       -6.746106
   19       -6.675361
   20       -6.674064
   21       -6.674048
   22       -6.671580
   23       -6.598751
   24       -6.596779
   25       -4.974631
   26       -4.908955
   27       -4.906252
   28       -4.838497
   29       -3.362849
   30       -3.360757
   31       -3.319442
   32       -3.315601
   33       -3.315320
   34       -3.315306
   35       -3.270324
   36       -3.268514
   37       -3.018194
   38       -2.147879
   39       -2.146070
   40       -1.090840
   41       -1.058033
   42       -1.032429
   43       -1.030324
   44       -1.004523
   45       -0.715596
   46       -0.636588
   47       -0.605631
   48       -0.601444
   49       -0.570408
   50        0.065410
   51        0.066899
   52        0.559011
   53        0.578196
   54        0.581479
   55        0.600925
   56        0.986682
   57        1.395905
   58        1.398041
   59        2.039133
   60        2.043154
   61        2.043350
   62        2.044133
   63        2.742976
   64        2.745286
   65        6.877962
   66        6.880472
   67        7.202647
   68        7.204174
   69        7.204331
   70        7.208792
   71        7.623177
   72        7.625846
   73        9.188808
   74        9.580781
   75        9.584948
   76        9.810278
   77       10.098141
   78       12.074534
   79       12.315693
   80       12.319121
   81       12.341343
   82       12.430096
   83       12.430913
   84       12.730940
 
 -0.1666667E+00  0.3333333E+00  0.0000000E+00  0.1388889E-01
    1      -14.445771
    2      -14.303402
    3      -14.302574
    4      -14.150589
    5      -11.545411
    6      -11.538804
    7      -11.428756
    8      -11.426805
    9      -11.420969
   10      -11.420314
   11      -11.303370
   12      -11.296716
   13       -9.183760
   14       -9.124817
   15       -9.122650
   16       -9.073746
   17       -8.134343
   18       -8.106309
   19       -8.103742
   20       -8.057933
   21       -5.980436
   22       -5.971280
   23       -5.909386
   24       -5.905949
   25       -5.898567
   26       -5.897958
   27       -5.832015
   28       -5.823176
   29       -3.550795
   30       -3.504488
   31       -3.501657
   32       -3.453900
   33       -3.216581
   34       -2.340298
   35       -2.338477
   36       -1.874653
   37       -1.857755
   38       -1.841996
   39       -1.840776
   40       -1.825201
   41       -1.823269
   42       -1.807265
   43       -1.790152
   44       -1.274700
   45       -0.011363
   46        0.004495
   47        0.009657
   48        0.023799
   49        0.186996