   32   32    1    1
  0.9341735E+01  0.4932875E-09  0.4932875E-09  0.1419195E-08  0.5000000E-15
  1.000000000000000E-004
  CAR 
 graphite                                
    128     76     84
 
  0.0000000E+00  0.0000000E+00  0.0000000E+00  0.6944444E-02
    1      -15.387176
    2      -15.294584
    3      -15.292194
    4      -15.195299
    5      -10.095954
    6      -10.084937
    7      -10.081894
    8      -10.060441
    9      -10.058622
   10      -10.049940
   11      -10.044673
   12      -10.044582
   13      -10.044534
   14      -10.026911
   15      -10.013832
   16      -10.011478
   17       -9.032304
   18       -9.030273
   19       -9.029347
   20       -9.011285
   21       -9.008287
   22       -9.007245
   23       -9.007231
   24       -9.006066
   25       -9.004235
   26       -8.978406
   27       -8.976367
   28       -8.975577
   29       -4.088646
   30       -3.419819
   31       -3.417423
   32       -2.624049
   33       -2.207176
   34       -2.204099
   35       -2.193395
   36       -2.190531
   37       -2.188297
   38       -2.187602
   39       -2.187598
   40       -2.174849
   41       -2.173924
   42       -2.173891
   43       -2.171552
   44       -2.157860
   45        1.179097
   46        1.189851
   47        1.190552
   48        1.194431
   49        1.195537
   50        1.197023
   51        1.197699
   52        1.205622
   53        1.557872
   54        1.562722
   55        1.565276
   56        1.836531
   57        1.836754
   58        1.844123
   59        1.848753
   60        1.849559
   61        1.849594
   62        2.051289
   63        2.068482
   64        2.070362
   65        5.704389
   66        5.706528
   67        5.713080
   68        5.857549
   69        5.861608
   70        5.862900
   71        5.863112
   72        5.865321
   73        5.867647
   74        6.243436
   75        6.247338
   76        6.250119
   77        8.089831
   78       10.314645
   79       10.317323
   80       11.455836
   81       11.459611
   82       11.491014
   83       11.586247
   84       11.603254
 
  0.1666667E+00  0.0000000E+00  0.0000000E+00  0.1388889E-01
    1      -15.222026
    2      -15.130393
    3      -15.128009
    4      -15.032191
    5      -11.379414
    6      -11.310887
    7      -11.308482
    8      -11.237713
    9      -10.512160
   10      -10.504502
   11      -10.452606
   12      -10.449983
   13      -10.444129
   14      -10.442227
   15      -10.388952
   16      -10.380800
   17       -8.395168
   18       -8.391097
   19       -8.348790
   20       -8.344261
   21       -8.343301
   22       -8.341160
   23       -8.295551
   24       -8.291329
   25       -7.550532
   26       -7.501414
   27       -7.500624
   28       -7.450171
   29       -3.888501
   30       -3.223995
   31       -3.221583
   32       -2.694301
   33       -2.680311
   34       -2.675277
   35       -2.672966
   36       -2.660066
   37       -2.659818
   38       -2.653698
   39       -2.639567
   40       -2.434236
   41       -2.043565
   42       -2.029909
   43       -2.025195
   44       -2.011632
   45        0.517429
   46        0.535197
   47        0.544317
   48        0.546461
   49        0.556526
   50        0.841136
   51        0.850168
   52        0.855677
   53        0.861321
   54        0.998524
   55        1.001979
   56        1.353819
   57        1.360708
   58        1.520374
   59        1.729522
   60        1.730039
   61        1.739000
   62        1.740588
   63        2.087025
   64        2.101186
   65        5.924901
   66        5.930052
   67        6.137492
   68        6.142288
   69        6.143981
   70        6.145425
   71        6.520747
   72        6.524238
   73        6.659962
   74        6.963700
   75        6.965929
   76        7.395470
   77        8.294402
   78       10.501885
   79       10.504546
   80       11.545343
   81       11.666075
   82       11.669525
   83       11.786889
   84       12.191311
 
  0.3333333E+00  0.0000000E+00  0.0000000E+00  0.1388889E-01
    1      -14.728355
    2      -14.639625
    3      -14.637258
    4      -14.544619
    5      -12.785459
    6      -12.708009
    7      -12.705706
    8      -12.625371
    9      -10.931818
   10      -10.928090
   11      -10.866653
   12      -10.863521
   13      -10.861869
   14      -10.860153
   15      -10.796009
   16      -10.792201
   17       -7.223486
   18       -7.216118
   19       -7.180963
   20       -7.176450
   21       -7.172578
   22       -7.170050
   23       -7.132723
   24       -7.125569
   25       -5.439559
   26       -5.399519
   27       -5.398932
   28       -5.358105
   29       -3.847591
   30       -3.835645
   31       -3.821720
   32       -3.819688
   33       -3.808651
   34       -3.808549
   35       -3.793007
   36       -3.780944
   37       -3.292426
   38       -2.641801
   39       -2.639331
   40       -1.870991
   41       -1.570201
   42       -1.557148
   43       -1.552185
   44       -1.539362
   45       -1.113040
   46       -1.094367
   47       -1.093634
   48       -1.074846
   49       -1.002823
   50       -0.424630
   51       -0.421840
   52        0.046153
   53        0.056417
   54        0.062099
   55        0.071246
   56        0.245068
   57        1.071712
   58        1.076008
   59        1.541593
   60        1.542975
   61        1.547531
   62        1.548755
   63        2.052512
   64        2.059794
   65        6.469805
   66        6.472137
   67        6.710978
   68        6.716277
   69        6.717998
   70        6.718499
   71        7.016434
   72        7.019059
   73        8.820218
   74        8.909044
   75        9.101807
   76        9.104208
   77        9.467480
   78       11.054560
   79       11.057283
   80       11.304878
   81       11.826979
   82       11.887287
   83       11.890960
   84       12.094510
 
  0.5000000E+00  0.0000000E+00  0.0000000E+00  0.6944444E-02
    1      -13.913462
    2      -13.910758
    3      -13.830744
    4      -13.825804
    5      -13.825763
    6      -13.825362
    7      -13.739601
    8      -13.736939
    9      -11.079761
   10      -11.078065
   11      -11.013578
   12      -11.010265
   13      -11.009459
   14      -11.009445
   15      -10.941152
   16      -10.939514
   17       -6.324634
   18       -6.322004
   19       -6.303384
   20       -6.299626
   21       -6.296985
   22       -6.296984
   23       -6.276905
   24       -6.275403
   25       -4.740019
   26       -4.739038
   27       -4.724478
   28       -4.723204
   29       -4.723199
   30       -4.721849
   31       -4.705310
   32       -4.703618
   33       -3.225195
   34       -3.222645
   35       -3.197069
   36       -3.194149
   37       -3.194145
   38       -3.191240
   39       -3.165523
   40       -3.162074
   41       -2.317837
   42       -2.315677
   43       -1.694284
   44       -1.690288
   45       -1.689572
   46       -1.688730
   47       -0.958368
   48       -0.955954
   49       -0.841394
   50       -0.832672
   51       -0.826320
   52       -0.819409
   53       -0.818451
   54       -0.818431
   55       -0.807874
   56       -0.805099
   57        0.959623
   58        0.961509
   59        1.457866
   60        1.460566
   61        1.461068
   62        1.462499
   63        2.018208
   64        2.020403
   65        6.804332
   66        6.806993
   67        7.014171
   68        7.019265
   69        7.021124
   70        7.021131
   71        7.232708
   72        7.235149
   73        9.928481
   74        9.929302
   75       11.229660
   76       11.232473
   77       11.335287
   78       11.341210
   79       11.343472
   80       11.351204
   81       11.670080
   82       11.673229
   83       11.965061
   84       11.969981
 
  0.0000000E+00  0.1666667E+00  0.0000000E+00  0.1388889E-01
    1      -15.222030
    2      -15.130400
    3      -15.128010
    4      -15.032194
    5      -11.379422
    6      -11.310901
    7      -11.308480
    8      -11.237717
    9      -10.512235
   10      -10.504606
   11      -10.452823
   12      -10.449984
   13      -10.444184
   14      -10.442231
   15      -10.388967
   16      -10.380895
   17       -8.395441
   18       -8.389958
   19       -8.349310
   20       -8.344259
   21       -8.341166
   22       -8.340784
   23       -8.295703
   24       -8.290065
   25       -7.551357
   26       -7.503064
   27       -7.500634
   28       -7.451005
   29       -3.888491
   30       -3.223974
   31       -3.221581
   32       -2.695641
   33       -2.680264
   34       -2.677433
   35       -2.672969
   36       -2.660157
   37       -2.659820
   38       -2.654806
   39       -2.639720
   40       -2.434222
   41       -2.041944
   42       -2.027552
   43       -2.025192
   44       -2.010668
   45        0.517494
   46        0.533984
   47        0.542394
   48        0.544313
   49        0.552815
   50        0.846560
   51        0.853374
   52        0.855682
   53        0.862536
   54        0.999901
   55        1.002009
   56        1.353693
   57        1.359747
   58        1.521192
   59        1.729317
   60        1.730041
   61        1.736968
   62        1.740552
   63        2.086981
   64        2.100065
   65        5.926658
   66        5.930164
   67        6.138475
   68        6.143357
   69        6.144697
   70        6.146615
   71        6.520968
   72        6.526089
   73        6.658451
   74        6.961814
   75        6.964912
   76        7.394013
   77        8.294410
   78       10.501914
   79       10.504572
   80       11.545838
   81       11.667040
   82       11.669533
   83       11.787365
   84       12.198269
 
  0.1666667E+00  0.1666667E+00  0.0000000E+00  0.1388889E-01
    1      -14.892393
    2      -14.802701
    3      -14.800329
    4      -14.706635
    5      -11.999449
    6      -11.996581
    7      -11.928043
    8      -11.922892
    9      -11.922856
   10      -11.922378
   11      -11.848968
   12      -11.846172
   13       -9.671522
   14       -9.637470
   15       -9.636207
   16       -9.605866
   17       -8.627308
   18       -8.609641
   19       -8.604726
   20       -8.580392
   21       -6.444679
   22       -6.441423
   23       -6.402875
   24       -6.397912
   25       -6.397893
   26       -6.396366
   27       -6.355137
   28       -6.351817
   29       -4.021332
   30       -3.993353
   31       -3.992828
   32       -3.964196
   33       -3.489958
   34       -2.834575
   35       -2.832129
   36       -2.368366
   37       -2.364983
   38       -2.351262
   39       -2.346024
   40       -2.345353
   41       -2.345348
   42       -2.328577
   43       -2.326284
   44       -2.057245
   45       -0.502087
   46       -0.492825
   47       -0.491488
   48       -0.482041
   49       -0.112688
   50       -0.110349
   51        0.167171
   52        0.175430
   53        0.180381
   54        0.185177
   55        0.423648
   56        0.427550
   57        0.428146
   58        0.428809
   59        1.034318
   60        1.036628
   61        2.157514
   62        2.434254
   63        2.434567
   64        2.641217
   65        5.601456
   66        5.644054
   67        5.650001
   68        5.861126
   69        7.620101
   70        7.622349
   71        7.912589
   72        7.915682
   73        7.916800
   74        7.918708
   75        8.283704
   76        8.286134
   77        8.705582
   78       10.877618
   79       10.880276
   80       12.235893
   81       12.238640
   82       12.426733
   83       12.438532
   84       12.476487
 
  0.3333333E+00  0.1666667E+00  0.0000000E+00  0.1388889E-01
    1      -14.237188
    2      -14.151326
    3      -14.148977
    4      -14.059492
    5      -13.266959
    6      -13.186745
    7      -13.184404
    8      -13.101047
    9      -12.314035
   10      -12.239462
   11      -12.236997
   12      -12.159753
   13       -9.646310
   14       -9.591826
   15       -9.589810
   16       -9.534323
   17       -7.759376
   18       -7.724476
   19       -7.719887
   20       -7.684052
   21       -5.455198
   22       -5.427067
   23       -5.426655
   24       -5.396810
   25       -5.291378
   26       -5.261712
   27       -5.257948
   28       -5.228036
   29       -4.306692
   30       -4.273867
   31       -4.273290
   32       -4.239987
   33       -3.265462
   34       -3.244759
   35       -3.243906
   36       -3.222275
   37       -2.702922
   38       -2.224109
   39       -2.204790
   40       -2.203632
   41       -2.183118
   42       -2.066467
   43       -2.064051
   44       -1.730907
   45       -1.715706
   46       -1.710936
   47       -1.695750
   48       -1.555015
   49       -1.316858
   50       -0.953797
   51       -0.951206
   52       -0.835468
   53       -0.824126
   54       -0.818224
   55       -0.807836
   56       -0.443192
   57       -0.251683
   58        0.119056
   59        0.120912
   60        0.766234
   61        2.469454
   62        2.843733
   63        2.844161
   64        3.206368
   65        5.334227
   66        5.498095
   67        5.503379
   68        5.723681
   69        8.413974
   70        8.628313
   71        8.632355
   72        8.859782
   73        9.526879
   74        9.905414
   75       10.122400
   76       10.125174
   77       10.396533
   78       10.745695
   79       11.596831
   80       11.601273
   81       11.962074
   82       12.141737
   83       12.300541
   84       12.304090
 
  0.5000000E+00  0.1666667E+00  0.0000000E+00  0.1388889E-01
    1      -14.238342
    2      -14.152495
    3      -14.150108
    4      -14.060638
    5      -13.265328
    6      -13.185089
    7      -13.182805
    8      -13.099424
    9      -12.315227
   10      -12.240672
   11      -12.238173
   12      -12.160949
   13       -9.643046
   14       -9.588494
   15       -9.586209
   16       -9.530611
   17       -7.756545
   18       -7.720902
   19       -7.717681
   20       -7.681125
   21       -5.461905
   22       -5.434575
   23       -5.432898
   24       -5.403869
   25       -5.299185
   26       -5.269788
   27       -5.264930
   28       -5.235293
   29       -4.311093
   30       -4.278049
   31       -4.277937
   32       -4.244439
   33       -3.256030
   34       -3.234970
   35       -3.234441
   36       -3.212451
   37       -2.704340
   38       -2.219979
   39       -2.200512
   40       -2.199897
   41       -2.179237
   42       -2.067807
   43       -2.065506
   44       -1.726647
   45       -1.711548
   46       -1.706187
   47       -1.691284
   48       -1.553109
   49       -1.318294
   50       -0.951970
   51       -0.949227
   52       -0.839201
   53       -0.828278
   54       -0.823794
   55       -0.812845
   56       -0.444733
   57       -0.249793
   58        0.117426
   59        0.119091
   60        0.764228
   61        2.472070
   62        2.848186
   63        2.849496
   64        3.215182
   65        5.329195
   66        5.496638
   67        5.500296
   68        5.721968
   69        8.411412
   70        8.625760
   71        8.630486
   72        8.858828
   73        9.525117
   74        9.904626
   75       10.120501
   76       10.122971
   77       10.393420
   78       10.748154
   79       11.595382
   80       11.599776
   81       11.960746
   82       12.140613
   83       12.300258
   84       12.303988
 
 -0.3333333E+00  0.1666667E+00  0.0000000E+00  0.1388889E-01
    1      -14.893081
    2      -14.803398
    3      -14.801003
    4      -14.707318
    5      -12.001586
    6      -11.995820
    7      -11.928950
    8      -11.926451
    9      -11.923077
   10      -11.920778
   11      -11.851319
   12      -11.845539
   13       -9.659315
   14       -9.624996
   15       -9.622701
   16       -9.592065
   17       -8.630793
   18       -8.611774
   19       -8.609218
   20       -8.583337
   21       -6.451699
   22       -6.446279
   23       -6.409490
   24       -6.405365
   25       -6.402471
   26       -6.401826
   27       -6.362161
   28       -6.357023
   29       -4.032513
   30       -4.005478
   31       -4.003117
   32       -3.975416
   33       -3.490826
   34       -2.835417
   35       -2.833028
   36       -2.364438
   37       -2.351623
   38       -2.347271
   39       -2.342404
   40       -2.332351
   41       -2.332267
   42       -2.325301
   43       -2.312888
   44       -2.058129
   45       -0.502093
   46       -0.493657
   47       -0.491126
   48       -0.483028
   49       -0.115839
   50       -0.109519
   51        0.170150
   52        0.175505
   53        0.178013
   54        0.183789
   55        0.421448
   56        0.422782
   57        0.427447
   58        0.430511
   59        1.029667
   60        1.037200
   61        2.163385
   62        2.444304
   63        2.446421
   64        2.658859
   65        5.592205
   66        5.641578
   67        5.644405
   68        5.859832
   69        7.617586
   70        7.620288
   71        7.908629
   72        7.913025
   73        7.913898
   74        7.915367
   75        8.280997
   76        8.282209
   77        8.704487
   78       10.876353
   79       10.879002
   80       12.238683
   81       12.245559
   82       12.426681
   83       12.471725
   84       12.479039
 
 -0.1666667E+00  0.1666667E+00  0.0000000E+00  0.1388889E-01
    1      -15.222260
    2      -15.130633
    3      -15.128234
    4      -15.032422
    5      -11.385707
    6      -11.317249
    7      -11.314806
    8      -11.244135
    9      -10.503390
   10      -10.501378
   11      -10.444408
   12      -10.440497
   13      -10.439943
   14      -10.439933
   15      -10.379704
   16      -10.377786
   17       -8.394374
   18       -8.392693
   19       -8.347252
   20       -8.344085
   21       -8.344051
   22       -8.343799
   23       -8.294734
   24       -8.292995
   25       -7.556780
   26       -7.509179
   27       -7.505274
   28       -7.456300
   29       -3.888782
   30       -3.224259
   31       -3.221885
   32       -2.695431
   33       -2.692710
   34       -2.677574
   35       -2.673353
   36       -2.671976
   37       -2.671972
   38       -2.654288
   39       -2.652475
   40       -2.434519
   41       -2.027681
   42       -2.012091
   43       -2.011961
   44       -1.996258
   45        0.509985
   46        0.527669
   47        0.536105
   48        0.541506
   49        0.548869
   50        0.850549
   51        0.858284
   52        0.859884
   53        0.868634
   54        0.992063
   55        0.993039
   56        1.360649
   57        1.362899
   58        1.510762
   59        1.736576
   60        1.740982
   61        1.742026
   62        1.742085
   63        2.100344
   64        2.102434
   65        5.924251
   66        5.926520
   67        6.138823
   68        6.141234
   69        6.141932
   70        6.145227
   71        6.521129
   72        6.523919
   73        6.658982
   74        6.958533
   75        6.964021
   76        7.391172
   77        8.294034
   78       10.501470
   79       10.504126
   80       11.577524
   81       11.699329
   82       11.700881
   83       11.818861
   84       12.187069
 
  0.0000000E+00  0.3333333E+00  0.0000000E+00  0.1388889E-01
    1      -14.728368
    2      -14.639651
    3      -14.637258
    4      -14.544632
    5      -12.785511
    6      -12.708111
    7      -12.705706
    8      -12.625422
    9      -10.932094
   10      -10.927860
   11      -10.867339
   12      -10.863521
   13      -10.861116
   14      -10.860152
   15      -10.796188
   16      -10.791922
   17       -7.223609
   18       -7.215023
   19       -7.181221
   20       -7.176448
   21       -7.170078
   22       -7.169930
   23       -7.132658
   24       -7.124267
   25       -5.440487
   26       -5.401402
   27       -5.398941
   28       -5.359068
   29       -3.848960
   30       -3.835897
   31       -3.824058
   32       -3.819693
   33       -3.809122
   34       -3.808588
   35       -3.794081
   36       -3.781230
   37       -3.292380
   38       -2.641705
   39       -2.639324
   40       -1.870928
   41       -1.568352
   42       -1.554606
   43       -1.552181
   44       -1.538344
   45       -1.114600
   46       -1.097091
   47       -1.094370
   48       -1.076767
   49       -1.002589
   50       -0.424048
   51       -0.421811
   52        0.049465
   53        0.059703
   54        0.062104
   55        0.072485
   56        0.245434
   57        1.071225
   58        1.075581
   59        1.540369
   60        1.542998
   61        1.546863
   62        1.548618
   63        2.052138
   64        2.059042
   65        6.470397
   66        6.473612
   67        6.711631
   68        6.717751
   69        6.718146
   70        6.720272
   71        7.016618
   72        7.020875
   73        8.819149
   74        8.909059
   75        9.100453
   76        9.103649
   77        9.466528
   78       11.054673
   79       11.057390
   80       11.304948
   81       11.827675
   82       11.888636
   83       11.890964
   84       12.095103
 
  0.1666667E+00  0.3333333E+00  0.0000000E+00  0.1388889E-01
    1      -14.237195
    2      -14.151340
    3      -14.148977
    4      -14.059499
    5      -13.267016
    6      -13.186857
    7      -13.184404
    8      -13.101102
    9      -12.313978
   10      -12.239349
   11      -12.236997
   12      -12.159698
   13       -9.646356
   14       -9.591920
   15       -9.589812
   16       -9.534373
   17       -7.758953
   18       -7.723725
   19       -7.719883
   20       -7.683700
   21       -5.455554
   22       -5.427813
   23       -5.426662
   24       -5.397204
   25       -5.289987
   26       -5.259059
   27       -5.257939
   28       -5.226758
   29       -4.307952
   30       -4.276390
   31       -4.273299
   32       -4.241258
   33       -3.267147
   34       -3.247883
   35       -3.243914
   36       -3.223748
   37       -2.702882
   38       -2.224887
   39       -2.205583
   40       -2.204756
   41       -2.184308
   42       -2.066384
   43       -2.064052
   44       -1.728906
   45       -1.712522
   46       -1.710931
   47       -1.694382
   48       -1.554810
   49       -1.316806
   50       -0.953366
   51       -0.951181
   52       -0.833438
   53       -0.822460
   54       -0.818222
   55       -0.807226
   56       -0.443499
   57       -0.251407
   58        0.118399
   59        0.120869
   60        0.765820
   61        2.469015
   62        2.842960
   63        2.844038
   64        3.205949
   65        5.334790
   66        5.499402
   67        5.503388
   68        5.724392
   69        8.415198
   70        8.630467
   71        8.632413
   72        8.860782
   73        9.526877
   74        9.904353
   75       10.120836
   76       10.124892
   77       10.395636
   78       10.745731
   79       11.596983
   80       11.601424
   81       11.962045
   82       12.141420
   83       12.300018
   84       12.303844
 
  0.3333333E+00  0.3333333E+00  0.0000000E+00  0.1388889E-01
    1      -13.430889
    2      -13.428274
    3      -13.425816
    4      -13.351411
    5      -13.346862
    6      -13.345674
    7      -13.345649
    8      -13.343169
    9      -13.342870
   10      -13.262811
   11      -13.260374
   12      -13.257848
   13       -8.428414
   14       -8.376694
   15       -8.375395
   16       -8.369484
   17       -8.366361
   18       -8.362760
   19       -8.359245
   20       -8.309947
   21       -6.326125
   22       -6.324287
   23       -6.323747
   24       -6.321874
   25       -3.556065
   26       -3.553960
   27       -3.549919
   28       -3.540561
   29       -3.538570
   30       -3.538100
   31       -3.532789
   32       -3.532780
   33       -3.532469
   34       -3.522327
   35       -3.519303
   36       -3.515977
   37       -2.200693
   38       -2.194852
   39       -2.193476
   40       -2.188250
   41       -2.183740
   42       -2.183722
   43       -2.183608
   44       -2.180149
   45       -2.178835
   46       -2.173131
   47       -2.169221
   48       -2.166764
   49       -1.743128
   50       -1.741027
   51       -1.738273
   52       -1.136151
   53       -1.132273
   54       -1.131343
   55       -1.131104
   56       -1.128795
   57       -1.127265
   58       -0.422599
   59       -0.420261
   60       -0.417464
   61        3.745843
   62        4.188144
   63        4.193907
   64        4.196597
   65        4.197002
   66        4.209788
   67        4.212776
   68        4.704498
   69       10.408335
   70       10.411771
   71       10.413984
   72       10.537084
   73       10.549624
   74       10.552412
   75       10.573501
   76       10.574245
   77       10.575405
   78       10.577182
   79       10.577298
   80       10.588553
   81       10.741931
   82       10.745533
   83       10.748721
   84       12.516769
 
  0.5000000E+00  0.3333333E+00  0.0000000E+00  0.1388889E-01
    1      -14.239037
    2      -14.153210
    3      -14.150779
    4      -14.061329
    5      -13.268844
    6      -13.188694
    7      -13.186218
    8      -13.102924
    9      -12.310249
   10      -12.235590
   11      -12.233308
   12      -12.155979
   13       -9.635731
   14       -9.581290
   15       -9.578845
   16       -9.523384
   17       -7.765001
   18       -7.729033
   19       -7.727226
   20       -7.690361
   21       -5.460150
   22       -5.433551
   23       -5.430496
   24       -5.402208
   25       -5.297908
   26       -5.266609
   27       -5.266471
   28       -5.234901
   29       -4.317637
   30       -4.286677
   31       -4.281865
   32       -4.250470
   33       -3.261523
   34       -3.242719
   35       -3.237435
   36       -3.217910
   37       -2.705186
   38       -2.228805
   39       -2.210718
   40       -2.206531
   41       -2.187397
   42       -2.068658
   43       -2.066500
   44       -1.716447
   45       -1.699402
   46       -1.698830
   47       -1.681592
   48       -1.557196
   49       -1.319190
   50       -0.955737
   51       -0.953810
   52       -0.829255
   53       -0.816563
   54       -0.816191
   55       -0.803261
   56       -0.439277
   57       -0.254123
   58        0.122400
   59        0.125285
   60        0.770021
   61        2.477615
   62        2.852334
   63        2.855390
   64        3.218757
   65        5.331076
   66        5.493528
   67        5.494749
   68        5.712125
   69        8.414525
   70        8.627317
   71        8.628270
   72        8.853987
   73        9.524184
   74        9.899552
   75       10.115659
   76       10.120598
   77       10.392771
   78       10.743495
   79       11.593173
   80       11.597665
   81       11.967430
   82       12.137175
   83       12.299712
   84       12.304484
 
 -0.3333333E+00  0.3333333E+00  0.0000000E+00  0.1388889E-01
    1      -14.729284
    2      -14.640579
    3      -14.638153
    4      -14.545541
    5      -12.789228
    6      -12.711871
    7      -12.709383
    8      -12.629139
    9      -10.924516
   10      -10.922780
   11      -10.859618
   12      -10.856206
   13      -10.855558
   14      -10.855548
   15      -10.788614
   16      -10.786924
   17       -7.223481
   18       -7.221744
   19       -7.180421
   20       -7.177309
   21       -7.177296
   22       -7.176836
   23       -7.133153
   24       -7.131313
   25       -5.448325
   26       -5.409940
   27       -5.405749
   28       -5.366589
   29       -3.846186
   30       -3.844001
   31       -3.821737
   32       -3.818142
   33       -3.816213
   34       -3.816209
   35       -3.791216
   36       -3.789640
   37       -3.293548
   38       -2.642844
   39       -2.640543
   40       -1.872137
   41       -1.555361
   42       -1.540370
   43       -1.540241
   44       -1.525149
   45       -1.122852
   46       -1.106017
   47       -1.100235
   48       -1.083709
   49       -1.007310
   50       -0.428751
   51       -0.427021
   52        0.057087
   53        0.068277
   54        0.069455
   55        0.081009
   56        0.240000
   57        1.078762
   58        1.080808
   59        1.547666
   60        1.551910
   61        1.552977
   62        1.553161
   63        2.061735
   64        2.063929
   65        6.469045
   66        6.471423
   67        6.710553
   68        6.713059
   69        6.713437
   70        6.716111
   71        7.011160
   72        7.013700
   73        8.814959
   74        8.907695
   75        9.095187
   76        9.099837
   77        9.463205
   78       11.053079
   79       11.055800
   80       11.302668
   81       11.856781
   82       11.917385
   83       11.918515
   84       12.122246
 
 -0.1666667E+00  0.3333333E+00  0.0000000E+00  0.1388889E-01
    1      -14.893091
    2      -14.803418
    3      -14.801003
    4      -14.707328
    5      -12.001963
    6      -11.995579
    7      -11.930024
    8      -11.926452
    9      -11.921996
   10      -11.920774
   11      -11.851548
   12      -11.845183
   13       -9.660063
   14       -9.626360
   15       -9.622710
   16       -9.592685
   17       -8.629417
   18       -8.609210
   19       -8.608761
   20       -8.581757
   21       -6.452290
   22       -6.446689
   23       -6.410698
   24       -6.405364
   25       -6.402658
   26       -6.401833
   27       -6.362403
   28       -6.357274
   29       -4.033673
   30       -4.007495
   31       -4.003122
   32       -3.976323
   33       -3.490794
   34       -2.835351
   35       -2.833023
   36       -2.363234
   37       -2.352013
   38       -2.345249
   39       -2.342401
   40       -2.332382
   41       -2.332287
   42       -2.324163
   43       -2.312758
   44       -2.058086
   45       -0.506302
   46       -0.496880
   47       -0.491132
   48       -0.484204
   49       -0.116073