       N       E                     dE             d eps       ncg     rms          rms(c)
DAV:   1     0.733883696607E+03    0.73388E+03   -0.83253E+04 12768   0.199E+03
DAV:   2    -0.251316802523E+03   -0.98520E+03   -0.94932E+03 15924   0.342E+02
DAV:   3    -0.313096299579E+03   -0.61779E+02   -0.61159E+02 15516   0.846E+01
DAV:   4    -0.314348897549E+03   -0.12526E+01   -0.12500E+01 16176   0.130E+01
DAV:   5    -0.314385695764E+03   -0.36798E-01   -0.36785E-01 16524   0.208E+00    0.221E+01
DAV:   6    -0.299738582471E+03    0.14647E+02   -0.15027E+01 14592   0.107E+01    0.116E+01
DAV:   7    -0.295033704573E+03    0.47049E+01   -0.16398E+01 14508   0.111E+01    0.202E+00
DAV:   8    -0.295083215527E+03   -0.49511E-01   -0.66523E-01 15180   0.214E+00    0.107E+00
DAV:   9    -0.295091323421E+03   -0.81079E-02   -0.67435E-02 14412   0.870E-01    0.380E-01
DAV:  10    -0.295096143374E+03   -0.48200E-02   -0.14798E-01 20232   0.665E-01    0.365E-01
DAV:  11    -0.295090354903E+03    0.57885E-02   -0.12244E-02 14568   0.366E-01    0.177E-01
DAV:  12    -0.295091127864E+03   -0.77296E-03   -0.19562E-02 16176   0.203E-01    0.252E-01
DAV:  13    -0.295091133303E+03   -0.54400E-05   -0.12392E-02 14604   0.169E-01    0.148E-01
DAV:  14    -0.295092333532E+03   -0.12002E-02   -0.21708E-02 17040   0.199E-01    0.283E-01
DAV:  15    -0.295091209986E+03    0.11235E-02   -0.18276E-03 14712   0.102E-01    0.182E-01
DAV:  16    -0.295090992642E+03    0.21734E-03   -0.47032E-03 20244   0.878E-02    0.886E-02
DAV:  17    -0.295091090474E+03   -0.97832E-04   -0.36084E-03 14940   0.706E-02    0.145E-01
DAV:  18    -0.295091161675E+03   -0.71201E-04   -0.13573E-04 15060   0.222E-02    0.174E-01
DAV:  19    -0.295090971106E+03    0.19057E-03   -0.34285E-03 22584   0.614E-02    0.553E-02
DAV:  20    -0.295090954721E+03    0.16385E-04   -0.17009E-04 14640   0.188E-02    0.225E-02
DAV:  21    -0.295090954024E+03    0.69693E-06   -0.35224E-05 14868   0.916E-03    0.187E-02
DAV:  22    -0.295090953243E+03    0.78069E-06   -0.74297E-06 14724   0.547E-03    0.178E-02
DAV:  23    -0.295090953533E+03   -0.28980E-06   -0.25161E-06 16044   0.291E-03    0.199E-02
DAV:  24    -0.295090955532E+03   -0.19989E-05   -0.75390E-06 17412   0.333E-03    0.257E-02
DAV:  25    -0.295090955063E+03    0.46879E-06   -0.24542E-06 15900   0.265E-03    0.250E-02
DAV:  26    -0.295090951542E+03    0.35210E-05   -0.38997E-05 24348   0.696E-03    0.251E-03
DAV:  27    -0.295090952212E+03   -0.66947E-06   -0.28433E-06 15276   0.273E-03    0.629E-03
DAV:  28    -0.295090952047E+03    0.16425E-06   -0.14711E-07 14544   0.103E-03    0.528E-03
DAV:  29    -0.295090951739E+03    0.30805E-06   -0.99858E-07  9168   0.100E-03    0.212E-03
DAV:  30    -0.295090951749E+03   -0.98498E-08   -0.18706E-07 12864   0.736E-04    0.171E-03
DAV:  31    -0.295090951702E+03    0.46935E-07   -0.16755E-07  9108   0.590E-04    0.119E-03
DAV:  32    -0.295090951644E+03    0.58780E-07   -0.38080E-07  9024   0.797E-04    0.268E-03
DAV:  33    -0.295090951597E+03    0.46454E-07   -0.17188E-07  9660   0.702E-04    0.391E-03
DAV:  34    -0.295090951615E+03   -0.17575E-07   -0.82308E-08  8772   0.422E-04    0.284E-03
DAV:  35    -0.295090951587E+03    0.28148E-07   -0.65189E-09  8580   0.213E-04    0.285E-03
DAV:  36    -0.295090951672E+03   -0.85410E-07   -0.22697E-07  9048   0.509E-04    0.915E-04
DAV:  37    -0.295090951701E+03   -0.29015E-07   -0.35631E-08  8556   0.279E-04    0.183E-04
DAV:  38    -0.295090951709E+03   -0.83055E-08   -0.22472E-09  8568   0.138E-04
   1 F= -.29976832E+03 E0= -.29976832E+03  d E =0.000000E+00
