  12  12   0   0
  0.1063669E+02  0.4837314E-09  0.6416643E-09  0.4112214E-09  0.5000000E-15
  1.000000000000000E-004
  CAR 
 ethylene                                
      9.83016676    -17.75734059  301     -3.20493046      1.00000000
    -17.757  0.0000E+00  0.0000E+00
    -17.665  0.0000E+00  0.0000E+00
    -17.573  0.0000E+00  0.0000E+00
    -17.481  0.0000E+00  0.0000E+00
    -17.390  0.0000E+00  0.0000E+00
    -17.298  0.0000E+00  0.0000E+00
    -17.206  0.0000E+00  0.0000E+00
    -17.114  0.0000E+00  0.0000E+00
    -17.022  0.0000E+00  0.0000E+00
    -16.930  0.0000E+00  0.0000E+00
    -16.838  0.0000E+00  0.0000E+00
    -16.746  0.0000E+00  0.0000E+00
    -16.654  0.0000E+00  0.0000E+00
    -16.562  0.0000E+00  0.0000E+00
    -16.470  0.0000E+00  0.0000E+00
    -16.378  0.0000E+00  0.0000E+00
    -16.286  0.0000E+00  0.0000E+00
    -16.194  0.0000E+00  0.0000E+00
    -16.102  0.0000E+00  0.0000E+00
    -16.010  0.0000E+00  0.0000E+00
    -15.918  0.0000E+00  0.0000E+00
    -15.826  0.0000E+00  0.0000E+00
    -15.734  0.8438E-02  0.8812E-04
    -15.642  0.3170E-01  0.1881E-02
    -15.550  0.9908E-01  0.7267E-02
    -15.458  0.6415E-02  0.2000E-01
    -15.366  0.0000E+00  0.2000E-01
    -15.274  0.0000E+00  0.2000E-01
    -15.183  0.0000E+00  0.2000E-01
    -15.091  0.0000E+00  0.2000E-01
    -14.999  0.0000E+00  0.2000E-01
    -14.907  0.0000E+00  0.2000E-01
    -14.815  0.0000E+00  0.2000E-01
    -14.723  0.0000E+00  0.2000E-01
    -14.631  0.0000E+00  0.2000E-01
    -14.539  0.0000E+00  0.2000E-01
    -14.447  0.0000E+00  0.2000E-01
    -14.355  0.0000E+00  0.2000E-01
    -14.263  0.0000E+00  0.2000E-01
    -14.171  0.0000E+00  0.2000E-01
    -14.079  0.0000E+00  0.2000E-01
    -13.987  0.0000E+00  0.2000E-01
    -13.895  0.0000E+00  0.2000E-01
    -13.803  0.0000E+00  0.2000E-01
    -13.711  0.0000E+00  0.2000E-01
    -13.619  0.0000E+00  0.2000E-01
    -13.527  0.0000E+00  0.2000E-01
    -13.435  0.0000E+00  0.2000E-01
    -13.343  0.0000E+00  0.2000E-01
    -13.251  0.0000E+00  0.2000E-01
    -13.159  0.0000E+00  0.2000E-01
    -13.067  0.0000E+00  0.2000E-01
    -12.976  0.0000E+00  0.2000E-01
    -12.884  0.0000E+00  0.2000E-01
    -12.792  0.0000E+00  0.2000E-01
    -12.700  0.0000E+00  0.2000E-01
    -12.608  0.0000E+00  0.2000E-01
    -12.516  0.0000E+00  0.2000E-01
    -12.424  0.0000E+00  0.2000E-01
    -12.332  0.0000E+00  0.2000E-01
    -12.240  0.0000E+00  0.2000E-01
    -12.148  0.0000E+00  0.2000E-01
    -12.056  0.0000E+00  0.2000E-01
    -11.964  0.0000E+00  0.2000E-01
    -11.872  0.0000E+00  0.2000E-01
    -11.780  0.0000E+00  0.2000E-01
    -11.688  0.0000E+00  0.2000E-01
    -11.596  0.0000E+00  0.2000E-01
    -11.504  0.0000E+00  0.2000E-01
    -11.412  0.0000E+00  0.2000E-01
    -11.320  0.0000E+00  0.2000E-01
    -11.228  0.0000E+00  0.2000E-01
    -11.136  0.2702E-03  0.2000E-01
    -11.044  0.6003E-01  0.2435E-01
    -10.952  0.7724E-01  0.3039E-01
    -10.860  0.6473E-01  0.3829E-01
    -10.769  0.0000E+00  0.4000E-01
    -10.677  0.0000E+00  0.4000E-01
    -10.585  0.0000E+00  0.4000E-01
    -10.493  0.0000E+00  0.4000E-01
    -10.401  0.0000E+00  0.4000E-01
    -10.309  0.0000E+00  0.4000E-01
    -10.217  0.0000E+00  0.4000E-01
    -10.125  0.0000E+00  0.4000E-01
    -10.033  0.0000E+00  0.4000E-01
     -9.941  0.0000E+00  0.4000E-01
     -9.849  0.0000E+00  0.4000E-01
     -9.757  0.0000E+00  0.4000E-01
     -9.665  0.0000E+00  0.4000E-01
     -9.573  0.0000E+00  0.4000E-01
     -9.481  0.0000E+00  0.4000E-01
     -9.389  0.0000E+00  0.4000E-01
     -9.297  0.0000E+00  0.4000E-01
     -9.205  0.0000E+00  0.4000E-01
     -9.113  0.0000E+00  0.4000E-01
     -9.021  0.0000E+00  0.4000E-01
     -8.929  0.0000E+00  0.4000E-01
     -8.837  0.0000E+00  0.4000E-01
     -8.745  0.0000E+00  0.4000E-01
     -8.653  0.0000E+00  0.4000E-01
     -8.562  0.0000E+00  0.4000E-01
     -8.470  0.0000E+00  0.4000E-01
     -8.378  0.4227E-01  0.4163E-01
     -8.286  0.4208E-01  0.4602E-01
     -8.194  0.3304E-01  0.4935E-01
     -8.102  0.3172E-01  0.5233E-01
     -8.010  0.5401E-01  0.5592E-01
     -7.918  0.2107E-01  0.5982E-01
     -7.826  0.0000E+00  0.6000E-01
     -7.734  0.0000E+00  0.6000E-01
     -7.642  0.0000E+00  0.6000E-01
     -7.550  0.0000E+00  0.6000E-01
     -7.458  0.0000E+00  0.6000E-01
     -7.366  0.0000E+00  0.6000E-01
     -7.274  0.0000E+00  0.6000E-01
     -7.182  0.7858E-02  0.6037E-01
     -7.090  0.1655E-01  0.6145E-01
     -6.998  0.3581E-01  0.6370E-01
     -6.906  0.1028E+00  0.6973E-01
     -6.814  0.4031E-01  0.7650E-01
     -6.722  0.2179E-01  0.7929E-01
     -6.630  0.0000E+00  0.8000E-01
     -6.538  0.0000E+00  0.8000E-01
     -6.446  0.0000E+00  0.8000E-01
     -6.355  0.0000E+00  0.8000E-01
     -6.263  0.0000E+00  0.8000E-01
     -6.171  0.0000E+00  0.8000E-01
     -6.079  0.0000E+00  0.8000E-01
     -5.987  0.0000E+00  0.8000E-01
     -5.895  0.0000E+00  0.8000E-01
     -5.803  0.0000E+00  0.8000E-01
     -5.711  0.0000E+00  0.8000E-01
     -5.619  0.9215E-02  0.8042E-01
     -5.527  0.1339E-01  0.8146E-01
     -5.435  0.1838E-01  0.8290E-01
     -5.343  0.2782E-01  0.8496E-01
     -5.251  0.6415E-01  0.8868E-01
     -5.159  0.4643E-01  0.9367E-01
     -5.067  0.2590E-01  0.9714E-01
     -4.975  0.1351E-01  0.9887E-01
     -4.883  0.6594E-02  0.9977E-01
     -4.791  0.0000E+00  0.1000E+00
     -4.699  0.0000E+00  0.1000E+00
     -4.607  0.0000E+00  0.1000E+00
     -4.515  0.0000E+00  0.1000E+00
     -4.423  0.0000E+00  0.1000E+00
     -4.331  0.0000E+00  0.1000E+00
     -4.239  0.0000E+00  0.1000E+00
     -4.148  0.0000E+00  0.1000E+00
     -4.056  0.0000E+00  0.1000E+00
     -3.964  0.0000E+00  0.1000E+00
     -3.872  0.3772E-02  0.1001E+00
     -3.780  0.9930E-02  0.1007E+00
     -3.688  0.2010E-01  0.1020E+00
     -3.596  0.5518E-01  0.1051E+00
     -3.504  0.8651E-01  0.1127E+00
     -3.412  0.2974E-01  0.1173E+00
     -3.320  0.1629E-01  0.1194E+00
     -3.228  0.0000E+00  0.1200E+00
     -3.136  0.0000E+00  0.1200E+00
     -3.044  0.0000E+00  0.1200E+00
     -2.952  0.0000E+00  0.1200E+00
     -2.860  0.0000E+00  0.1200E+00
     -2.768  0.0000E+00  0.1200E+00
     -2.676  0.0000E+00  0.1200E+00
     -2.584  0.0000E+00  0.1200E+00
     -2.492  0.0000E+00  0.1200E+00
     -2.400  0.0000E+00  0.1200E+00
     -2.308  0.0000E+00  0.1200E+00
     -2.216  0.0000E+00  0.1200E+00
     -2.124  0.0000E+00  0.1200E+00
     -2.032  0.0000E+00  0.1200E+00
     -1.941  0.0000E+00  0.1200E+00
     -1.849  0.0000E+00  0.1200E+00
     -1.757  0.0000E+00  0.1200E+00
     -1.665  0.0000E+00  0.1200E+00
     -1.573  0.0000E+00  0.1200E+00
     -1.481  0.0000E+00  0.1200E+00
     -1.389  0.0000E+00  0.1200E+00
     -1.297  0.0000E+00  0.1200E+00
     -1.205  0.0000E+00  0.1200E+00
     -1.113  0.0000E+00  0.1200E+00
     -1.021  0.0000E+00  0.1200E+00
     -0.929  0.0000E+00  0.1200E+00
     -0.837  0.0000E+00  0.1200E+00
     -0.745  0.0000E+00  0.1200E+00
     -0.653  0.0000E+00  0.1200E+00
     -0.561  0.0000E+00  0.1200E+00
     -0.469  0.0000E+00  0.1200E+00
     -0.377  0.0000E+00  0.1200E+00
     -0.285  0.0000E+00  0.1200E+00
     -0.193  0.0000E+00  0.1200E+00
     -0.101  0.0000E+00  0.1200E+00
     -0.009  0.0000E+00  0.1200E+00
      0.083  0.0000E+00  0.1200E+00
      0.175  0.0000E+00  0.1200E+00
      0.266  0.0000E+00  0.1200E+00
      0.358  0.0000E+00  0.1200E+00
      0.450  0.0000E+00  0.1200E+00
      0.542  0.0000E+00  0.1200E+00
      0.634  0.0000E+00  0.1200E+00
      0.726  0.0000E+00  0.1200E+00
      0.818  0.0000E+00  0.1200E+00
      0.910  0.0000E+00  0.1200E+00
      1.002  0.0000E+00  0.1200E+00
      1.094  0.0000E+00  0.1200E+00
      1.186  0.0000E+00  0.1200E+00
      1.278  0.3032E-02  0.1201E+00
      1.370  0.4925E-02  0.1205E+00
      1.462  0.6252E-02  0.1210E+00
      1.554  0.7660E-02  0.1216E+00
      1.646  0.9221E-02  0.1224E+00
      1.738  0.1134E-01  0.1234E+00
      1.830  0.1526E-01  0.1246E+00
      1.922  0.1594E-01  0.1260E+00
      2.014  0.1675E-01  0.1275E+00
      2.106  0.1836E-01  0.1291E+00
      2.198  0.2077E-01  0.1309E+00
      2.290  0.2533E-01  0.1331E+00
      2.382  0.2591E-01  0.1354E+00
      2.473  0.2368E-01  0.1377E+00
      2.565  0.1112E-01  0.1394E+00
      2.657  0.1137E-02  0.1400E+00
      2.749  0.0000E+00  0.1400E+00
      2.841  0.0000E+00  0.1400E+00
      2.933  0.0000E+00  0.1400E+00
      3.025  0.0000E+00  0.1400E+00
      3.117  0.0000E+00  0.1400E+00
      3.209  0.2133E-02  0.1400E+00
      3.301  0.4543E-02  0.1404E+00
      3.393  0.5015E-02  0.1409E+00
      3.485  0.5549E-02  0.1413E+00
      3.577  0.6128E-02  0.1419E+00
      3.669  0.6664E-02  0.1425E+00
      3.761  0.7370E-02  0.1431E+00
      3.853  0.8305E-02  0.1438E+00
      3.945  0.9067E-02  0.1446E+00
      4.037  0.9828E-02  0.1455E+00
      4.129  0.1118E-01  0.1465E+00
      4.221  0.1325E-01  0.1476E+00
      4.313  0.1588E-01  0.1489E+00
      4.405  0.1943E-01  0.1505E+00
      4.497  0.2333E-01  0.1525E+00
      4.589  0.2304E-01  0.1547E+00
      4.680  0.1764E-01  0.1566E+00
      4.772  0.1303E-01  0.1580E+00
      4.864  0.1049E-01  0.1591E+00
      4.956  0.9031E-02  0.1599E+00
      5.048  0.1110E-01  0.1609E+00
      5.140  0.1189E-01  0.1620E+00
      5.232  0.1351E-01  0.1632E+00
      5.324  0.1733E-01  0.1646E+00
      5.416  0.1688E-01  0.1663E+00
      5.508  0.1740E-01  0.1678E+00
      5.600  0.1770E-01  0.1695E+00
      5.692  0.2027E-01  0.1712E+00
      5.784  0.2041E-01  0.1731E+00
      5.876  0.1886E-01  0.1749E+00
      5.968  0.1471E-01  0.1764E+00
      6.060  0.1266E-01  0.1776E+00
      6.152  0.1203E-01  0.1788E+00
      6.244  0.9851E-02  0.1798E+00
      6.336  0.1037E-01  0.1807E+00
      6.428  0.1309E-01  0.1818E+00
      6.520  0.1302E-01  0.1830E+00
      6.612  0.1282E-01  0.1842E+00
      6.704  0.9616E-02  0.1852E+00
      6.796  0.8521E-02  0.1860E+00
      6.887  0.1035E-01  0.1869E+00
      6.979  0.8269E-02  0.1878E+00
      7.071  0.6992E-02  0.1885E+00
      7.163  0.5855E-02  0.1891E+00
      7.255  0.2717E-02  0.1895E+00
      7.347  0.1654E-02  0.1897E+00
      7.439  0.1267E-02  0.1898E+00
      7.531  0.8184E-03  0.1899E+00
      7.623  0.4955E-03  0.1900E+00
      7.715  0.2248E-03  0.1900E+00
      7.807  0.1196E-04  0.1900E+00
      7.899  0.0000E+00  0.1900E+00
      7.991  0.0000E+00  0.1900E+00
      8.083  0.0000E+00  0.1900E+00
      8.175  0.0000E+00  0.1900E+00
      8.267  0.0000E+00  0.1900E+00
      8.359  0.0000E+00  0.1900E+00
      8.451  0.0000E+00  0.1900E+00
      8.543  0.0000E+00  0.1900E+00
      8.635  0.0000E+00  0.1900E+00
      8.727  0.0000E+00  0.1900E+00
      8.819  0.0000E+00  0.1900E+00
      8.911  0.0000E+00  0.1900E+00
      9.003  0.0000E+00  0.1900E+00
      9.094  0.0000E+00  0.1900E+00
      9.186  0.0000E+00  0.1900E+00
      9.278  0.0000E+00  0.1900E+00
      9.370  0.0000E+00  0.1900E+00
      9.462  0.0000E+00  0.1900E+00
      9.554  0.0000E+00  0.1900E+00
      9.646  0.0000E+00  0.1900E+00
      9.738  0.0000E+00  0.1900E+00
      9.830  0.0000E+00  0.1900E+00
