   12   12  200    1
  0.1063669E+02  0.4837314E-09  0.6416643E-09  0.4112214E-09  0.5000000E-15
  1.000000000000000E-004
  CAR 
 ethylene                                
     24    350     19
 
  0.0000000E+00  0.0000000E+00  0.0000000E+00  0.8680556E-03
    1      -15.755321
    2      -15.478603
    3      -10.932523
    4      -10.926652
    5       -7.986647
    6       -7.918894
    7       -7.269623
    8       -6.909939
    9       -5.243988
   10       -4.820349
   11       -3.562733
   12       -3.285618
   13        1.205129
   14        2.542409
   15        3.191115
   16        4.531873
   17        5.702374
   18        6.798725
   19        6.976028
 
  0.8333333E-01  0.0000000E+00  0.0000000E+00  0.1736111E-02
    1      -15.747796
    2      -15.479946
    3      -10.946592
    4      -10.938417
    5       -7.990291
    6       -7.917383
    7       -7.245935
    8       -6.899447
    9       -5.247153
   10       -4.835794
   11       -3.560027
   12       -3.298587
   13        1.256007
   14        2.561910
   15        3.196291
   16        4.545259
   17        5.731858
   18        6.481697
   19        6.874772
 
  0.1666667E+00  0.0000000E+00  0.0000000E+00  0.1736111E-02
    1      -15.726149
    2      -15.484606
    3      -10.984194
    4      -10.970897
    5       -7.996213
    6       -7.913933
    7       -7.182948
    8       -6.873299
    9       -5.253599
   10       -4.879320
   11       -3.553108
   12       -3.333713
   13        1.401617
   14        2.607769
   15        3.224925
   16        4.584108
   17        5.813252
   18        5.938483
   19        6.595364
 
  0.2500000E+00  0.0000000E+00  0.0000000E+00  0.1736111E-02
    1      -15.693094
    2      -15.494286
    3      -11.033504
    4      -11.016242
    5       -7.995612
    6       -7.911587
    7       -7.098393
    8       -6.844687
    9       -5.255439
   10       -4.943463
   11       -3.544323
   12       -3.381530
   13        1.621955
   14        2.644330
   15        3.309384
   16        4.640611
   17        5.410271
   18        5.920187
   19        6.225530
 
  0.3333333E+00  0.0000000E+00  0.0000000E+00  0.1736111E-02
    1      -15.652767
    2      -15.511035
    3      -11.079892
    4      -11.063340
    5       -7.984344
    6       -7.914186
    7       -7.009814
    8       -6.828724
    9       -5.243609
   10       -5.018350
   11       -3.534705
   12       -3.430867
   13        1.886127
   14        2.632067
   15        3.474270
   16        4.648136
   17        5.010200
   18        5.775147
   19        6.114880
 
  0.4166667E+00  0.0000000E+00  0.0000000E+00  0.1736111E-02
    1      -15.610101
    2      -15.536292
    3      -11.110556
    4      -11.100395
    5       -7.964651
    6       -7.924546
    7       -6.930775
    8       -6.836180
    9       -5.212218
   10       -5.093823
   11       -3.522329
   12       -3.472780
   13        2.154938
   14        2.548877
   15        3.715786
   16        4.370268
   17        4.995309
   18        5.438289
   19        6.249456
 
  0.5000000E+00  0.0000000E+00  0.0000000E+00  0.8680556E-03
    1      -15.569999
    2      -15.569999
    3      -11.117800
    4      -11.117800
    5       -7.942611
    6       -7.942611
    7       -6.870891
    8       -6.870891
    9       -5.160855
   10       -5.160855
   11       -3.503024
   12       -3.503024
   13        2.386498
   14        2.386499
   15        4.020042
   16        4.020042
   17        5.171696
   18        5.171697
   19        6.385375
 
  0.0000000E+00  0.8333333E-01  0.0000000E+00  0.1736111E-02
    1      -15.750862
    2      -15.483600
    3      -10.931771
    4      -10.926050
    5       -7.988486
    6       -7.923790
    7       -7.261191
    8       -6.914437
    9       -5.237116
   10       -4.828018
   11       -3.555547
   12       -3.287292
   13        1.224387
   14        2.519874
   15        3.196299
   16        4.500582
   17        5.708360
   18        6.807940
   19        6.973466
 
  0.8333333E-01  0.8333333E-01  0.0000000E+00  0.3472222E-02
    1      -15.743460
    2      -15.484754
    3      -10.946595
    4      -10.937402
    5       -7.992152
    6       -7.921009
    7       -7.238311
    8       -6.903951
    9       -5.240202
   10       -4.842737
   11       -3.554165
   12       -3.300297
   13        1.274700
   14        2.540645
   15        3.201140
   16        4.515675
   17        5.736554
   18        6.488089
   19        6.880954
 
  0.1666667E+00  0.8333333E-01  0.0000000E+00  0.3472222E-02
    1      -15.722184
    2      -15.488883
    3      -10.985057
    4      -10.969957
    5       -7.997422
    6       -7.915274
    7       -7.177143
    8       -6.877761
    9       -5.246498
   10       -4.884332
   11       -3.550745
   12       -3.335639
   13        1.418735
   14        2.590888
   15        3.228250
   16        4.558864
   17        5.815858
   18        5.948751
   19        6.581996
 
  0.2500000E+00  0.8333333E-01  0.0000000E+00  0.3472222E-02
    1      -15.689751
    2      -15.497708
    3      -11.034899
    4      -11.015990
    5       -7.995415
    6       -7.911070
    7       -7.094506
    8       -6.848810
    9       -5.248348
   10       -4.945903
   11       -3.546407
   12       -3.384044
   13        1.636754
   14        2.635249
   15        3.309694
   16        4.622769
   17        5.415737
   18        5.938125
   19        6.186159
 
  0.3333333E+00  0.8333333E-01  0.0000000E+00  0.3472222E-02
    1      -15.650275
    2      -15.513357
    3      -11.081611
    4      -11.063933
    5       -7.982729
    6       -7.912398
    7       -7.007603
    8       -6.832049
    9       -5.236920
   10       -5.018161
   11       -3.540602
   12       -3.434594
   13        1.898212
   14        2.631026
   15        3.473027
   16        4.655488
   17        4.991492
   18        5.775072
   19        6.096506
 
  0.4166667E+00  0.8333333E-01  0.0000000E+00  0.3472222E-02
    1      -15.608679
    2      -15.537369
    3      -11.112403
    4      -11.101698
    5       -7.962098
    6       -7.921977
    7       -6.930083
    8       -6.838326
    9       -5.206429
   10       -5.091309
   11       -3.530084
   12       -3.478351
   13        2.164285
   14        2.552894
   15        3.717679
   16        4.388770
   17        4.964205
   18        5.423211
   19        6.259015
 
  0.5000000E+00  0.8333333E-01  0.0000000E+00  0.1736111E-02
    1      -15.569789
    2      -15.569788
    3      -11.119521
    4      -11.119520
    5       -7.939755
    6       -7.939754
    7       -6.871624
    8       -6.871624
    9       -5.156454
   10       -5.156453
   11       -3.510347
   12       -3.510346
   13        2.393372
   14        2.393373
   15        4.029315
   16        4.029315
   17        5.148578
   18        5.148579
   19        6.420394
 
  0.0000000E+00  0.1666667E+00  0.0000000E+00  0.1736111E-02
    1      -15.737739
    2      -15.498181
    3      -10.929681
    4      -10.924431
    5       -7.993301
    6       -7.937032
    7       -7.237309
    8       -6.927947
    9       -5.216875
   10       -4.850352
   11       -3.534887
   12       -3.292953
   13        1.281514
   14        2.450128
   15        3.219447
   16        4.406332
   17        5.738730
   18        6.823856
   19        6.978456
 
  0.8333333E-01  0.1666667E+00  0.0000000E+00  0.3472222E-02
    1      -15.730705
    2      -15.498807
    3      -10.946027
    4      -10.935220
    5       -7.996729
    6       -7.931262
    7       -7.216485
    8       -6.917493
    9       -5.219783
   10       -4.863144
   11       -3.536974
   12       -3.306162
   13        1.330196
   14        2.473811
   15        3.224263
   16        4.425396
   17        5.762605
   18        6.503018
   19        6.905315
 
  0.1666667E+00  0.1666667E+00  0.0000000E+00  0.3472222E-02
    1      -15.710540
    2      -15.501381
    3      -10.986374
    4      -10.968440
    5       -7.999730
    6       -7.920018
    7       -7.160123
    8       -6.891060
    9       -5.225767
   10       -4.899506
   11       -3.542770
   12       -3.342323
   13        1.469677
   14        2.534503
   15        3.249699
   16        4.478941
   17        5.831007
   18        5.974646
   19        6.577041
 
  0.2500000E+00  0.1666667E+00  0.0000000E+00  0.3472222E-02
    1      -15.679937
    2      -15.507737
    3      -11.037758
    4      -11.016267
    5       -7.993799
    6       -7.910899
    7       -7.082820
    8       -6.861017
    9       -5.227802
   10       -4.953924
   11       -3.550243
   12       -3.392705
   13        1.681011
   14        2.599242
   15        3.325138
   16        4.559664
   17        5.438974
   18        5.927287
   19        6.185538
 
  0.3333333E+00  0.1666667E+00  0.0000000E+00  0.3472222E-02
    1      -15.642990
    2      -15.520197
    3      -11.085623
    4      -11.066248
    5       -7.977449
    6       -7.908468
    7       -7.000806
    8       -6.841862
    9       -5.217673
   10       -5.018575
   11       -3.554805
   12       -3.446781
   13        1.934509
   14        2.619566
   15        3.482990
   16        4.648629
   17        4.964251
   18        5.714049
   19        6.148655
 
  0.4166667E+00  0.1666667E+00  0.0000000E+00  0.3472222E-02
    1      -15.604536
    2      -15.540570
    3      -11.117088
    4      -11.105596
    5       -7.954652
    6       -7.915452
    7       -6.927791
    8       -6.844572
    9       -5.189941
   10       -5.084789
   11       -3.550021
   12       -3.495047
   13        2.192047
   14        2.559886
   15        3.732192
   16        4.439804
   17        4.878103
   18        5.364438
   19        6.326996
 
  0.5000000E+00  0.1666667E+00  0.0000000E+00  0.1736111E-02
    1      -15.569225
    2      -15.569225
    3      -11.124218
    4      -11.124218
    5       -7.931961
    6       -7.931960
    7       -6.873700
    8       -6.873700
    9       -5.144237
   10       -5.144237
   11       -3.530564
   12       -3.530564
   13        2.412050
   14        2.412050
   15        4.058951
   16        4.058951
   17        5.079694
   18        5.079694
   19        6.523047
 
  0.0000000E+00  0.2500000E+00  0.0000000E+00  0.1736111E-02
    1      -15.716715
    2      -15.521188
    3      -10.926724
    4      -10.922307
    5       -7.999223
    6       -7.955031
    7       -7.201456
    8       -6.950405
    9       -5.184443
   10       -4.885462
   11       -3.503311
   12       -3.304204
   13        1.374494
   14        2.333254
   15        3.274583
   16        4.255419
   17        5.814813
   18        6.810509
   19        7.007435
 
  0.8333333E-01  0.2500000E+00  0.0000000E+00  0.3472222E-02
    1      -15.710285
    2      -15.520994
    3      -10.944279
    4      -10.933207
    5       -8.001538
    6       -7.946324
    7       -7.183180
    8       -6.939872
    9       -5.187194
   10       -4.895713
   11       -3.509781
   12       -3.317868
   13        1.420667
   14        2.360072
   15        3.281201
   16        4.278113
   17        5.830873
   18        6.514021
   19        6.949351
 
  0.1666667E+00  0.2500000E+00  0.0000000E+00  0.3472222E-02
    1      -15.691917
    2      -15.521153
    3      -10.986498
    4      -10.968044
    5       -8.000288
    6       -7.929215
    7       -7.133114
    8       -6.912789
    9       -5.193038
   10       -4.924975
   11       -3.527370
   12       -3.355654
   13        1.553137
   14        2.432304
   15        3.309673
   16        4.341723
   17        5.869492
   18        6.009455
   19        6.615181
 
  0.2500000E+00  0.2500000E+00  0.0000000E+00  0.3472222E-02
    1      -15.664293
    2      -15.523671
    3      -11.039953
    4      -11.018369
    5       -7.988765
    6       -7.913787
    7       -7.063464
    8       -6.880730
    9       -5.195807
   10       -4.969145
   11       -3.550402
   12       -3.409341
   13        1.754066
   14        2.522126
   15        3.383129
   16        4.438439
   17        5.484872
   18        5.850767
   19        6.315084
 
  0.3333333E+00  0.2500000E+00  0.0000000E+00  0.3472222E-02
    1      -15.631439
    2      -15.531137
    3      -11.089763
    4      -11.070739
    5       -7.967965
    6       -7.905574
    7       -6.989049
    8       -6.857540
    9       -5.188210
   10       -5.022198
   11       -3.569547
   12       -3.468205
   13        1.994710
   14        2.580407
   15        3.532589
   16        4.565732
   17        4.985880
   18        5.591798
   19        6.316456
 
  0.4166667E+00  0.2500000E+00  0.0000000E+00  0.3472222E-02
    1      -15.598037
    2      -15.545779
    3      -11.122747
    4      -11.111620
    5       -7.943214
    6       -7.907859
    7       -6.923404
    8       -6.854377
    9       -5.165368
   10       -5.077199
   11       -3.574579
   12       -3.521196
   13        2.236900
   14        2.557842
   15        3.778202
   16        4.514433
   17        4.747549
   18        5.258218
   19        6.479279
 
  0.5000000E+00  0.2500000E+00  0.0000000E+00  0.1736111E-02
    1      -15.568452
    2      -15.568452
    3      -11.130604
    4      -11.130603
    5       -7.921293
    6       -7.921293
    7       -6.876579
    8       -6.876578
    9       -5.127027
   10       -5.127027
   11       -3.558611
   12       -3.558610
   13        2.437361
   14        2.437361
   15        4.113125
   16        4.113125
   17        4.969115
   18        4.969116
   19        6.684446
 
  0.0000000E+00  0.3333333E+00  0.0000000E+00  0.1736111E-02
    1      -15.689055
    2      -15.550844
    3      -10.923583
    4      -10.920368
    5       -8.003816
    6       -7.973669
    7       -7.157914
    8       -6.981370
    9       -5.141813
   10       -4.930594
   11       -3.464645
   12       -3.322746
   13        1.499766
   14        2.179000
   15        3.369560
   16        4.066991
   17        5.945240
   18        6.720579
   19        7.065584
 
  0.8333333E-01  0.3333333E+00  0.0000000E+00  0.3472222E-02
    1      -15.683428
    2      -15.549614
    3      -10.941437
    4      -10.932285
    5       -8.003766
    6       -7.963558
    7       -7.142041
    8       -6.970519
    9       -5.144591
   10       -4.938302
   11       -3.475124
   12       -3.337046
   13        1.542825
   14        2.208785
   15        3.379924
   16        4.091056
   17        5.948833
   18        6.496937
   19        7.000362
 
  0.1666667E+00  0.3333333E+00  0.0000000E+00  0.3472222E-02
    1      -15.667482
    2      -15.546748
    3      -10.984789
    4      -10.969515
    5       -7.996706
    6       -7.942705
    7       -7.098352
    8       -6.942159
    9       -5.150921
   10       -4.960244
   11       -3.503748
   12       -3.376933
   13        1.666486
   14        2.291638
   15        3.416900
   16        4.159283
   17        5.930434
   18        6.044000
   19        6.697369
 
  0.2500000E+00  0.3333333E+00  0.0000000E+00  0.3472222E-02
    1      -15.643855
    2      -15.544404
    3      -11.040142
    4      -11.022498
    5       -7.979202
    6       -7.921552
    7       -7.037245
    8       -6.906927
    9       -5.155532
   10       -4.993099
   11       -3.542062
   12       -3.434126
   13        1.854056
   14        2.405181
   15        3.495793
   16        4.264632
   17        5.544678
   18        5.778478
   19        6.513413
 
  0.3333333E+00  0.3333333E+00  0.0000000E+00  0.3472222E-02
    1      -15.616464
    2      -15.545507
    3      -11.092245
    4      -11.076879
    5       -7.954727
    6       -7.906664
    7       -6.972253
    8       -6.878034
    9       -5.152212
   10       -5.032264
   11       -3.577126
   12       -3.496907
   13        2.077107
   14        2.505578
   15        3.639081
   16        4.404917
   17        5.055469
   18        5.465349
   19        6.550298
 
  0.4166667E+00  0.3333333E+00  0.0000000E+00  0.3472222E-02
    1      -15.589750
    2      -15.552774
    3      -11.127458
    4      -11.118540
    5       -7.929650
    6       -7.902435
    7       -6.916405
    8       -6.866822
    9       -5.136814
   10       -5.072688
   11       -3.595263
   12       -3.552007
   13        2.295669
   14        2.536042
   15        3.870307
   16        4.562718
   17        4.624868
   18        5.125465
   19        6.696201
 
  0.5000000E+00  0.3333333E+00  0.0000000E+00  0.1736111E-02
    1      -15.567681
    2      -15.567680
    3      -11.136959
    4      -11.136959
    5       -7.910617
    6       -7.910617
    7       -6.879527
    8       -6.879526
    9       -5.109180
   10       -5.109179
   11       -3.587214
   12       -3.587214
   13        2.462367
   14        2.462368
   15        4.194607
   16        4.194607
   17        4.828704
   18        4.828704
   19        6.884410
 
  0.0000000E+00  0.4166667E+00  0.0000000E+00  0.1736111E-02
    1      -15.656433
    2      -15.584909
    3      -10.920958
    4      -10.919258
    5       -8.004641
    6       -7.989429
    7       -7.110756
    8       -7.019713
    9       -5.091680
   10       -4.982407
   11       -3.423305
   12       -3.349443
   13        1.651955
   14        2.003603
   15        3.504195
   16        3.865702
   17        6.123709
   18        6.547137
   19        7.151241
 
  0.8333333E-01  0.4166667E+00  0.0000000E+00  0.3472222E-02
    1      -15.651796
    2      -15.582544
    3      -10.938079
    4      -10.932898
    5       -8.001282
    6       -7.980060
    7       -7.096875
    8       -7.008283
    9       -5.094866
   10       -4.988019
   11       -3.436603
   12       -3.364262
   13        1.691564
   14        2.036420
   15        3.519242
   16        3.888524
   17        6.105994
   18        6.419298
   19        7.046865
 
  0.1666667E+00  0.4166667E+00  0.0000000E+00  0.3472222E-02
    1      -15.638783
    2      -15.576294
    3      -10.981399
    4      -10.972743
    5       -7.987977
    6       -7.958733
    7       -7.058732
    8       -6.977747
    9       -5.102746
   10       -5.003633
   11       -3.473182
   12       -3.405580
   13        1.805342
   14        2.129513
   15        3.567398
   16        3.954707
   17        5.997290
   18        6.061536
   19        6.816837
 
  0.2500000E+00  0.4166667E+00  0.0000000E+00  0.3472222E-02
    1      -15.619981
    2      -15.568499
    3      -11.037875
    4      -11.027939
    5       -7.965559
    6       -7.934096
    7       -7.005889
    8       -6.938032
    9       -5.110943
   10       -5.026039
   11       -3.523402
   12       -3.464582
   13        1.977203
   14        2.264359
   15        3.656308
   16        4.060201
   17        5.606889
   18        5.720369
   19        6.748786
 
  0.3333333E+00  0.4166667E+00  0.0000000E+00  0.3472222E-02
    1      -15.599138
    2      -15.562393
    3      -11.092014
    4      -11.083415
    5       -7.939482
    6       -7.913190
    7       -6.951046
    8       -6.901802
    9       -5.114282
   10       -5.051181
   11       -3.572625
   12       -3.528023
   13        2.177751
   14        2.403675
   15        3.798110
   16        4.203718
   17        5.145362
   18        5.350144
   19        6.816790
 
  0.4166667E+00  0.4166667E+00  0.0000000E+00  0.3472222E-02
    1      -15.580364
    2      -15.561211
    3      -11.129726
    4      -11.124754
    5       -7.916556
    6       -7.901662
    7       -6.906590
    8       -6.880620
    9       -5.109310
   10       -5.075392
   11       -3.604936
   12       -3.580552
   13        2.362968
   14        2.492034
   15        4.010044
   16        4.381043
   17        4.725253
   18        4.985709
   19        6.940026
 
  0.5000000E+00  0.4166667E+00  0.0000000E+00  0.1736111E-02
    1      -15.567115
    2      -15.567115
    3      -11.141593
    4      -11.141593
    5       -7.902795
    6       -7.902795
    7       -6.881728
    8       -6.881728
    9       -5.095680
   10       -5.095680
   11       -3.608545
   12       -3.608545
   13        2.480432
   14        2.480432
   15        4.297132
   16        4.297133
   17        4.681822
   18        4.681823
   19        7.078309
 
  0.0000000E+00  0.5000000E+00  0.0000000E+00  0.8680556E-03
    1      -15.620935
    2      -15.620934
    3      -10.919422
    4      -10.919422
    5       -8.000019
    6       -8.000018
    7       -7.063659
    8       -7.063659
    9       -5.037328
   10       -5.037328
   11       -3.383698
   12       -3.383697
   13        1.823391
   14        1.823391
   15        3.672942
   16        3.672942
   17        6.333635
   18        6.333635
   19        7.259320
 
  0.8333333E-01  0.5000000E+00  0.0000000E+00  0.1736111E-02
    1      -15.617403
    2      -15.617403
    3      -10.934985
    4      -10.934985
    5       -7.993210
    6       -7.993210
    7       -7.051248
    8       -7.051248
    9       -5.041442
   10       -5.041442
   11       -3.398361
   12       -3.398361
   13        1.859507
   14        1.859507
   15        3.692476
   16        3.692476
   17        6.276472
   18        6.276473
   19        7.092447
 
  0.1666667E+00  0.5000000E+00  0.0000000E+00  0.1736111E-02
    1      -15.607693
    2      -15.607692
    3      -10.977043
    4      -10.977043
    5       -7.974702
    6       -7.974702
    7       -7.017496
    8       -7.017496
    9       -5.052343
   10       -5.052342
   11       -3.439019
   12       -3.439018
   13        1.962940
   14        1.962940
   15        3.751253
   16        3.751254
   17        6.046391
   18        6.046391
   19        6.962918
 
  0.2500000E+00  0.5000000E+00  0.0000000E+00  0.1736111E-02
    1      -15.594279
    2      -15.594279
    3      -11.033488
    4      -11.033487
    5       -7.949653
    6       -7.949653
    7       -6.971883
    8       -6.971883
    9       -5.066393
   10       -5.066393
   11       -3.496126
   12       -3.496126
   13        2.117166
   14        2.117167
   15        3.850284
   16        3.850284
   17        5.665485
   18        5.665486
   19        6.989614
 
  0.3333333E+00  0.5000000E+00  0.0000000E+00  0.1736111E-02
    1      -15.580683
    2      -15.580683
    3      -11.088866
    4      -11.088865
    5       -7.924756
    6       -7.924756
    7       -6.926872
    8       -6.926871
    9       -5.079249
   10       -5.079249
   11       -3.555195
   12       -3.555194
   13        2.289919
   14        2.289919
   15        3.993235
   16        3.993236
   17        5.244266
   18        5.244267
   19        7.072591
 
  0.4166667E+00  0.5000000E+00  0.0000000E+00  0.1736111E-02
    1      -15.570612
    2      -15.570612
    3      -11.128789
    4      -11.128788
    5       -7.906575
    6       -7.906575
    7       -6.894325
    8       -6.894325
    9       -5.087746
   10       -5.087746
   11       -3.599793
   12       -3.599792
   13        2.431376
   14        2.431376
   15        4.186495
   16        4.186496
   17        4.850007
   18        4.850007
   19        7.143394
 
  0.5000000E+00  0.5000000E+00  0.0000000E+00  0.8680556E-03
    1      -15.566908
    2      -15.566907
    3      -11.143283
    4      -11.143283
    5       -7.899919
    6       -7.899919
    7       -6.882535
    8       -6.882535
    9       -5.090633
   10       -5.090633
   11       -3.616430
   12       -3.616430
   13        2.486991
   14        2.486991
   15        4.366540
   16        4.366540
   17        4.595987
   18        4.595987
   19        7.169859
 
  0.0000000E+00  0.0000000E+00  0.1250000E+00  0.1736111E-02
    1      -15.730220
    2      -15.472846
    3      -10.918422
    4      -10.911527
    5       -8.076139
    6       -7.999260
    7       -7.207832
    8       -6.901104
    9       -5.266330
   10       -4.874143
   11       -3.580890
   12       -3.295251
   13        1.221628
   14        2.493353
   15        3.288099
   16        4.639850
   17        5.623951
   18        6.546740
   19        6.816361
 
  0.8333333E-01  0.0000000E+00  0.1250000E+00  0.1736111E-02
    1      -15.721998
    2      -15.474478
    3      -10.933313
    4      -10.926234
    5       -8.097865
    6       -8.004620
    7       -7.143536
    8       -6.898223
    9       -5.219611
   10       -4.898912
   11       -3.572983
   12       -3.358235
   13        1.246650
   14        2.514090
   15        3.223898
   16        4.591037
   17        5.674552
   18        6.303011
   19        7.063387
 
  0.1666667E+00  0.0000000E+00  0.1250000E+00  0.1736111E-02
    1      -15.700396
    2      -15.478902
    3      -10.974497
    4      -10.957070
    5       -8.106624
    6       -8.004057
    7       -7.059003
    8       -6.881344
    9       -5.185541
   10       -4.954971
   11       -3.559973
   12       -3.437901
   13        1.362211
   14        2.571789
   15        3.194580
   16        4.592261
   17        5.758768
   18        5.973973
   19        6.907472
 
  0.2500000E+00  0.0000000E+00  0.1250000E+00  0.1736111E-02
    1      -15.668149
    2      -15.487826
    3      -11.026183
    4      -10.999647
    5       -8.097858
    6       -7.999198
    7       -6.969979
    8       -6.864035
    9       -5.163183
   10       -5.036483
   11       -3.540768
   12       -3.517719
   13        1.551695
   14        2.643926
   15        3.219261
   16        4.644724
   17        5.624977
   18        5.856735
   19        6.584145
 
  0.3333333E+00  0.0000000E+00  0.1250000E+00  0.1736111E-02
    1      -15.629377
    2      -15.503300
    3      -11.076739
    4      -11.040012
    5       -8.073140
    6       -7.993201
    7       -6.889363
    8       -6.861492
    9       -5.146522
   10       -5.132900
   11       -3.582861
   12       -3.514990
   13        1.790536
   14        2.681775
   15        3.327096
   16        4.741670
   17        5.257940
   18        5.913769
   19        6.336544
 
  0.4166667E+00  0.0000000E+00  0.1250000E+00  0.1736111E-02
    1      -15.588942
    2      -15.526782
    3      -11.114451
    4      -11.066021
    5       -8.039020
    6       -7.989451
    7       -6.884349
    8       -6.826218
    9       -5.231184
   10       -5.127582
   11       -3.624297
   12       -3.481723
   13        2.046523
   14        2.634875
   15        3.537681
   16        4.791654
   17        4.981485
   18        5.824795
   19        6.178124
 
  0.5000000E+00  0.0000000E+00  0.1250000E+00  0.1736111E-02
    1      -15.558271
    2      -15.551550
    3      -11.130222
    4      -11.070485
    5       -8.004600
    6       -7.990143
    7       -6.935032
    8       -6.785990
    9       -5.317859
   10       -5.099876
   11       -3.640587
   12       -3.439871
   13        2.281236
   14        2.487552
   15        3.840323
   16        4.484883
   17        5.135564
   18        5.640522
   19        6.064241
 
 -0.4166667E+00  0.0000000E+00  0.1250000E+00  0.1736111E-02
    1      -15.595846
    2      -15.520785
    3      -11.119801
    4      -11.052572
    5       -7.995399
    6       -7.978473
    7       -7.007834
    8       -6.771073
    9       -5.380614
   10       -5.060709
   11       -3.637025
   12       -3.390212
   13        2.255671
   14        2.457895
   15        4.160283
   16        4.212675
   17        5.414562
   18        5.463205
   19        5.965216
 
 -0.3333333E+00  0.0000000E+00  0.1250000E+00  0.1736111E-02
    1      -15.635841
    2      -15.498399
    3      -11.085116
    4      -11.017511
    5       -8.003838
    6       -7.965688
    7       -7.090868
    8       -6.781001
    9       -5.410552
   10       -5.011801
   11       -3.622724
   12       -3.337393
   13        1.976788
   14        2.555537
   15        3.878367
   16        4.617468
   17        5.329165
   18        5.744253
   19        5.911235
 
 -0.2500000E+00  0.0000000E+00  0.1250000E+00  0.1736111E-02
    1      -15.673576
    2      -15.484189
    3      -11.034365
    4      -10.975016
    5       -8.014621
    6       -7.966230
    7       -7.168182
    8       -6.810798
    9       -5.405400
   10       -4.959156
   11       -3.606620
   12       -3.290594
   13        1.697110
   14        2.577720
   15        3.655766
   16        4.885622
   17        5.384869
   18        5.733803
   19        6.278309
 
 -0.1666667E+00  0.0000000E+00  0.1250000E+00  0.1736111E-02
    1      -15.704297
    2      -15.476545
    3      -10.980499
    4      -10.936707
    5       -8.029380
    6       -7.975864
    7       -7.221801
    8       -6.849721
    9       -5.371292
   10       -4.911881
   11       -3.594276
   12       -3.261736
   13        1.458931
   14        2.550195
   15        3.493996
   16        4.840125
   17        5.659019
   18        5.785770
   19        6.735197
 
 -0.8333333E-01  0.0000000E+00  0.1250000E+00  0.1736111E-02
    1      -15.724038
    2      -15.473327
    3      -10.937996
    4      -10.913211
    5       -8.050561
    6       -7.988623
    7       -7.236612
    8       -6.883696
    9       -5.320436
   10       -4.880410
   11       -3.586622
   12       -3.261650
   13        1.294137
   14        2.510994
   15        3.377110
   16        4.730019
   17        5.618095
   18        6.252318
   19        6.873641
 
  0.0000000E+00  0.8333333E-01  0.1250000E+00  0.3472222E-02
    1      -15.726036
    2      -15.477452
    3      -10.918101
    4      -10.910946
    5       -8.077240
    6       -8.002058
    7       -7.202155
    8       -6.905450
    9       -5.259674
   10       -4.880662
   11       -3.574332
   12       -3.297668
   13        1.239967
   14        2.471228
   15        3.296919
   16        4.611111
   17        5.620070
   18        6.593683