   12   12  200    1
  0.1063669E+02  0.4837314E-09  0.6416643E-09  0.4112214E-09  0.5000000E-15
  1.000000000000000E-004
  CAR 
 ethylene                                
     24    350     19
 
  0.0000000E+00  0.0000000E+00  0.0000000E+00  0.8680556E-03
    1      -15.757341
    2      -15.481028
    3      -10.926686
    4      -10.920886
    5       -7.984381
    6       -7.916839
    7       -7.271932
    8       -6.910704
    9       -5.238466
   10       -4.813864
   11       -3.565557
   12       -3.288776
   13        1.208874
   14        2.546992
   15        3.190961
   16        4.529894
   17        5.699055
   18        6.795056
   19        6.967908
 
  0.8333333E-01  0.0000000E+00  0.0000000E+00  0.1736111E-02
    1      -15.749828
    2      -15.482372
    3      -10.940766
    4      -10.932662
    5       -7.988090
    6       -7.915330
    7       -7.248138
    8       -6.900208
    9       -5.241662
   10       -4.829369
   11       -3.562804
   12       -3.301665
   13        1.259711
   14        2.566452
   15        3.196154
   16        4.543274
   17        5.728434
   18        6.478473
   19        6.867229
 
  0.1666667E+00  0.0000000E+00  0.0000000E+00  0.1736111E-02
    1      -15.728216
    2      -15.487033
    3      -10.978397
    4      -10.965168
    5       -7.994140
    6       -7.911886
    7       -7.184902
    8       -6.874054
    9       -5.248184
   10       -4.873058
   11       -3.555759
   12       -3.336580
   13        1.405216
   14        2.612148
   15        3.224876
   16        4.582114
   17        5.809496
   18        5.935598
   19        6.589131
 
  0.2500000E+00  0.0000000E+00  0.0000000E+00  0.1736111E-02
    1      -15.695217
    2      -15.496709
    3      -11.027746
    4      -11.010545
    5       -7.993639
    6       -7.909552
    7       -7.100065
    8       -6.845449
    9       -5.250114
   10       -4.937428
   11       -3.546806
   12       -3.384129
   13        1.625433
   14        2.648371
   15        3.309521
   16        4.638674
   17        5.407619
   18        5.915543
   19        6.220990
 
  0.3333333E+00  0.0000000E+00  0.0000000E+00  0.1736111E-02
    1      -15.654957
    2      -15.513443
    3      -11.074171
    4      -11.057668
    5       -7.982415
    6       -7.912169
    7       -7.011227
    8       -6.829523
    9       -5.238343
   10       -5.012563
   11       -3.537020
   12       -3.433221
   13        1.889516
   14        2.635749
   15        3.474505
   16        4.646791
   17        5.007214
   18        5.769904
   19        6.111433
 
  0.4166667E+00  0.0000000E+00  0.0000000E+00  0.1736111E-02
    1      -15.612362
    2      -15.538668
    3      -11.104867
    4      -11.094733
    5       -7.962719
    6       -7.922557
    7       -6.931967
    8       -6.837061
    9       -5.206941
   10       -5.088267
   11       -3.524517
   12       -3.474971
   13        2.158302
   14        2.552358
   15        3.715819
   16        4.369460
   17        4.991983
   18        5.434031
   19        6.245364
 
  0.5000000E+00  0.0000000E+00  0.0000000E+00  0.8680556E-03
    1      -15.572325
    2      -15.572325
    3      -11.112132
    4      -11.112132
    5       -7.940653
    6       -7.940653
    7       -6.871904
    8       -6.871903
    9       -5.155478
   10       -5.155478
   11       -3.505162
   12       -3.505162
   13        2.389894
   14        2.389895
   15        4.019655
   16        4.019655
   17        5.168028
   18        5.168029
   19        6.381016
 
  0.0000000E+00  0.8333333E-01  0.0000000E+00  0.1736111E-02
    1      -15.752888
    2      -15.486017
    3      -10.925935
    4      -10.920284
    5       -7.986243
    6       -7.921772
    7       -7.263437
    8       -6.915211
    9       -5.231586
   10       -4.821559
   11       -3.558364
   12       -3.290430
   13        1.228140
   14        2.524485
   15        3.196049
   16        4.498615
   17        5.705120
   18        6.804214
   19        6.965469
 
  0.8333333E-01  0.8333333E-01  0.0000000E+00  0.3472222E-02
    1      -15.745497
    2      -15.487172
    3      -10.940777
    4      -10.931640
    5       -7.989978
    6       -7.918975
    7       -7.240462
    8       -6.904722
    9       -5.234700
   10       -4.836332
   11       -3.556942
   12       -3.303356
   13        1.278413
   14        2.545225
   15        3.200895
   16        4.513692
   17        5.733245
   18        6.484748
   19        6.873557
 
  0.1666667E+00  0.8333333E-01  0.0000000E+00  0.3472222E-02
    1      -15.724257
    2      -15.491303
    3      -10.979269
    4      -10.964221
    5       -7.995372
    6       -7.913225
    7       -7.179066
    8       -6.878528
    9       -5.241068
   10       -4.878075
   11       -3.553414
   12       -3.338490
   13        1.422346
   14        2.595340
   15        3.228049
   16        4.556844
   17        5.812321
   18        5.945816
   19        6.575913
 
  0.2500000E+00  0.8333333E-01  0.0000000E+00  0.3472222E-02
    1      -15.691879
    2      -15.500126
    3      -11.029149
    4      -11.010288
    5       -7.993455
    6       -7.909023
    7       -7.096165
    8       -6.849585
    9       -5.243003
   10       -4.939857
   11       -3.548924
   12       -3.386633
   13        1.640249
   14        2.639406
   15        3.309626
   16        4.620769
   17        5.413028
   18        5.934118
   19        6.181324
 
  0.3333333E+00  0.8333333E-01  0.0000000E+00  0.3472222E-02
    1      -15.652469
    2      -15.515762
    3      -11.075897
    4      -11.058259
    5       -7.980801
    6       -7.910368
    7       -7.009014
    8       -6.832861
    9       -5.231629
   10       -5.012350
   11       -3.542959
   12       -3.436948
   13        1.901625
   14        2.634823
   15        3.473045
   16        4.654074
   17        4.988450
   18        5.770310
   19        6.092849
 
  0.4166667E+00  0.8333333E-01  0.0000000E+00  0.3472222E-02
    1      -15.610943
    2      -15.539744
    3      -11.106719
    4      -11.096037
    5       -7.960160
    6       -7.919975
    7       -6.931280
    8       -6.839220
    9       -5.201122
   10       -5.085723
   11       -3.532311
   12       -3.480556
   13        2.167681
   14        2.556457
   15        3.717528
   16        4.387904
   17        4.960826
   18        5.419154
   19        6.254930
 
  0.5000000E+00  0.8333333E-01  0.0000000E+00  0.1736111E-02
    1      -15.572115
    2      -15.572115
    3      -11.113855
    4      -11.113855
    5       -7.937786
    6       -7.937786
    7       -6.872647
    8       -6.872646
    9       -5.151046
   10       -5.151045
   11       -3.512512
   12       -3.512512
   13        2.396817
   14        2.396818
   15        4.028794
   16        4.028795
   17        5.144972
   18        5.144973
   19        6.416068
 
  0.0000000E+00  0.1666667E+00  0.0000000E+00  0.1736111E-02
    1      -15.739782
    2      -15.500574
    3      -10.923848
    4      -10.918663
    5       -7.991121
    6       -7.935099
    7       -7.239388
    8       -6.928750
    9       -5.211318
   10       -4.843966
   11       -3.537685
   12       -3.296036
   13        1.285292
   14        2.454762
   15        3.218988
   16        4.404415
   17        5.735659
   18        6.819981
   19        6.970631
 
  0.8333333E-01  0.1666667E+00  0.0000000E+00  0.3472222E-02
    1      -15.732760
    2      -15.501202
    3      -10.940221
    4      -10.929448
    5       -7.994625
    6       -7.929277
    7       -7.218495
    8       -6.918295
    9       -5.214250
   10       -4.856796
   11       -3.539749
   12       -3.309169
   13        1.333937
   14        2.478434
   15        3.223783
   16        4.423439
   17        5.759545
   18        6.499413
   19        6.898198
 
  0.1666667E+00  0.1666667E+00  0.0000000E+00  0.3472222E-02
    1      -15.712629
    2      -15.503781
    3      -10.980602
    4      -10.962695
    5       -7.997736
    6       -7.917974
    7       -7.161957
    8       -6.891861
    9       -5.220294
   10       -4.893267
   11       -3.545477
   12       -3.345136
   13        1.473328
   14        2.539068
   15        3.249170
   16        4.476885
   17        5.827981
   18        5.971553
   19        6.571118
 
  0.2500000E+00  0.1666667E+00  0.0000000E+00  0.3472222E-02
    1      -15.682078
    2      -15.510139
    3      -11.032024
    4      -11.010560
    5       -7.991865
    6       -7.908834
    7       -7.084437
    8       -6.861830
    9       -5.222397
   10       -4.947852
   11       -3.552839
   12       -3.395278
   13        1.684558
   14        2.603631
   15        3.324596
   16        4.557524
   17        5.436176
   18        5.924654
   19        6.179934
 
  0.3333333E+00  0.1666667E+00  0.0000000E+00  0.3472222E-02
    1      -15.645195
    2      -15.522591
    3      -11.079922
    4      -11.060572
    5       -7.975521
    6       -7.906409
    7       -7.002208
    8       -6.842714
    9       -5.212306
   10       -5.012705
   11       -3.557262
   12       -3.449149
   13        1.937992
   14        2.623642
   15        3.482462
   16        4.646857
   17        4.961314
   18        5.710339
   19        6.144499
 
  0.4166667E+00  0.1666667E+00  0.0000000E+00  0.3472222E-02
    1      -15.606806
    2      -15.542940
    3      -11.111414
    4      -11.099938
    5       -7.952697
    6       -7.913419
    7       -6.929000
    8       -6.845500
    9       -5.184548
   10       -5.079122
   11       -3.552345
   12       -3.497300
   13        2.195536
   14        2.563664
   15        3.731554
   16        4.438732
   17        4.874682
   18        5.360799
   19        6.322963
 
  0.5000000E+00  0.1666667E+00  0.0000000E+00  0.1736111E-02
    1      -15.571553
    2      -15.571553
    3      -11.118559
    4      -11.118559
    5       -7.929965
    6       -7.929965
    7       -6.874749
    8       -6.874749
    9       -5.138740
   10       -5.138740
   11       -3.532808
   12       -3.532808
   13        2.415635
   14        2.415636
   15        4.058052
   16        4.058053
   17        5.076267
   18        5.076267
   19        6.518814
 
  0.0000000E+00  0.2500000E+00  0.0000000E+00  0.1736111E-02
    1      -15.718786
    2      -15.523544
    3      -10.920898
    4      -10.916535
    5       -7.997135
    6       -7.953189
    7       -7.203312
    8       -6.951263
    9       -5.178838
   10       -4.879183
   11       -3.506088
   12       -3.307209
   13        1.378316
   14        2.337821
   15        3.273916
   16        4.253612
   17        5.811881
   18        6.806527
   19        6.999701
 
  0.8333333E-01  0.2500000E+00  0.0000000E+00  0.3472222E-02
    1      -15.712367
    2      -15.523353
    3      -10.938483
    4      -10.927430
    5       -7.999525
    6       -7.944401
    7       -7.184994
    8       -6.940729
    9       -5.181606
   10       -4.889455
   11       -3.512551
   12       -3.320807
   13        1.424459
   14        2.364637
   15        3.280493
   16        4.276247
   17        5.828028
   18        6.510240
   19        6.942375
 
  0.1666667E+00  0.2500000E+00  0.0000000E+00  0.3472222E-02
    1      -15.694031
    2      -15.523521
    3      -10.980738
    4      -10.962296
    5       -7.998353
    6       -7.927194
    7       -7.134813
    8       -6.913650
    9       -5.187494
   10       -4.918781
   11       -3.530113
   12       -3.358425
   13        1.556851
   14        2.436856
   15        3.308846
   16        4.339701
   17        5.866912
   18        6.006176
   19        6.609324
 
  0.2500000E+00  0.2500000E+00  0.0000000E+00  0.3472222E-02
    1      -15.666457
    2      -15.526048
    3      -11.034232
    4      -11.012661
    5       -7.986850
    6       -7.911715
    7       -7.065008
    8       -6.881606
    9       -5.190307
   10       -4.963059
   11       -3.553079
   12       -3.411911
   13        1.757698
   14        2.526620
   15        3.382138
   16        4.436219
   17        5.481998
   18        5.848301
   19        6.309772
 
  0.3333333E+00  0.2500000E+00  0.0000000E+00  0.3472222E-02
    1      -15.633662
    2      -15.533514
    3      -11.084077
    4      -11.065066
    5       -7.966025
    6       -7.903489
    7       -6.990426
    8       -6.858453
    9       -5.182727
   10       -5.016257
   11       -3.572118
   12       -3.470618
   13        1.998300
   14        2.584722
   15        3.531456
   16        4.563417
   17        4.983274
   18        5.588631
   19        6.312256
 
  0.4166667E+00  0.2500000E+00  0.0000000E+00  0.3472222E-02
    1      -15.600318
    2      -15.548142
    3      -11.117085
    4      -11.105967
    5       -7.941229
    6       -7.905790
    7       -6.924625
    8       -6.855359
    9       -5.159846
   10       -5.071423
   11       -3.577029
   12       -3.523536
   13        2.240532
   14        2.561876
   15        3.776934
   16        4.512922
   17        4.744312
   18        5.254968
   19        6.475364
 
  0.5000000E+00  0.2500000E+00  0.0000000E+00  0.1736111E-02
    1      -15.570782
    2      -15.570782
    3      -11.124954
    4      -11.124953
    5       -7.919260
    6       -7.919260
    7       -6.877665
    8       -6.877664
    9       -5.121401
   10       -5.121401
   11       -3.560971
   12       -3.560970
   13        2.441143
   14        2.441144
   15        4.111655
   16        4.111655
   17        4.965980
   18        4.965980
   19        6.680343
 
  0.0000000E+00  0.3333333E+00  0.0000000E+00  0.1736111E-02
    1      -15.691163
    2      -15.553154
    3      -10.917765
    4      -10.914589
    5       -8.001833
    6       -7.971887
    7       -7.159537
    8       -6.982313
    9       -5.136138
   10       -4.924444
   11       -3.467408
   12       -3.325669
   13        1.503656
   14        2.183425
   15        3.368706
   16        4.065348
   17        5.942357
   18        6.716790
   19        7.057862
 
  0.8333333E-01  0.3333333E+00  0.0000000E+00  0.3472222E-02
    1      -15.685547
    2      -15.551929
    3      -10.935647
    4      -10.926505
    5       -8.001839
    6       -7.961690
    7       -7.143642
    8       -6.971462
    9       -5.138925
   10       -4.932159
   11       -3.477888
   12       -3.339917
   13        1.546690
   14        2.213205
   15        3.379020
   16        4.089348
   17        5.946080
   18        6.493262
   19        6.993314
 
  0.1666667E+00  0.3333333E+00  0.0000000E+00  0.3472222E-02
    1      -15.669631
    2      -15.549076
    3      -10.979038
    4      -10.963767
    5       -7.994812
    6       -7.940727
    7       -7.099889
    8       -6.943107
    9       -5.145279
   10       -4.954127
   11       -3.506507
   12       -3.379675
   13        1.670290
   14        2.296052
   15        3.415847
   16        4.157392
   17        5.927958
   18        6.040674
   19        6.691571
 
  0.2500000E+00  0.3333333E+00  0.0000000E+00  0.3472222E-02
    1      -15.646048
    2      -15.546748
    3      -11.034433
    4      -11.016793
    5       -7.977287
    6       -7.919498
    7       -7.038687
    8       -6.907890
    9       -5.149910
   10       -4.987032
   11       -3.544787
   12       -3.436720
   13        1.857800
   14        2.409588
   15        3.494495
   16        4.262474
   17        5.541711
   18        5.775845
   19        6.508485
 
  0.3333333E+00  0.3333333E+00  0.0000000E+00  0.3472222E-02
    1      -15.618709
    2      -15.547862
    3      -11.086570
    4      -11.071211
    5       -7.952761
    6       -7.904571
    7       -6.973585
    8       -6.879028
    9       -5.146585
   10       -5.026278
   11       -3.579781
   12       -3.499396
   13        2.080838
   14        2.509941
   15        3.637486
   16        4.402421
   17        5.052933
   18        5.462379
   19        6.546216
 
  0.4166667E+00  0.3333333E+00  0.0000000E+00  0.3472222E-02
    1      -15.592044
    2      -15.555127
    3      -11.121807
    4      -11.112894
    5       -7.927626
    6       -7.900338
    7       -6.917627
    8       -6.867868
    9       -5.131139
   10       -5.066809
   11       -3.597828
   12       -3.554459
   13        2.299477
   14        2.540251
   15        3.868431
   16        4.558768
   17        4.623870
   18        5.122526
   19        6.692399
 
  0.5000000E+00  0.3333333E+00  0.0000000E+00  0.1736111E-02
    1      -15.570013
    2      -15.570012
    3      -11.131318
    4      -11.131317
    5       -7.908546
    6       -7.908545
    7       -6.880650
    8       -6.880649
    9       -5.103414
   10       -5.103414
   11       -3.589700
   12       -3.589700
   13        2.466352
   14        2.466352
   15        4.192412
   16        4.192412
   17        4.826011
   18        4.826011
   19        6.880417
 
  0.0000000E+00  0.4166667E+00  0.0000000E+00  0.1736111E-02
    1      -15.658587
    2      -15.587167
    3      -10.915149
    4      -10.913471
    5       -8.002758
    6       -7.987659
    7       -7.112160
    8       -7.020774
    9       -5.085909
   10       -4.976392
   11       -3.426072
   12       -3.352292
   13        1.655939
   14        2.007862
   15        3.503153
   16        3.864255
   17        6.120773
   18        6.543737
   19        7.143460
 
  0.8333333E-01  0.4166667E+00  0.0000000E+00  0.3472222E-02
    1      -15.653959
    2      -15.584809
    3      -10.932295
    4      -10.927117
    5       -7.999418
    6       -7.978226
    7       -7.098270
    8       -7.009345
    9       -5.089099
   10       -4.982004
   11       -3.439368
   12       -3.367077
   13        1.695529
   14        2.040671
   15        3.518145
   16        3.887013
   17        6.103197
   18        6.415974
   19        7.039857
 
  0.1666667E+00  0.4166667E+00  0.0000000E+00  0.3472222E-02
    1      -15.640974
    2      -15.578577
    3      -10.975653
    4      -10.966997
    5       -7.986097
    6       -7.956802
    7       -7.060099
    8       -6.978811
    9       -5.096988
   10       -4.997623
   11       -3.475935
   12       -3.408312
   13        1.809262
   14        2.133747
   15        3.566136
   16        3.953011
   17        5.994608
   18        6.058325
   19        6.811155
 
  0.2500000E+00  0.4166667E+00  0.0000000E+00  0.3472222E-02
    1      -15.622210
    2      -15.570806
    3      -11.032173
    4      -11.022237
    5       -7.963623
    6       -7.932079
    7       -7.007210
    8       -6.939103
    9       -5.105185
   10       -5.020039
   11       -3.526129
   12       -3.467222
   13        1.981086
   14        2.268592
   15        3.654770
   16        4.058216
   17        5.603862
   18        5.717529
   19        6.744037
 
  0.3333333E+00  0.4166667E+00  0.0000000E+00  0.3472222E-02
    1      -15.601410
    2      -15.564721
    3      -11.086348
    4      -11.077751
    5       -7.937479
    6       -7.911112
    7       -6.952310
    8       -6.902887
    9       -5.108507
   10       -5.045205
   11       -3.575309
   12       -3.530600
   13        2.181649
   14        2.407927
   15        3.796189
   16        4.201323
   17        5.142716
   18        5.347265
   19        6.812702
 
  0.4166667E+00  0.4166667E+00  0.0000000E+00  0.3472222E-02
    1      -15.582673
    2      -15.563550
    3      -11.124083
    4      -11.119113
    5       -7.914492
    6       -7.899556
    7       -6.907794
    8       -6.881731
    9       -5.103493
   10       -5.069459
   11       -3.607569
   12       -3.583112
   13        2.366960
   14        2.496274
   15        4.007656
   16        4.377804
   17        4.723418
   18        4.983068
   19        6.936201
 
  0.5000000E+00  0.4166667E+00  0.0000000E+00  0.1736111E-02
    1      -15.569449
    2      -15.569448
    3      -11.135959
    4      -11.135958
    5       -7.900695
    6       -7.900694
    7       -6.882880
    8       -6.882879
    9       -5.089805
   10       -5.089805
   11       -3.611131
   12       -3.611130
   13        2.484569
   14        2.484569
   15        4.293981
   16        4.293981
   17        4.679878
   18        4.679879
   19        7.074325
 
  0.0000000E+00  0.5000000E+00  0.0000000E+00  0.8680556E-03
    1      -15.623140
    2      -15.623139
    3      -10.913625
    4      -10.913624
    5       -7.998211
    6       -7.998211
    7       -7.064875
    8       -7.064874
    9       -5.031442
   10       -5.031442
   11       -3.386493
   12       -3.386493
   13        1.827499
   14        1.827500
   15        3.671701
   16        3.671701
   17        6.330535
   18        6.330536
   19        7.251433
 
  0.8333333E-01  0.5000000E+00  0.0000000E+00  0.1736111E-02
    1      -15.619617
    2      -15.619616
    3      -10.929203
    4      -10.929203
    5       -7.991379
    6       -7.991378
    7       -7.052462
    8       -7.052461
    9       -5.035557
   10       -5.035557
   11       -3.401141
   12       -3.401141
   13        1.863601
   14        1.863601
   15        3.691175
   16        3.691175
   17        6.273485
   18        6.273486
   19        7.085953
 
  0.1666667E+00  0.5000000E+00  0.0000000E+00  0.1736111E-02
    1      -15.609929
    2      -15.609928
    3      -10.971298
    4      -10.971298
    5       -7.972808
    6       -7.972808
    7       -7.018702
    8       -7.018701
    9       -5.046457
   10       -5.046456
   11       -3.441758
   12       -3.441758
   13        1.967004
   14        1.967005
   15        3.749776
   16        3.749776
   17        6.043409
   18        6.043410
   19        6.957314
 
  0.2500000E+00  0.5000000E+00  0.0000000E+00  0.1736111E-02
    1      -15.596547
    2      -15.596546
    3      -11.027787
    4      -11.027787
    5       -7.947680
    6       -7.947680
    7       -6.973077
    8       -6.973076
    9       -5.060502
   10       -5.060502
   11       -3.498818
   12       -3.498818
   13        2.121214
   14        2.121215
   15        3.848517
   16        3.848517
   17        5.662496
   18        5.662496
   19        6.984685
 
  0.3333333E+00  0.5000000E+00  0.0000000E+00  0.1736111E-02
    1      -15.582983
    2      -15.582983
    3      -11.083202
    4      -11.083202
    5       -7.922711
    6       -7.922711
    7       -6.928050
    8       -6.928050
    9       -5.073348
   10       -5.073348
   11       -3.557847
   12       -3.557846
   13        2.293998
   14        2.293999
   15        3.991053
   16        3.991053
   17        5.241486
   18        5.241487
   19        7.068142
 
  0.4166667E+00  0.5000000E+00  0.0000000E+00  0.1736111E-02
    1      -15.572937
    2      -15.572937
    3      -11.123149
    4      -11.123148
    5       -7.904482
    6       -7.904481
    7       -6.895492
    8       -6.895492
    9       -5.081834
   10       -5.081834
   11       -3.602423
   12       -3.602423
   13        2.435527
   14        2.435528
   15        4.183676
   16        4.183676
   17        4.847716
   18        4.847716
   19        7.139250
 
  0.5000000E+00  0.5000000E+00  0.0000000E+00  0.8680556E-03
    1      -15.569242
    2      -15.569242
    3      -11.137651
    4      -11.137650
    5       -7.897808
    6       -7.897808
    7       -6.883697
    8       -6.883697
    9       -5.084716
   10       -5.084716
   11       -3.619054
   12       -3.619054
   13        2.491183
   14        2.491183
   15        4.362344
   16        4.362345
   17        4.595012
   18        4.595012
   19        7.165818
 
  0.0000000E+00  0.0000000E+00  0.1250000E+00  0.1736111E-02
    1      -15.732262
    2      -15.475267
    3      -10.912558
    4      -10.905728
    5       -8.074245
    6       -7.997305
    7       -7.209729
    8       -6.901833
    9       -5.260899
   10       -4.867771
   11       -3.583682
   12       -3.298270
   13        1.225302
   14        2.498049
   15        3.287318
   16        4.637212
   17        5.620636
   18        6.544550
   19        6.813549
 
  0.8333333E-01  0.0000000E+00  0.1250000E+00  0.1736111E-02
    1      -15.724056
    2      -15.476896
    3      -10.927533
    4      -10.920385
    5       -8.096138
    6       -8.002658
    7       -7.145197
    8       -6.898961
    9       -5.214026
   10       -4.892568
   11       -3.575818
   12       -3.361273
   13        1.250156
   14        2.518814
   15        3.222969
   16        4.588144
   17        5.670928
   18        6.300611
   19        7.057226
 
  0.1666667E+00  0.0000000E+00  0.1250000E+00  0.1736111E-02
    1      -15.702493
    2      -15.481318
    3      -10.968749
    4      -10.951254
    5       -8.105000
    6       -8.002085
    7       -7.060420
    8       -6.882097
    9       -5.179867
   10       -4.948778
   11       -3.562759
   12       -3.440837
   13        1.365503
   14        2.576507
   15        3.193568
   16        4.589164
   17        5.754652
   18        5.971462
   19        6.902784
 
  0.2500000E+00  0.0000000E+00  0.1250000E+00  0.1736111E-02
    1      -15.670304
    2      -15.490237
    3      -11.020468
    4      -10.993867
    5       -8.096263
    6       -7.997213
    7       -6.971176
    8       -6.864827
    9       -5.157494
   10       -5.030541
   11       -3.543428
   12       -3.520465
   13        1.554793
   14        2.648599
   15        3.218204
   16        4.641469
   17        5.622895
   18        5.852043
   19        6.585297
 
  0.3333333E+00  0.0000000E+00  0.1250000E+00  0.1736111E-02
    1      -15.631600
    2      -15.505696
    3      -11.071044
    4      -11.034267
    5       -8.071517
    6       -7.991199
    7       -6.890372
    8       -6.862366
    9       -5.140863
   10       -5.127267
   11       -3.585388
   12       -3.517483
   13        1.793532
   14        2.686282
   15        3.326059
   16        4.738329
   17        5.256393
   18        5.908832
   19        6.333416
 
  0.4166667E+00  0.0000000E+00  0.1250000E+00  0.1736111E-02
    1      -15.591235
    2      -15.529147
    3      -11.108760
    4      -11.060300
    5       -8.037336
    6       -7.987427
    7       -6.885361
    8       -6.827075
    9       -5.225860
   10       -5.121953
   11       -3.626637
   12       -3.484054
   13        2.049568
   14        2.639135
   15        3.536642
   16        4.790099
   17        4.978457
   18        5.820883
   19        6.174619
 
  0.5000000E+00  0.0000000E+00  0.1250000E+00  0.1736111E-02
    1      -15.560589
    2      -15.553905
    3      -11.124517
    4      -11.064778
    5       -8.002844
    6       -7.988091
    7       -6.936234
    8       -6.786734
    9       -5.312793
   10       -5.094238
   11       -3.642813
   12       -3.442092
   13        2.284490
   14        2.491616
   15        3.839134
   16        4.484616
   17        5.131276
   18        5.637621
   19        6.060570
 
 -0.4166667E+00  0.0000000E+00  0.1250000E+00  0.1736111E-02
    1      -15.598104
    2      -15.523186
    3      -11.114069
    4      -11.046864
    5       -7.993312
    6       -7.976649
    7       -7.009268
    8       -6.771750
    9       -5.375711
   10       -5.055006
   11       -3.639226
   12       -3.392407
   13        2.259593
   14        2.461460
   15        4.160332
   16        4.211275
   17        5.409636
   18        5.460769
   19        5.961647
 
 -0.3333333E+00  0.0000000E+00  0.1250000E+00  0.1736111E-02
    1      -15.638033
    2      -15.500826
    3      -11.079351
    4      -11.011787
    5       -8.001708
    6       -7.963811
    7       -7.092553
    8       -6.781656
    9       -5.405697
   10       -5.005981
   11       -3.624981
   12       -3.339666
   13        1.980622
   14        2.559439
   15        3.878492
   16        4.615972
   17        5.326696
   18        5.738614
   19        5.907949
 
 -0.2500000E+00  0.0000000E+00  0.1250000E+00  0.1736111E-02
    1      -15.675706
    2      -15.486626
    3      -11.028562
    4      -10.969266
    5       -8.012452
    6       -7.964316
    7       -7.170099
    8       -6.811462
    9       -5.400485
   10       -4.953180
   11       -3.608993
   12       -3.293037
   13        1.700911
   14        2.581939
   15        3.655745
   16        4.884168
   17        5.381963
   18        5.729992
   19        6.272716
 
 -0.1666667E+00  0.0000000E+00  0.1250000E+00  0.1736111E-02
    1      -15.706377
    2      -15.478979
    3      -10.974663
    4      -10.930928
    5       -8.027218
    6       -7.973929
    7       -7.223864
    8       -6.850410
    9       -5.366237
   10       -4.905736
   11       -3.596799
   12       -3.264403
   13        1.462726
   14        2.554662
   15        3.493709
   16        4.838193
   17        5.655623
   18        5.782778
   19        6.728393
 
 -0.8333333E-01  0.0000000E+00  0.1250000E+00  0.1736111E-02
    1      -15.726088
    2      -15.475754
    3      -10.932136
    4      -10.907412
    5       -8.048496
    6       -7.986676
    7       -7.238669
    8       -6.884408
    9       -5.315196
   10       -4.874117
   11       -3.589298
   12       -3.264531
   13        1.297904
   14        2.515614
   15        3.376550
   16        4.727695
   17        5.614855
   18        6.249104
   19        6.873364
 
  0.0000000E+00  0.8333333E-01  0.1250000E+00  0.3472222E-02
    1      -15.728084
    2      -15.479865
    3      -10.912241
    4      -10.905145
    5       -8.075363
    6       -8.000112
    7       -7.204021
    8       -6.906189
    9       -5.254233
   10       -4.874308
   11       -3.577123
   12       -3.300672
   13        1.243650
   14        2.475925
   15        3.296077
   16        4.608512
   17        5.616806
   18        6.591528