 running on    1 total cores
 distrk:  each k-point on    1 cores,    1 groups
 distr:  one band on    1 cores,    1 groups
 using from now: INCAR     
 vasp.5.3.5 31Mar14 (build Nov 02 2014 15:17:37) complex                        
  
 POSCAR found type information on POSCAR  C  H 
 POSCAR found :  2 types and      12 ions
 scaLAPACK will be used
 LDA part: xc-table for Pade appr. of Perdew
 POSCAR, INCAR and KPOINTS ok, starting setup
 FFT: planning ...
 WAVECAR not read
 WARNING: random wavefunctions but no delay for mixing, default for NELMDL
 entering main loop
       N       E                     dE             d eps       ncg     rms          rms(c)
DAV:   1     0.892158903342E+02    0.89216E+02   -0.12543E+04 13300   0.144E+03
DAV:   2    -0.582460864625E+02   -0.14746E+03   -0.14442E+03 16845   0.224E+02
DAV:   3    -0.705593439562E+02   -0.12313E+02   -0.12267E+02 16973   0.657E+01
