 vasp.5.3.5 31Mar14 (build Nov 02 2014 15:17:37) complex                        
  
 executed on        ion-Intel-MKL date 2017.03.11  20:06:34
 running on    1 total cores
 distrk:  each k-point on    1 cores,    1 groups
 distr:  one band on NCORES_PER_BAND=   1 cores,    1 groups


--------------------------------------------------------------------------------------------------------


 INCAR:
 POTCAR:   PAW_PBE C 08Apr2002                    
 POTCAR:   PAW_PBE H 15Jun2001                    
 POTCAR:   PAW_PBE C 08Apr2002                    
   VRHFIN =C: s2p2                                                              
   LEXCH  = PE                                                                  
   EATOM  =   147.1560 eV,   10.8157 Ry                                         
                                                                                
   TITEL  = PAW_PBE C 08Apr2002                                                 
   LULTRA =        F    use ultrasoft PP ?                                      
   IUNSCR =        0    unscreen: 0-lin 1-nonlin 2-no                           
   RPACOR =     .000    partial core radius                                     
   POMASS =   12.011; ZVAL   =    4.000    mass and valenz                      
   RCORE  =    1.500    outmost cutoff radius                                   
   RWIGS  =    1.630; RWIGS  =     .863    wigner-seitz radius (au A)           
   ENMAX  =  400.000; ENMIN  =  300.000 eV                                      
   ICORE  =        2    local potential                                         
   LCOR   =        T    correct aug charges                                     
   LPAW   =        T    paw PP                                                  
   EAUG   =  644.873                                                            
   DEXC   =     .000                                                            
   RMAX   =    2.266    core radius for proj-oper                               
   RAUG   =    1.300    factor for augmentation sphere                          
   RDEP   =    1.501    radius for radial grids                                 
   RDEPT  =    1.300    core radius for aug-charge                              
   QCUT   =   -5.516; QGAM   =   11.032    optimization parameters              
                                                                                
   Description                                                                  
     l     E      TYP  RCUT    TYP  RCUT                                        
     0   .000     23  1.200                                                     
     0   .000     23  1.200                                                     
     1   .000     23  1.500                                                     
     1  2.500     23  1.500                                                     
     2   .000      7  1.500                                                     
  local pseudopotential read in
  atomic valenz-charges read in
  non local Contribution for L=           0  read in
    real space projection operators read in
  non local Contribution for L=           0  read in
    real space projection operators read in
  non local Contribution for L=           1  read in
    real space projection operators read in
  non local Contribution for L=           1  read in
    real space projection operators read in
    PAW grid and wavefunctions read in
 
   number of l-projection  operators is LMAX  =           4
   number of lm-projection operators is LMMAX =           8
 
 POTCAR:   PAW_PBE H 15Jun2001                    
   VRHFIN =H: ultrasoft test                                                    
   LEXCH  = PE                                                                  
   EATOM  =    12.4884 eV,     .9179 Ry                                         
                                                                                
   TITEL  = PAW_PBE H 15Jun2001                                                 
   LULTRA =        F    use ultrasoft PP ?                                      
   IUNSCR =        0    unscreen: 0-lin 1-nonlin 2-no                           
   RPACOR =     .000    partial core radius                                     
   POMASS =    1.000; ZVAL   =    1.000    mass and valenz                      
   RCORE  =    1.100    outmost cutoff radius                                   
   RWIGS  =     .700; RWIGS  =     .370    wigner-seitz radius (au A)           
   ENMAX  =  250.000; ENMIN  =  200.000 eV                                      
   RCLOC  =     .701    cutoff for local pot                                    
   LCOR   =        T    correct aug charges                                     
   LPAW   =        T    paw PP                                                  
   EAUG   =  400.000                                                            
   RMAX   =    2.174    core radius for proj-oper                               
   RAUG   =    1.200    factor for augmentation sphere                          
   RDEP   =    1.112    radius for radial grids                                 
   QCUT   =   -5.749; QGAM   =   11.498    optimization parameters              
                                                                                
   Description                                                                  
     l     E      TYP  RCUT    TYP  RCUT                                        
     0   .000     23  1.100                                                     
     0   .500     23  1.100                                                     
     1  -.300     23  1.100                                                     
  local pseudopotential read in
  atomic valenz-charges read in
  non local Contribution for L=           0  read in
    real space projection operators read in
  non local Contribution for L=           0  read in
    real space projection operators read in
  non local Contribution for L=           1  read in
    real space projection operators read in
    PAW grid and wavefunctions read in
 
   number of l-projection  operators is LMAX  =           3
   number of lm-projection operators is LMMAX =           5
 
 PAW_PBE C 08Apr2002                    :
 energy of atom  1       EATOM= -147.1560
 kinetic energy error for atom=    0.0016 (will be added to EATOM!!)
 PAW_PBE H 15Jun2001                    :
 energy of atom  2       EATOM=  -12.4884
 kinetic energy error for atom=    0.0002 (will be added to EATOM!!)
 
 
 POSCAR: C2 H4                                   
  positions in direct lattice
  No initial velocities read in
 exchange correlation table for  LEXCH =        8
   RHO(1)=    0.500       N(1)  =     2000
   RHO(2)=  100.500       N(2)  =     4000
 


--------------------------------------------------------------------------------------------------------


 ion  position               nearest neighbor table
   1  0.883  0.054  0.959-   5 1.05   9 1.13   2 1.36
   2  0.117  0.946  0.041-   6 1.05  10 1.13   1 1.36
   3  0.617  0.554  0.541-   7 1.05  11 1.13   4 1.36
   4  0.383  0.446  0.459-   8 1.05  12 1.13   3 1.36
   5  0.813  0.170  0.119-   1 1.05
   6  0.187  0.830  0.882-   2 1.05
   7  0.687  0.670  0.382-   3 1.05
   8  0.313  0.330  0.618-   4 1.05
   9  0.757  0.029  0.731-   1 1.13
  10  0.243  0.971  0.269-   2 1.13
  11  0.743  0.529  0.769-   3 1.13
  12  0.257  0.471  0.231-   4 1.13
 
  LATTYP: Found a simple orthorhombic cell.
 ALAT       =     4.1122140211
 B/A-ratio  =     1.1763284477
 C/A-ratio  =     1.5603864467
  
  Lattice vectors:
  
 A1 = (   0.0000000000,   0.0000000000,   4.1122140211)
 A2 = (  -4.8373143359,   0.0000000000,   0.0000000000)
 A3 = (   0.0000000000,  -6.4166430243,   0.0000000000)


Analysis of symmetry for initial positions (statically):
=====================================================================
 Subroutine PRICEL returns:
 Original cell was already a primitive cell.
 

 Routine SETGRP: Setting up the symmetry group for a 
 simple orthorhombic supercell.


 Subroutine GETGRP returns: Found  4 space group operations
 (whereof  2 operations were pure point group operations)
 out of a pool of  8 trial point group operations.


The static configuration has the point symmetry S_2 .
 The point group associated with its full space group is C_2h.


Analysis of symmetry for dynamics (positions and initial velocities):
=====================================================================
 Subroutine PRICEL returns:
 Original cell was already a primitive cell.
 

 Routine SETGRP: Setting up the symmetry group for a 
 simple orthorhombic supercell.


 Subroutine GETGRP returns: Found  4 space group operations
 (whereof  2 operations were pure point group operations)
 out of a pool of  8 trial point group operations.


The dynamic configuration has the point symmetry S_2 .
 The point group associated with its full space group is C_2h.
 
 
 KPOINTS: B4C B11C-CBC                            

Automatic generation of k-mesh.
Space group operators:
 irot       det(A)        alpha          n_x          n_y          n_z        tau_x        tau_y        tau_z
    1     1.000000     0.000001     1.000000     0.000000     0.000000     0.000000     0.000000     0.000000
    2    -1.000000     0.000001     1.000000     0.000000     0.000000     0.000000     0.000000     0.000000
    3     1.000000   180.000000     0.000000     1.000000     0.000000    -0.500000    -0.500000     0.500000
    4    -1.000000   180.000000     0.000000     1.000000     0.000000    -0.500000    -0.500000     0.500000
 
 Subroutine IBZKPT returns following result:
 ===========================================
 
 Found    350 irreducible k-points:
 
 Following reciprocal coordinates:
            Coordinates               Weight
  0.000000  0.000000  0.000000      1.000000
  0.083333  0.000000  0.000000      2.000000
  0.166667  0.000000  0.000000      2.000000
  0.250000  0.000000  0.000000      2.000000
  0.333333  0.000000  0.000000      2.000000
  0.416667  0.000000  0.000000      2.000000
  0.500000  0.000000  0.000000      1.000000
  0.000000  0.083333  0.000000      2.000000
  0.083333  0.083333  0.000000      4.000000
  0.166667  0.083333  0.000000      4.000000
  0.250000  0.083333  0.000000      4.000000
  0.333333  0.083333  0.000000      4.000000
  0.416667  0.083333  0.000000      4.000000
  0.500000  0.083333  0.000000      2.000000
  0.000000  0.166667  0.000000      2.000000
  0.083333  0.166667  0.000000      4.000000
  0.166667  0.166667  0.000000      4.000000
  0.250000  0.166667  0.000000      4.000000
  0.333333  0.166667  0.000000      4.000000
  0.416667  0.166667  0.000000      4.000000
  0.500000  0.166667  0.000000      2.000000
  0.000000  0.250000  0.000000      2.000000
  0.083333  0.250000  0.000000      4.000000
  0.166667  0.250000  0.000000      4.000000
  0.250000  0.250000  0.000000      4.000000
  0.333333  0.250000  0.000000      4.000000
  0.416667  0.250000  0.000000      4.000000
  0.500000  0.250000  0.000000      2.000000
  0.000000  0.333333  0.000000      2.000000
  0.083333  0.333333  0.000000      4.000000
  0.166667  0.333333  0.000000      4.000000
  0.250000  0.333333  0.000000      4.000000
  0.333333  0.333333  0.000000      4.000000
  0.416667  0.333333  0.000000      4.000000
  0.500000  0.333333  0.000000      2.000000
  0.000000  0.416667  0.000000      2.000000
  0.083333  0.416667  0.000000      4.000000
  0.166667  0.416667  0.000000      4.000000
  0.250000  0.416667  0.000000      4.000000
  0.333333  0.416667  0.000000      4.000000
  0.416667  0.416667  0.000000      4.000000
  0.500000  0.416667  0.000000      2.000000
  0.000000  0.500000  0.000000      1.000000
  0.083333  0.500000  0.000000      2.000000
  0.166667  0.500000  0.000000      2.000000
  0.250000  0.500000  0.000000      2.000000
  0.333333  0.500000  0.000000      2.000000
  0.416667  0.500000  0.000000      2.000000
  0.500000  0.500000  0.000000      1.000000
  0.000000  0.000000  0.125000      2.000000
  0.083333  0.000000  0.125000      2.000000
  0.166667  0.000000  0.125000      2.000000
  0.250000  0.000000  0.125000      2.000000
  0.333333  0.000000  0.125000      2.000000
  0.416667  0.000000  0.125000      2.000000
  0.500000  0.000000  0.125000      2.000000
 -0.416667  0.000000  0.125000      2.000000
 -0.333333  0.000000  0.125000      2.000000
 -0.250000  0.000000  0.125000      2.000000
 -0.166667  0.000000  0.125000      2.000000
 -0.083333  0.000000  0.125000      2.000000
  0.000000  0.083333  0.125000      4.000000
  0.083333  0.083333  0.125000      4.000000
  0.166667  0.083333  0.125000      4.000000
  0.250000  0.083333  0.125000      4.000000
  0.333333  0.083333  0.125000      4.000000
  0.416667  0.083333  0.125000      4.000000
  0.500000  0.083333  0.125000      4.000000
 -0.416667  0.083333  0.125000      4.000000
 -0.333333  0.083333  0.125000      4.000000
 -0.250000  0.083333  0.125000      4.000000
 -0.166667  0.083333  0.125000      4.000000
 -0.083333  0.083333  0.125000      4.000000
  0.000000  0.166667  0.125000      4.000000
  0.083333  0.166667  0.125000      4.000000
  0.166667  0.166667  0.125000      4.000000
  0.250000  0.166667  0.125000      4.000000
  0.333333  0.166667  0.125000      4.000000
  0.416667  0.166667  0.125000      4.000000
  0.500000  0.166667  0.125000      4.000000
 -0.416667  0.166667  0.125000      4.000000
 -0.333333  0.166667  0.125000      4.000000
 -0.250000  0.166667  0.125000      4.000000
 -0.166667  0.166667  0.125000      4.000000
 -0.083333  0.166667  0.125000      4.000000
  0.000000  0.250000  0.125000      4.000000
  0.083333  0.250000  0.125000      4.000000
  0.166667  0.250000  0.125000      4.000000
  0.250000  0.250000  0.125000      4.000000
  0.333333  0.250000  0.125000      4.000000
  0.416667  0.250000  0.125000      4.000000
  0.500000  0.250000  0.125000      4.000000
 -0.416667  0.250000  0.125000      4.000000
 -0.333333  0.250000  0.125000      4.000000
 -0.250000  0.250000  0.125000      4.000000
 -0.166667  0.250000  0.125000      4.000000
 -0.083333  0.250000  0.125000      4.000000
  0.000000  0.333333  0.125000      4.000000
  0.083333  0.333333  0.125000      4.000000
  0.166667  0.333333  0.125000      4.000000
  0.250000  0.333333  0.125000      4.000000
  0.333333  0.333333  0.125000      4.000000
  0.416667  0.333333  0.125000      4.000000
  0.500000  0.333333  0.125000      4.000000
 -0.416667  0.333333  0.125000      4.000000
 -0.333333  0.333333  0.125000      4.000000
 -0.250000  0.333333  0.125000      4.000000
 -0.166667  0.333333  0.125000      4.000000
 -0.083333  0.333333  0.125000      4.000000
  0.000000  0.416667  0.125000      4.000000
  0.083333  0.416667  0.125000      4.000000
  0.166667  0.416667  0.125000      4.000000
  0.250000  0.416667  0.125000      4.000000
  0.333333  0.416667  0.125000      4.000000
  0.416667  0.416667  0.125000      4.000000
  0.500000  0.416667  0.125000      4.000000
 -0.416667  0.416667  0.125000      4.000000
 -0.333333  0.416667  0.125000      4.000000
 -0.250000  0.416667  0.125000      4.000000
 -0.166667  0.416667  0.125000      4.000000
 -0.083333  0.416667  0.125000      4.000000
  0.000000  0.500000  0.125000      2.000000
  0.083333  0.500000  0.125000      2.000000
  0.166667  0.500000  0.125000      2.000000
  0.250000  0.500000  0.125000      2.000000
  0.333333  0.500000  0.125000      2.000000
  0.416667  0.500000  0.125000      2.000000
  0.500000  0.500000  0.125000      2.000000
 -0.416667  0.500000  0.125000      2.000000
 -0.333333  0.500000  0.125000      2.000000
 -0.250000  0.500000  0.125000      2.000000
 -0.166667  0.500000  0.125000      2.000000
 -0.083333  0.500000  0.125000      2.000000
  0.000000  0.000000  0.250000      2.000000
  0.083333  0.000000  0.250000      2.000000
  0.166667  0.000000  0.250000      2.000000
  0.250000  0.000000  0.250000      2.000000
  0.333333  0.000000  0.250000      2.000000
  0.416667  0.000000  0.250000      2.000000
  0.500000  0.000000  0.250000      2.000000
 -0.416667  0.000000  0.250000      2.000000
 -0.333333  0.000000  0.250000      2.000000
 -0.250000  0.000000  0.250000      2.000000
 -0.166667  0.000000  0.250000      2.000000
 -0.083333  0.000000  0.250000      2.000000
  0.000000  0.083333  0.250000      4.000000
  0.083333  0.083333  0.250000      4.000000
  0.166667  0.083333  0.250000      4.000000
  0.250000  0.083333  0.250000      4.000000
  0.333333  0.083333  0.250000      4.000000
  0.416667  0.083333  0.250000      4.000000
  0.500000  0.083333  0.250000      4.000000
 -0.416667  0.083333  0.250000      4.000000
 -0.333333  0.083333  0.250000      4.000000
 -0.250000  0.083333  0.250000      4.000000
 -0.166667  0.083333  0.250000      4.000000
 -0.083333  0.083333  0.250000      4.000000
  0.000000  0.166667  0.250000      4.000000
  0.083333  0.166667  0.250000      4.000000
  0.166667  0.166667  0.250000      4.000000
  0.250000  0.166667  0.250000      4.000000
  0.333333  0.166667  0.250000      4.000000
  0.416667  0.166667  0.250000      4.000000
  0.500000  0.166667  0.250000      4.000000
 -0.416667  0.166667  0.250000      4.000000
 -0.333333  0.166667  0.250000      4.000000
 -0.250000  0.166667  0.250000      4.000000
 -0.166667  0.166667  0.250000      4.000000
 -0.083333  0.166667  0.250000      4.000000
  0.000000  0.250000  0.250000      4.000000
  0.083333  0.250000  0.250000      4.000000
  0.166667  0.250000  0.250000      4.000000
  0.250000  0.250000  0.250000      4.000000
  0.333333  0.250000  0.250000      4.000000
  0.416667  0.250000  0.250000      4.000000
  0.500000  0.250000  0.250000      4.000000
 -0.416667  0.250000  0.250000      4.000000
 -0.333333  0.250000  0.250000      4.000000
 -0.250000  0.250000  0.250000      4.000000
 -0.166667  0.250000  0.250000      4.000000
 -0.083333  0.250000  0.250000      4.000000
  0.000000  0.333333  0.250000      4.000000
  0.083333  0.333333  0.250000      4.000000
  0.166667  0.333333  0.250000      4.000000
  0.250000  0.333333  0.250000      4.000000
  0.333333  0.333333  0.250000      4.000000
  0.416667  0.333333  0.250000      4.000000
  0.500000  0.333333  0.250000      4.000000
 -0.416667  0.333333  0.250000      4.000000
 -0.333333  0.333333  0.250000      4.000000
 -0.250000  0.333333  0.250000      4.000000
 -0.166667  0.333333  0.250000      4.000000
 -0.083333  0.333333  0.250000      4.000000
  0.000000  0.416667  0.250000      4.000000
  0.083333  0.416667  0.250000      4.000000
  0.166667  0.416667  0.250000      4.000000
  0.250000  0.416667  0.250000      4.000000
  0.333333  0.416667  0.250000      4.000000
  0.416667  0.416667  0.250000      4.000000
  0.500000  0.416667  0.250000      4.000000
 -0.416667  0.416667  0.250000      4.000000
 -0.333333  0.416667  0.250000      4.000000
 -0.250000  0.416667  0.250000      4.000000
 -0.166667  0.416667  0.250000      4.000000
 -0.083333  0.416667  0.250000      4.000000
  0.000000  0.500000  0.250000      2.000000
  0.083333  0.500000  0.250000      2.000000
  0.166667  0.500000  0.250000      2.000000
  0.250000  0.500000  0.250000      2.000000
  0.333333  0.500000  0.250000      2.000000
  0.416667  0.500000  0.250000      2.000000
  0.500000  0.500000  0.250000      2.000000
 -0.416667  0.500000  0.250000      2.000000
 -0.333333  0.500000  0.250000      2.000000
 -0.250000  0.500000  0.250000      2.000000
 -0.166667  0.500000  0.250000      2.000000
 -0.083333  0.500000  0.250000      2.000000
  0.000000  0.000000  0.375000      2.000000
  0.083333  0.000000  0.375000      2.000000
  0.166667  0.000000  0.375000      2.000000
  0.250000  0.000000  0.375000      2.000000
  0.333333  0.000000  0.375000      2.000000
  0.416667  0.000000  0.375000      2.000000
  0.500000  0.000000  0.375000      2.000000
 -0.416667  0.000000  0.375000      2.000000
 -0.333333  0.000000  0.375000      2.000000
 -0.250000  0.000000  0.375000      2.000000
 -0.166667  0.000000  0.375000      2.000000
 -0.083333  0.000000  0.375000      2.000000
  0.000000  0.083333  0.375000      4.000000
  0.083333  0.083333  0.375000      4.000000
  0.166667  0.083333  0.375000      4.000000
  0.250000  0.083333  0.375000      4.000000
  0.333333  0.083333  0.375000      4.000000
  0.416667  0.083333  0.375000      4.000000
  0.500000  0.083333  0.375000      4.000000
 -0.416667  0.083333  0.375000      4.000000
 -0.333333  0.083333  0.375000      4.000000
 -0.250000  0.083333  0.375000      4.000000
 -0.166667  0.083333  0.375000      4.000000
 -0.083333  0.083333  0.375000      4.000000
  0.000000  0.166667  0.375000      4.000000
  0.083333  0.166667  0.375000      4.000000
  0.166667  0.166667  0.375000      4.000000
  0.250000  0.166667  0.375000      4.000000
  0.333333  0.166667  0.375000      4.000000
  0.416667  0.166667  0.375000      4.000000
  0.500000  0.166667  0.375000      4.000000
 -0.416667  0.166667  0.375000      4.000000
 -0.333333  0.166667  0.375000      4.000000
 -0.250000  0.166667  0.375000      4.000000
 -0.166667  0.166667  0.375000      4.000000
 -0.083333  0.166667  0.375000      4.000000
  0.000000  0.250000  0.375000      4.000000
  0.083333  0.250000  0.375000      4.000000
  0.166667  0.250000  0.375000      4.000000
  0.250000  0.250000  0.375000      4.000000
  0.333333  0.250000  0.375000      4.000000
  0.416667  0.250000  0.375000      4.000000
  0.500000  0.250000  0.375000      4.000000
 -0.416667  0.250000  0.375000      4.000000
 -0.333333  0.250000  0.375000      4.000000
 -0.250000  0.250000  0.375000      4.000000
 -0.166667  0.250000  0.375000      4.000000
 -0.083333  0.250000  0.375000      4.000000
  0.000000  0.333333  0.375000      4.000000
  0.083333  0.333333  0.375000      4.000000
  0.166667  0.333333  0.375000      4.000000
  0.250000  0.333333  0.375000      4.000000
  0.333333  0.333333  0.375000      4.000000
  0.416667  0.333333  0.375000      4.000000
  0.500000  0.333333  0.375000      4.000000
 -0.416667  0.333333  0.375000      4.000000
 -0.333333  0.333333  0.375000      4.000000
 -0.250000  0.333333  0.375000      4.000000
 -0.166667  0.333333  0.375000      4.000000
 -0.083333  0.333333  0.375000      4.000000
  0.000000  0.416667  0.375000      4.000000
  0.083333  0.416667  0.375000      4.000000
  0.166667  0.416667  0.375000      4.000000
  0.250000  0.416667  0.375000      4.000000
  0.333333  0.416667  0.375000      4.000000
  0.416667  0.416667  0.375000      4.000000
  0.500000  0.416667  0.375000      4.000000
 -0.416667  0.416667  0.375000      4.000000
 -0.333333  0.416667  0.375000      4.000000
 -0.250000  0.416667  0.375000      4.000000
 -0.166667  0.416667  0.375000      4.000000
 -0.083333  0.416667  0.375000      4.000000
  0.000000  0.500000  0.375000      2.000000
  0.083333  0.500000  0.375000      2.000000
  0.166667  0.500000  0.375000      2.000000
  0.250000  0.500000  0.375000      2.000000
  0.333333  0.500000  0.375000      2.000000
  0.416667  0.500000  0.375000      2.000000
  0.500000  0.500000  0.375000      2.000000
 -0.416667  0.500000  0.375000      2.000000
 -0.333333  0.500000  0.375000      2.000000
 -0.250000  0.500000  0.375000      2.000000
 -0.166667  0.500000  0.375000      2.000000
 -0.083333  0.500000  0.375000      2.000000
  0.000000  0.000000  0.500000      1.000000
  0.083333  0.000000  0.500000      2.000000
  0.166667  0.000000  0.500000      2.000000
  0.250000  0.000000  0.500000      2.000000
  0.333333  0.000000  0.500000      2.000000
  0.416667  0.000000  0.500000      2.000000
  0.500000  0.000000  0.500000      1.000000
  0.000000  0.083333  0.500000      2.000000
  0.083333  0.083333  0.500000      4.000000
  0.166667  0.083333  0.500000      4.000000
  0.250000  0.083333  0.500000      4.000000
  0.333333  0.083333  0.500000      4.000000
  0.416667  0.083333  0.500000      4.000000
  0.500000  0.083333  0.500000      2.000000
  0.000000  0.166667  0.500000      2.000000
  0.083333  0.166667  0.500000      4.000000
  0.166667  0.166667  0.500000      4.000000
  0.250000  0.166667  0.500000      4.000000
  0.333333  0.166667  0.500000      4.000000
  0.416667  0.166667  0.500000      4.000000
  0.500000  0.166667  0.500000      2.000000
  0.000000  0.250000  0.500000      2.000000
  0.083333  0.250000  0.500000      4.000000
  0.166667  0.250000  0.500000      4.000000
  0.250000  0.250000  0.500000      4.000000
  0.333333  0.250000  0.500000      4.000000
  0.416667  0.250000  0.500000      4.000000
  0.500000  0.250000  0.500000      2.000000
  0.000000  0.333333  0.500000      2.000000
  0.083333  0.333333  0.500000      4.000000
  0.166667  0.333333  0.500000      4.000000
  0.250000  0.333333  0.500000      4.000000
  0.333333  0.333333  0.500000      4.000000
  0.416667  0.333333  0.500000      4.000000
  0.500000  0.333333  0.500000      2.000000
  0.000000  0.416667  0.500000      2.000000
  0.083333  0.416667  0.500000      4.000000
  0.166667  0.416667  0.500000      4.000000
  0.250000  0.416667  0.500000      4.000000
  0.333333  0.416667  0.500000      4.000000
  0.416667  0.416667  0.500000      4.000000
  0.500000  0.416667  0.500000      2.000000
  0.000000  0.500000  0.500000      1.000000
  0.083333  0.500000  0.500000      2.000000
  0.166667  0.500000  0.500000      2.000000
  0.250000  0.500000  0.500000      2.000000
  0.333333  0.500000  0.500000      2.000000
  0.416667  0.500000  0.500000      2.000000
  0.500000  0.500000  0.500000      1.000000
 
 Following cartesian coordinates:
            Coordinates               Weight
  0.000000  0.000000  0.000000      1.000000
  0.017112  0.000000  0.000000      2.000000
  0.034223  0.000000  0.000000      2.000000
  0.051335  0.000000  0.000000      2.000000
  0.068446  0.000000  0.000000      2.000000
  0.085558  0.000000  0.000000      2.000000
  0.102669  0.000000  0.000000      1.000000
  0.000000  0.012900  0.000000      2.000000
  0.017112  0.012900  0.000000      4.000000
  0.034223  0.012900  0.000000      4.000000
  0.051335  0.012900  0.000000      4.000000
  0.068446  0.012900  0.000000      4.000000
  0.085558  0.012900  0.000000      4.000000
  0.102669  0.012900  0.000000      2.000000
  0.000000  0.025800  0.000000      2.000000
  0.017112  0.025800  0.000000      4.000000
  0.034223  0.025800  0.000000      4.000000
  0.051335  0.025800  0.000000      4.000000
  0.068446  0.025800  0.000000      4.000000
  0.085558  0.025800  0.000000      4.000000
  0.102669  0.025800  0.000000      2.000000
  0.000000  0.038700  0.000000      2.000000
  0.017112  0.038700  0.000000      4.000000
  0.034223  0.038700  0.000000      4.000000
  0.051335  0.038700  0.000000      4.000000
  0.068446  0.038700  0.000000      4.000000
  0.085558  0.038700  0.000000      4.000000
  0.102669  0.038700  0.000000      2.000000
  0.000000  0.051600  0.000000      2.000000
  0.017112  0.051600  0.000000      4.000000
  0.034223  0.051600  0.000000      4.000000
  0.051335  0.051600  0.000000      4.000000
  0.068446  0.051600  0.000000      4.000000
  0.085558  0.051600  0.000000      4.000000
  0.102669  0.051600  0.000000      2.000000
  0.000000  0.064499  0.000000      2.000000
  0.017112  0.064499  0.000000      4.000000
  0.034223  0.064499  0.000000      4.000000
  0.051335  0.064499  0.000000      4.000000
  0.068446  0.064499  0.000000      4.000000
  0.085558  0.064499  0.000000      4.000000
  0.102669  0.064499  0.000000      2.000000
  0.000000  0.077399  0.000000      1.000000
  0.017112  0.077399  0.000000      2.000000
  0.034223  0.077399  0.000000      2.000000
  0.051335  0.077399  0.000000      2.000000
  0.068446  0.077399  0.000000      2.000000
  0.085558  0.077399  0.000000      2.000000
  0.102669  0.077399  0.000000      1.000000
  0.000000  0.000000  0.030193      2.000000
  0.017112  0.000000  0.030193      2.000000
  0.034223  0.000000  0.030193      2.000000
  0.051335  0.000000  0.030193      2.000000
  0.068446  0.000000  0.030193      2.000000
  0.085558  0.000000  0.030193      2.000000
  0.102669  0.000000  0.030193      2.000000
 -0.085558  0.000000  0.030193      2.000000
 -0.068446  0.000000  0.030193      2.000000
 -0.051335  0.000000  0.030193      2.000000
 -0.034223  0.000000  0.030193      2.000000
 -0.017112  0.000000  0.030193      2.000000
  0.000000  0.012900  0.030193      4.000000
  0.017112  0.012900  0.030193      4.000000
  0.034223  0.012900  0.030193      4.000000
  0.051335  0.012900  0.030193      4.000000
  0.068446  0.012900  0.030193      4.000000
  0.085558  0.012900  0.030193      4.000000
  0.102669  0.012900  0.030193      4.000000
 -0.085558  0.012900  0.030193      4.000000
 -0.068446  0.012900  0.030193      4.000000
 -0.051335  0.012900  0.030193      4.000000
 -0.034223  0.012900  0.030193      4.000000
 -0.017112  0.012900  0.030193      4.000000
  0.000000  0.025800  0.030193      4.000000
  0.017112  0.025800  0.030193      4.000000
  0.034223  0.025800  0.030193      4.000000
  0.051335  0.025800  0.030193      4.000000
  0.068446  0.025800  0.030193      4.000000
  0.085558  0.025800  0.030193      4.000000
  0.102669  0.025800  0.030193      4.000000
 -0.085558  0.025800  0.030193      4.000000
 -0.068446  0.025800  0.030193      4.000000
 -0.051335  0.025800  0.030193      4.000000
 -0.034223  0.025800  0.030193      4.000000
 -0.017112  0.025800  0.030193      4.000000
  0.000000  0.038700  0.030193      4.000000
  0.017112  0.038700  0.030193      4.000000
  0.034223  0.038700  0.030193      4.000000
  0.051335  0.038700  0.030193      4.000000
  0.068446  0.038700  0.030193      4.000000
  0.085558  0.038700  0.030193      4.000000
  0.102669  0.038700  0.030193      4.000000
 -0.085558  0.038700  0.030193      4.000000
 -0.068446  0.038700  0.030193      4.000000
 -0.051335  0.038700  0.030193      4.000000
 -0.034223  0.038700  0.030193      4.000000
 -0.017112  0.038700  0.030193      4.000000
  0.000000  0.051600  0.030193      4.000000
  0.017112  0.051600  0.030193      4.000000
  0.034223  0.051600  0.030193      4.000000
  0.051335  0.051600  0.030193      4.000000
  0.068446  0.051600  0.030193      4.000000
  0.085558  0.051600  0.030193      4.000000
  0.102669  0.051600  0.030193      4.000000
 -0.085558  0.051600  0.030193      4.000000
 -0.068446  0.051600  0.030193      4.000000
 -0.051335  0.051600  0.030193      4.000000
 -0.034223  0.051600  0.030193      4.000000
 -0.017112  0.051600  0.030193      4.000000
  0.000000  0.064499  0.030193      4.000000
  0.017112  0.064499  0.030193      4.000000
  0.034223  0.064499  0.030193      4.000000
  0.051335  0.064499  0.030193      4.000000
  0.068446  0.064499  0.030193      4.000000
  0.085558  0.064499  0.030193      4.000000
  0.102669  0.064499  0.030193      4.000000
 -0.085558  0.064499  0.030193      4.000000
 -0.068446  0.064499  0.030193      4.000000
 -0.051335  0.064499  0.030193      4.000000
 -0.034223  0.064499  0.030193      4.000000
 -0.017112  0.064499  0.030193      4.000000
  0.000000  0.077399  0.030193      2.000000
  0.017112  0.077399  0.030193      2.000000
  0.034223  0.077399  0.030193      2.000000
  0.051335  0.077399  0.030193      2.000000
  0.068446  0.077399  0.030193      2.000000
  0.085558  0.077399  0.030193      2.000000
  0.102669  0.077399  0.030193      2.000000
 -0.085558  0.077399  0.030193      2.000000
 -0.068446  0.077399  0.030193      2.000000
 -0.051335  0.077399  0.030193      2.000000
 -0.034223  0.077399  0.030193      2.000000
 -0.017112  0.077399  0.030193      2.000000
  0.000000  0.000000  0.060386      2.000000
  0.017112  0.000000  0.060386      2.000000
  0.034223  0.000000  0.060386      2.000000
  0.051335  0.000000  0.060386      2.000000
  0.068446  0.000000  0.060386      2.000000
  0.085558  0.000000  0.060386      2.000000
  0.102669  0.000000  0.060386      2.000000
 -0.085558  0.000000  0.060386      2.000000
 -0.068446  0.000000  0.060386      2.000000
 -0.051335  0.000000  0.060386      2.000000
 -0.034223  0.000000  0.060386      2.000000
 -0.017112  0.000000  0.060386      2.000000
  0.000000  0.012900  0.060386      4.000000
  0.017112  0.012900  0.060386      4.000000
  0.034223  0.012900  0.060386      4.000000
  0.051335  0.012900  0.060386      4.000000
  0.068446  0.012900  0.060386      4.000000
  0.085558  0.012900  0.060386      4.000000
  0.102669  0.012900  0.060386      4.000000
 -0.085558  0.012900  0.060386      4.000000
 -0.068446  0.012900  0.060386      4.000000
 -0.051335  0.012900  0.060386      4.000000
 -0.034223  0.012900  0.060386      4.000000
 -0.017112  0.012900  0.060386      4.000000
  0.000000  0.025800  0.060386      4.000000
  0.017112  0.025800  0.060386      4.000000
  0.034223  0.025800  0.060386      4.000000
  0.051335  0.025800  0.060386      4.000000
  0.068446  0.025800  0.060386      4.000000
  0.085558  0.025800  0.060386      4.000000
  0.102669  0.025800  0.060386      4.000000
 -0.085558  0.025800  0.060386      4.000000
 -0.068446  0.025800  0.060386      4.000000
 -0.051335  0.025800  0.060386      4.000000
 -0.034223  0.025800  0.060386      4.000000
 -0.017112  0.025800  0.060386      4.000000
  0.000000  0.038700  0.060386      4.000000
  0.017112  0.038700  0.060386      4.000000
  0.034223  0.038700  0.060386      4.000000
  0.051335  0.038700  0.060386      4.000000
  0.068446  0.038700  0.060386      4.000000
  0.085558  0.038700  0.060386      4.000000
  0.102669  0.038700  0.060386      4.000000
 -0.085558  0.038700  0.060386      4.000000
 -0.068446  0.038700  0.060386      4.000000
 -0.051335  0.038700  0.060386      4.000000
 -0.034223  0.038700  0.060386      4.000000
 -0.017112  0.038700  0.060386      4.000000
  0.000000  0.051600  0.060386      4.000000
  0.017112  0.051600  0.060386      4.000000
  0.034223  0.051600  0.060386      4.000000
  0.051335  0.051600  0.060386      4.000000
  0.068446  0.051600  0.060386      4.000000
  0.085558  0.051600  0.060386      4.000000
  0.102669  0.051600  0.060386      4.000000
 -0.085558  0.051600  0.060386      4.000000
 -0.068446  0.051600  0.060386      4.000000
 -0.051335  0.051600  0.060386      4.000000
 -0.034223  0.051600  0.060386      4.000000
 -0.017112  0.051600  0.060386      4.000000
  0.000000  0.064499  0.060386      4.000000
  0.017112  0.064499  0.060386      4.000000
  0.034223  0.064499  0.060386      4.000000
  0.051335  0.064499  0.060386      4.000000
  0.068446  0.064499  0.060386      4.000000
  0.085558  0.064499  0.060386      4.000000
  0.102669  0.064499  0.060386      4.000000
 -0.085558  0.064499  0.060386      4.000000
 -0.068446  0.064499  0.060386      4.000000
 -0.051335  0.064499  0.060386      4.000000
 -0.034223  0.064499  0.060386      4.000000
 -0.017112  0.064499  0.060386      4.000000
  0.000000  0.077399  0.060386      2.000000
  0.017112  0.077399  0.060386      2.000000
  0.034223  0.077399  0.060386      2.000000
  0.051335  0.077399  0.060386      2.000000
  0.068446  0.077399  0.060386      2.000000
  0.085558  0.077399  0.060386      2.000000
  0.102669  0.077399  0.060386      2.000000
 -0.085558  0.077399  0.060386      2.000000
 -0.068446  0.077399  0.060386      2.000000
 -0.051335  0.077399  0.060386      2.000000
 -0.034223  0.077399  0.060386      2.000000
 -0.017112  0.077399  0.060386      2.000000
  0.000000  0.000000  0.090580      2.000000
  0.017112  0.000000  0.090580      2.000000
  0.034223  0.000000  0.090580      2.000000
  0.051335  0.000000  0.090580      2.000000
  0.068446  0.000000  0.090580      2.000000
  0.085558  0.000000  0.090580      2.000000
  0.102669  0.000000  0.090580      2.000000
 -0.085558  0.000000  0.090580      2.000000
 -0.068446  0.000000  0.090580      2.000000
 -0.051335  0.000000  0.090580      2.000000
 -0.034223  0.000000  0.090580      2.000000
 -0.017112  0.000000  0.090580      2.000000
  0.000000  0.012900  0.090580      4.000000
  0.017112  0.012900  0.090580      4.000000
  0.034223  0.012900  0.090580      4.000000
  0.051335  0.012900  0.090580      4.000000
  0.068446  0.012900  0.090580      4.000000
  0.085558  0.012900  0.090580      4.000000
  0.102669  0.012900  0.090580      4.000000
 -0.085558  0.012900  0.090580      4.000000
 -0.068446  0.012900  0.090580      4.000000
 -0.051335  0.012900  0.090580      4.000000
 -0.034223  0.012900  0.090580      4.000000
 -0.017112  0.012900  0.090580      4.000000
  0.000000  0.025800  0.090580      4.000000
  0.017112  0.025800  0.090580      4.000000
  0.034223  0.025800  0.090580      4.000000
  0.051335  0.025800  0.090580      4.000000
  0.068446  0.025800  0.090580      4.000000
  0.085558  0.025800  0.090580      4.000000
  0.102669  0.025800  0.090580      4.000000
 -0.085558  0.025800  0.090580      4.000000
 -0.068446  0.025800  0.090580      4.000000
 -0.051335  0.025800  0.090580      4.000000
 -0.034223  0.025800  0.090580      4.000000
 -0.017112  0.025800  0.090580      4.000000
  0.000000  0.038700  0.090580      4.000000
  0.017112  0.038700  0.090580      4.000000
  0.034223  0.038700  0.090580      4.000000
  0.051335  0.038700  0.090580      4.000000
  0.068446  0.038700  0.090580      4.000000
  0.085558  0.038700  0.090580      4.000000
  0.102669  0.038700  0.090580      4.000000
 -0.085558  0.038700  0.090580      4.000000
 -0.068446  0.038700  0.090580      4.000000
 -0.051335  0.038700  0.090580      4.000000
 -0.034223  0.038700  0.090580      4.000000
 -0.017112  0.038700  0.090580      4.000000
  0.000000  0.051600  0.090580      4.000000
  0.017112  0.051600  0.090580      4.000000
  0.034223  0.051600  0.090580      4.000000
  0.051335  0.051600  0.090580      4.000000
  0.068446  0.051600  0.090580      4.000000
  0.085558  0.051600  0.090580      4.000000
  0.102669  0.051600  0.090580      4.000000
 -0.085558  0.051600  0.090580      4.000000
 -0.068446  0.051600  0.090580      4.000000
 -0.051335  0.051600  0.090580      4.000000
 -0.034223  0.051600  0.090580      4.000000
 -0.017112  0.051600  0.090580      4.000000
  0.000000  0.064499  0.090580      4.000000
  0.017112  0.064499  0.090580      4.000000
  0.034223  0.064499  0.090580      4.000000
  0.051335  0.064499  0.090580      4.000000
  0.068446  0.064499  0.090580      4.000000
  0.085558  0.064499  0.090580      4.000000
  0.102669  0.064499  0.090580      4.000000
 -0.085558  0.064499  0.090580      4.000000
 -0.068446  0.064499  0.090580      4.000000
 -0.051335  0.064499  0.090580      4.000000
 -0.034223  0.064499  0.090580      4.000000
 -0.017112  0.064499  0.090580      4.000000
  0.000000  0.077399  0.090580      2.000000
  0.017112  0.077399  0.090580      2.000000
  0.034223  0.077399  0.090580      2.000000
  0.051335  0.077399  0.090580      2.000000
  0.068446  0.077399  0.090580      2.000000
  0.085558  0.077399  0.090580      2.000000
  0.102669  0.077399  0.090580      2.000000
 -0.085558  0.077399  0.090580      2.000000
 -0.068446  0.077399  0.090580      2.000000
 -0.051335  0.077399  0.090580      2.000000
 -0.034223  0.077399  0.090580      2.000000
 -0.017112  0.077399  0.090580      2.000000
  0.000000  0.000000  0.120773      1.000000
  0.017112  0.000000  0.120773      2.000000
  0.034223  0.000000  0.120773      2.000000
  0.051335  0.000000  0.120773      2.000000
  0.068446  0.000000  0.120773      2.000000
  0.085558  0.000000  0.120773      2.000000
  0.102669  0.000000  0.120773      1.000000
  0.000000  0.012900  0.120773      2.000000
  0.017112  0.012900  0.120773      4.000000
  0.034223  0.012900  0.120773      4.000000
  0.051335  0.012900  0.120773      4.000000
  0.068446  0.012900  0.120773      4.000000
  0.085558  0.012900  0.120773      4.000000
  0.102669  0.012900  0.120773      2.000000
  0.000000  0.025800  0.120773      2.000000
  0.017112  0.025800  0.120773      4.000000
  0.034223  0.025800  0.120773      4.000000
  0.051335  0.025800  0.120773      4.000000
  0.068446  0.025800  0.120773      4.000000
  0.085558  0.025800  0.120773      4.000000
  0.102669  0.025800  0.120773      2.000000
  0.000000  0.038700  0.120773      2.000000
  0.017112  0.038700  0.120773      4.000000
  0.034223  0.038700  0.120773      4.000000
  0.051335  0.038700  0.120773      4.000000
  0.068446  0.038700  0.120773      4.000000
  0.085558  0.038700  0.120773      4.000000
  0.102669  0.038700  0.120773      2.000000
  0.000000  0.051600  0.120773      2.000000
  0.017112  0.051600  0.120773      4.000000
  0.034223  0.051600  0.120773      4.000000
  0.051335  0.051600  0.120773      4.000000
  0.068446  0.051600  0.120773      4.000000
  0.085558  0.051600  0.120773      4.000000
  0.102669  0.051600  0.120773      2.000000
  0.000000  0.064499  0.120773      2.000000
  0.017112  0.064499  0.120773      4.000000
  0.034223  0.064499  0.120773      4.000000
  0.051335  0.064499  0.120773      4.000000
  0.068446  0.064499  0.120773      4.000000
  0.085558  0.064499  0.120773      4.000000
  0.102669  0.064499  0.120773      2.000000
  0.000000  0.077399  0.120773      1.000000
  0.017112  0.077399  0.120773      2.000000
  0.034223  0.077399  0.120773      2.000000
  0.051335  0.077399  0.120773      2.000000
  0.068446  0.077399  0.120773      2.000000
  0.085558  0.077399  0.120773      2.000000
  0.102669  0.077399  0.120773      1.000000
 
 TETIRR: Found   3456 inequivalent tetrahedra from     6912


--------------------------------------------------------------------------------------------------------




 Dimension of arrays:
   k-points           NKPTS =    350   k-points in BZ     NKDIM =    350   number of bands    NBANDS=     19
   number of dos      NEDOS =    301   number of ions     NIONS =     12
   non local maximal  LDIM  =      4   non local SUM 2l+1 LMDIM =      8
   total plane-waves  NPLWV = 115200
   max r-space proj   IRMAX =      1   max aug-charges    IRDMAX=  10849
   dimension x,y,z NGX =    48 NGY =   60 NGZ =   40
   dimension x,y,z NGXF=    96 NGYF=  120 NGZF=   80
   support grid    NGXF=    96 NGYF=  120 NGZF=   80
   ions per type =               4   8
 NGX,Y,Z   is equivalent  to a cutoff of  16.50, 15.55, 16.17 a.u.
 NGXF,Y,Z  is equivalent  to a cutoff of  32.99, 31.09, 32.34 a.u.


 I would recommend the setting:
   dimension x,y,z NGX =    45 NGY =   59 NGZ =   38
 SYSTEM =  ethylene                                
 POSCAR =  C2 H4                                   

 Startparameter for this run:
   NWRITE =      2    write-flag & timer
   PREC   = accura    normal or accurate (medium, high low for compatibility)
   ISTART =      0    job   : 0-new  1-cont  2-samecut
   ICHARG =      2    charge: 1-file 2-atom 10-const
   ISPIN  =      1    spin polarized calculation?
   LNONCOLLINEAR =      F non collinear calculations
   LSORBIT =      F    spin-orbit coupling
   INIWAV =      1    electr: 0-lowe 1-rand  2-diag
   LASPH  =      F    aspherical Exc in radial PAW
   METAGGA=      F    non-selfconsistent MetaGGA calc.

 Electronic Relaxation 1
   ENCUT  =  800.0 eV  58.80 Ry    7.67 a.u.  11.16 14.80  9.48*2*pi/ulx,y,z
   ENINI  =  800.0     initial cutoff
   ENAUG  =  644.9 eV  augmentation charge cutoff
   NELM   =    200;   NELMIN=  2; NELMDL=  0     # of ELM steps 
   EDIFF  = 0.1E-07   stopping-criterion for ELM
   LREAL  =      F    real-space projection
   NLSPLINE    = F    spline interpolate recip. space projectors
   LCOMPAT=      F    compatible to vasp.4.4
   GGA_COMPAT  = T    GGA compatible to vasp.4.4-vasp.4.6
   LMAXPAW     = -100 max onsite density
   LMAXMIX     =    2 max onsite mixed and CHGCAR
   VOSKOWN=      0    Vosko Wilk Nusair interpolation
   ROPT   =    0.00000   0.00000
 Ionic relaxation
   EDIFFG = 0.1E-02   stopping-criterion for IOM
   NSW    =    200    number of steps for IOM
   NBLOCK =      1;   KBLOCK =    200    inner block; outer block 
   IBRION =      2    ionic relax: 0-MD 1-quasi-New 2-CG
   NFREE  =      1    steps in history (QN), initial steepest desc. (CG)
   ISIF   =      2    stress and relaxation
   IWAVPR =     11    prediction:  0-non 1-charg 2-wave 3-comb
   ISYM   =      2    0-nonsym 1-usesym 2-fastsym
   LCORR  =      T    Harris-Foulkes like correction to forces

   POTIM  = 0.5000    time-step for ionic-motion
   TEIN   =    0.0    initial temperature
   TEBEG  =    0.0;   TEEND  =   0.0 temperature during run
   SMASS  =  -3.00    Nose mass-parameter (am)
   estimated Nose-frequenzy (Omega)   =  0.10E-29 period in steps =****** mass=  -0.535E-27a.u.
   SCALEE = 1.0000    scale energy and forces
   NPACO  =    256;   APACO  = 16.0  distance and # of slots for P.C.
   PSTRESS=    0.0 pullay stress

  Mass of Ions in am
   POMASS =  12.01  1.00
  Ionic Valenz
   ZVAL   =   4.00  1.00
  Atomic Wigner-Seitz radii
   RWIGS  =  -1.00 -1.00
  virtual crystal weights 
   VCA    =   1.00  1.00
   NELECT =      24.0000    total number of electrons
   NUPDOWN=      -1.0000    fix difference up-down

 DOS related values:
   EMIN   =  10.00;   EMAX   =-10.00  energy-range for DOS
   EFERMI =   0.00
   ISMEAR =    -5;   SIGMA  =   0.20  broadening in eV -4-tet -1-fermi 0-gaus

 Electronic relaxation 2 (details)
   IALGO  =     38    algorithm
   LDIAG  =      T    sub-space diagonalisation (order eigenvalues)
   LSUBROT=      F    optimize rotation matrix (better conditioning)
   TURBO    =      0    0=normal 1=particle mesh
   IRESTART =      0    0=no restart 2=restart with 2 vectors
   NREBOOT  =      0    no. of reboots
   NMIN     =      0    reboot dimension
   EREF     =   0.00    reference energy to select bands
   IMIX   =      4    mixing-type and parameters
     AMIX     =   0.40;   BMIX     =  1.00
     AMIX_MAG =   1.60;   BMIX_MAG =  1.00
     AMIN     =   0.10
     WC   =   100.;   INIMIX=   1;  MIXPRE=   1;  MAXMIX= -45

 Intra band minimization:
   WEIMIN = 0.0010     energy-eigenvalue tresh-hold
   EBREAK =  0.13E-09  absolut break condition
   DEPER  =   0.30     relativ break condition  

   TIME   =   0.40     timestep for ELM

  volume/ion in A,a.u.               =      10.64        71.78
  Fermi-wavevector in a.u.,A,eV,Ry     =   0.937884  1.772344 11.968052  0.879627
  Thomas-Fermi vector in A             =   2.065040
 
 Write flags
   LWAVE  =      F    write WAVECAR
   LCHARG =      F    write CHGCAR
   LVTOT  =      F    write LOCPOT, total local potential
   LVHAR  =      F    write LOCPOT, Hartree potential only
   LELF   =      F    write electronic localiz. function (ELF)
   LORBIT =      0    0 simple, 1 ext, 2 COOP (PROOUT)


 Dipole corrections
   LMONO  =      F    monopole corrections only (constant potential shift)
   LDIPOL =      F    correct potential (dipole corrections)
   IDIPOL =      0    1-x, 2-y, 3-z, 4-all directions 
   EPSILON=  1.0000000 bulk dielectric constant

 Exchange correlation treatment:
   GGA     =    PE    GGA type
   LEXCH   =     8    internal setting for exchange type
   VOSKOWN=      0    Vosko Wilk Nusair interpolation
   LHFCALC =     F    Hartree Fock is set to
   LHFONE  =     F    Hartree Fock one center treatment
   AEXX    =    0.0000 exact exchange contribution

 Linear response parameters
   LEPSILON=     F    determine dielectric tensor
   LRPA    =     F    only Hartree local field effects (RPA)
   LNABLA  =     F    use nabla operator in PAW spheres
   LVEL    =     F    velocity operator in full k-point grid
   LINTERFAST=   F  fast interpolation
   KINTER  =     0    interpolate to denser k-point grid
   CSHIFT  =0.1000    complex shift for real part using Kramers Kronig
   OMEGAMAX=  -1.0    maximum frequency
   DEG_THRESHOLD= 0.2000000E-02 threshold for treating states as degnerate
   RTIME   =    0.100 relaxation time in fs

 Orbital magnetization related:
   ORBITALMAG=     F  switch on orbital magnetization
   LCHIMAG   =     F  perturbation theory with respect to B field
   DQ        =  0.001000  dq finite difference perturbation B field



--------------------------------------------------------------------------------------------------------


 conjugate gradient relaxation of ions
 charge density and potential will be updated during run
 non-spin polarized calculation
 Variant of blocked Davidson
 Davidson routine will perform the subspace rotation
 perform sub-space diagonalisation
    after iterative eigenvector-optimisation
 modified Broyden-mixing scheme, WC =      100.0
 initial mixing is a Kerker type mixing with AMIX =  0.4000 and BMIX =      1.0000
 Hartree-type preconditioning will be used
 using additional bands            7
 reciprocal scheme for non local part
 calculate Harris-corrections to forces 
   (improved forces if not selfconsistent)
 use gradient corrections 
 use of overlap-Matrix (Vanderbilt PP)
 Fermi weights with tetrahedron method with Bloechl corrections


--------------------------------------------------------------------------------------------------------


  energy-cutoff  :      800.00
  volume of cell :      127.64
      direct lattice vectors                 reciprocal lattice vectors
     4.837314336  0.000000000  0.000000000     0.206726280  0.000000000  0.000000000
     0.000000000  6.416643024  0.000000000     0.000000000  0.155844730  0.000000000
     0.000000000  0.000000000  4.112214021     0.000000000  0.000000000  0.243178005

  length of vectors
     4.837314336  6.416643024  4.112214021     0.206726280  0.155844730  0.243178005


 
 k-points in units of 2pi/SCALE and weight: B4C B11C-CBC                            
   0.00000000  0.00000000  0.00000000       0.001
   0.01711157  0.00000000  0.00000000       0.002
   0.03422314  0.00000000  0.00000000       0.002
   0.05133470  0.00000000  0.00000000       0.002
   0.06844627  0.00000000  0.00000000       0.002
   0.08555784  0.00000000  0.00000000       0.002
   0.10266941  0.00000000  0.00000000       0.001
   0.00000000  0.01289990  0.00000000       0.002
   0.01711157  0.01289990  0.00000000       0.003
   0.03422314  0.01289990  0.00000000       0.003
   0.05133470  0.01289990  0.00000000       0.003
   0.06844627  0.01289990  0.00000000       0.003
   0.08555784  0.01289990  0.00000000       0.003
   0.10266941  0.01289990  0.00000000       0.002
   0.00000000  0.02579979  0.00000000       0.002
   0.01711157  0.02579979  0.00000000       0.003
   0.03422314  0.02579979  0.00000000       0.003
   0.05133470  0.02579979  0.00000000       0.003
   0.06844627  0.02579979  0.00000000       0.003
   0.08555784  0.02579979  0.00000000       0.003
   0.10266941  0.02579979  0.00000000       0.002
   0.00000000  0.03869969  0.00000000       0.002
   0.01711157  0.03869969  0.00000000       0.003
   0.03422314  0.03869969  0.00000000       0.003
   0.05133470  0.03869969  0.00000000       0.003
   0.06844627  0.03869969  0.00000000       0.003
   0.08555784  0.03869969  0.00000000       0.003
   0.10266941  0.03869969  0.00000000       0.002
   0.00000000  0.05159959  0.00000000       0.002
   0.01711157  0.05159959  0.00000000       0.003
   0.03422314  0.05159959  0.00000000       0.003
   0.05133470  0.05159959  0.00000000       0.003
   0.06844627  0.05159959  0.00000000       0.003
   0.08555784  0.05159959  0.00000000       0.003
   0.10266941  0.05159959  0.00000000       0.002
   0.00000000  0.06449948  0.00000000       0.002
   0.01711157  0.06449948  0.00000000       0.003
   0.03422314  0.06449948  0.00000000       0.003
   0.05133470  0.06449948  0.00000000       0.003
   0.06844627  0.06449948  0.00000000       0.003
   0.08555784  0.06449948  0.00000000       0.003
   0.10266941  0.06449948  0.00000000       0.002
   0.00000000  0.07739938  0.00000000       0.001
   0.01711157  0.07739938  0.00000000       0.002
   0.03422314  0.07739938  0.00000000       0.002
   0.05133470  0.07739938  0.00000000       0.002
   0.06844627  0.07739938  0.00000000       0.002
   0.08555784  0.07739938  0.00000000       0.002
   0.10266941  0.07739938  0.00000000       0.001
   0.00000000  0.00000000  0.03019324       0.002
   0.01711157  0.00000000  0.03019324       0.002
   0.03422314  0.00000000  0.03019324       0.002
   0.05133470  0.00000000  0.03019324       0.002
   0.06844627  0.00000000  0.03019324       0.002
   0.08555784  0.00000000  0.03019324       0.002
   0.10266941  0.00000000  0.03019324       0.002
  -0.08555784  0.00000000  0.03019324       0.002
  -0.06844627  0.00000000  0.03019324       0.002
  -0.05133470  0.00000000  0.03019324       0.002
  -0.03422314  0.00000000  0.03019324       0.002
  -0.01711157  0.00000000  0.03019324       0.002
   0.00000000  0.01289990  0.03019324       0.003
   0.01711157  0.01289990  0.03019324       0.003
   0.03422314  0.01289990  0.03019324       0.003
   0.05133470  0.01289990  0.03019324       0.003
   0.06844627  0.01289990  0.03019324       0.003
   0.08555784  0.01289990  0.03019324       0.003
   0.10266941  0.01289990  0.03019324       0.003
  -0.08555784  0.01289990  0.03019324       0.003
  -0.06844627  0.01289990  0.03019324       0.003
  -0.05133470  0.01289990  0.03019324       0.003
  -0.03422314  0.01289990  0.03019324       0.003
  -0.01711157  0.01289990  0.03019324       0.003
   0.00000000  0.02579979  0.03019324       0.003
   0.01711157  0.02579979  0.03019324       0.003
   0.03422314  0.02579979  0.03019324       0.003
   0.05133470  0.02579979  0.03019324       0.003
   0.06844627  0.02579979  0.03019324       0.003
   0.08555784  0.02579979  0.03019324       0.003
   0.10266941  0.02579979  0.03019324       0.003
  -0.08555784  0.02579979  0.03019324       0.003
  -0.06844627  0.02579979  0.03019324       0.003
  -0.05133470  0.02579979  0.03019324       0.003
  -0.03422314  0.02579979  0.03019324       0.003
  -0.01711157  0.02579979  0.03019324       0.003
   0.00000000  0.03869969  0.03019324       0.003
   0.01711157  0.03869969  0.03019324       0.003
   0.03422314  0.03869969  0.03019324       0.003
   0.05133470  0.03869969  0.03019324       0.003
   0.06844627  0.03869969  0.03019324       0.003
   0.08555784  0.03869969  0.03019324       0.003
   0.10266941  0.03869969  0.03019324       0.003
  -0.08555784  0.03869969  0.03019324       0.003
  -0.06844627  0.03869969  0.03019324       0.003
  -0.05133470  0.03869969  0.03019324       0.003
  -0.03422314  0.03869969  0.03019324       0.003
  -0.01711157  0.03869969  0.03019324       0.003
   0.00000000  0.05159959  0.03019324       0.003
   0.01711157  0.05159959  0.03019324       0.003
   0.03422314  0.05159959  0.03019324       0.003
   0.05133470  0.05159959  0.03019324       0.003
   0.06844627  0.05159959  0.03019324       0.003
   0.08555784  0.05159959  0.03019324       0.003
   0.10266941  0.05159959  0.03019324       0.003
  -0.08555784  0.05159959  0.03019324       0.003
  -0.06844627  0.05159959  0.03019324       0.003
  -0.05133470  0.05159959  0.03019324       0.003
  -0.03422314  0.05159959  0.03019324       0.003
  -0.01711157  0.05159959  0.03019324       0.003
   0.00000000  0.06449948  0.03019324       0.003
   0.01711157  0.06449948  0.03019324       0.003
   0.03422314  0.06449948  0.03019324       0.003
   0.05133470  0.06449948  0.03019324       0.003
   0.06844627  0.06449948  0.03019324       0.003
   0.08555784  0.06449948  0.03019324       0.003
   0.10266941  0.06449948  0.03019324       0.003
  -0.08555784  0.06449948  0.03019324       0.003
  -0.06844627  0.06449948  0.03019324       0.003
  -0.05133470  0.06449948  0.03019324       0.003
  -0.03422314  0.06449948  0.03019324       0.003
  -0.01711157  0.06449948  0.03019324       0.003
   0.00000000  0.07739938  0.03019324       0.002
   0.01711157  0.07739938  0.03019324       0.002
   0.03422314  0.07739938  0.03019324       0.002
   0.05133470  0.07739938  0.03019324       0.002
   0.06844627  0.07739938  0.03019324       0.002
   0.08555784  0.07739938  0.03019324       0.002
   0.10266941  0.07739938  0.03019324       0.002
  -0.08555784  0.07739938  0.03019324       0.002
  -0.06844627  0.07739938  0.03019324       0.002
  -0.05133470  0.07739938  0.03019324       0.002
  -0.03422314  0.07739938  0.03019324       0.002
  -0.01711157  0.07739938  0.03019324       0.002
   0.00000000  0.00000000  0.06038647       0.002
   0.01711157  0.00000000  0.06038647       0.002
   0.03422314  0.00000000  0.06038647       0.002
   0.05133470  0.00000000  0.06038647       0.002
   0.06844627  0.00000000  0.06038647       0.002
   0.08555784  0.00000000  0.06038647       0.002
   0.10266941  0.00000000  0.06038647       0.002
  -0.08555784  0.00000000  0.06038647       0.002
  -0.06844627  0.00000000  0.06038647       0.002
  -0.05133470  0.00000000  0.06038647       0.002
  -0.03422314  0.00000000  0.06038647       0.002
  -0.01711157  0.00000000  0.06038647       0.002
   0.00000000  0.01289990  0.06038647       0.003
   0.01711157  0.01289990  0.06038647       0.003
   0.03422314  0.01289990  0.06038647       0.003
   0.05133470  0.01289990  0.06038647       0.003
   0.06844627  0.01289990  0.06038647       0.003
   0.08555784  0.01289990  0.06038647       0.003
   0.10266941  0.01289990  0.06038647       0.003
  -0.08555784  0.01289990  0.06038647       0.003
  -0.06844627  0.01289990  0.06038647       0.003
  -0.05133470  0.01289990  0.06038647       0.003
  -0.03422314  0.01289990  0.06038647       0.003
  -0.01711157  0.01289990  0.06038647       0.003
   0.00000000  0.02579979  0.06038647       0.003
   0.01711157  0.02579979  0.06038647       0.003
   0.03422314  0.02579979  0.06038647       0.003
   0.05133470  0.02579979  0.06038647       0.003
   0.06844627  0.02579979  0.06038647       0.003
   0.08555784  0.02579979  0.06038647       0.003
   0.10266941  0.02579979  0.06038647       0.003
  -0.08555784  0.02579979  0.06038647       0.003
  -0.06844627  0.02579979  0.06038647       0.003
  -0.05133470  0.02579979  0.06038647       0.003
  -0.03422314  0.02579979  0.06038647       0.003
  -0.01711157  0.02579979  0.06038647       0.003
   0.00000000  0.03869969  0.06038647       0.003
   0.01711157  0.03869969  0.06038647       0.003
   0.03422314  0.03869969  0.06038647       0.003
   0.05133470  0.03869969  0.06038647       0.003
   0.06844627  0.03869969  0.06038647       0.003
   0.08555784  0.03869969  0.06038647       0.003
   0.10266941  0.03869969  0.06038647       0.003
  -0.08555784  0.03869969  0.06038647       0.003
  -0.06844627  0.03869969  0.06038647       0.003
  -0.05133470  0.03869969  0.06038647       0.003
  -0.03422314  0.03869969  0.06038647       0.003
  -0.01711157  0.03869969  0.06038647       0.003
   0.00000000  0.05159959  0.06038647       0.003
   0.01711157  0.05159959  0.06038647       0.003
   0.03422314  0.05159959  0.06038647       0.003
   0.05133470  0.05159959  0.06038647       0.003
   0.06844627  0.05159959  0.06038647       0.003
   0.08555784  0.05159959  0.06038647       0.003
   0.10266941  0.05159959  0.06038647       0.003
  -0.08555784  0.05159959  0.06038647       0.003
  -0.06844627  0.05159959  0.06038647       0.003
  -0.05133470  0.05159959  0.06038647       0.003
  -0.03422314  0.05159959  0.06038647       0.003
  -0.01711157  0.05159959  0.06038647       0.003
   0.00000000  0.06449948  0.06038647       0.003
   0.01711157  0.06449948  0.06038647       0.003
   0.03422314  0.06449948  0.06038647       0.003
   0.05133470  0.06449948  0.06038647       0.003
   0.06844627  0.06449948  0.06038647       0.003
   0.08555784  0.06449948  0.06038647       0.003
   0.10266941  0.06449948  0.06038647       0.003
  -0.08555784  0.06449948  0.06038647       0.003
  -0.06844627  0.06449948  0.06038647       0.003
  -0.05133470  0.06449948  0.06038647       0.003
  -0.03422314  0.06449948  0.06038647       0.003
  -0.01711157  0.06449948  0.06038647       0.003
   0.00000000  0.07739938  0.06038647       0.002
   0.01711157  0.07739938  0.06038647       0.002
   0.03422314  0.07739938  0.06038647       0.002
   0.05133470  0.07739938  0.06038647       0.002
   0.06844627  0.07739938  0.06038647       0.002
   0.08555784  0.07739938  0.06038647       0.002
   0.10266941  0.07739938  0.06038647       0.002
  -0.08555784  0.07739938  0.06038647       0.002
  -0.06844627  0.07739938  0.06038647       0.002
  -0.05133470  0.07739938  0.06038647       0.002
  -0.03422314  0.07739938  0.06038647       0.002
  -0.01711157  0.07739938  0.06038647       0.002
   0.00000000  0.00000000  0.09057971       0.002
   0.01711157  0.00000000  0.09057971       0.002
   0.03422314  0.00000000  0.09057971       0.002
   0.05133470  0.00000000  0.09057971       0.002
   0.06844627  0.00000000  0.09057971       0.002
   0.08555784  0.00000000  0.09057971       0.002
   0.10266941  0.00000000  0.09057971       0.002
  -0.08555784  0.00000000  0.09057971       0.002
  -0.06844627  0.00000000  0.09057971       0.002
  -0.05133470  0.00000000  0.09057971       0.002
  -0.03422314  0.00000000  0.09057971       0.002
  -0.01711157  0.00000000  0.09057971       0.002
   0.00000000  0.01289990  0.09057971       0.003
   0.01711157  0.01289990  0.09057971       0.003
   0.03422314  0.01289990  0.09057971       0.003
   0.05133470  0.01289990  0.09057971       0.003
   0.06844627  0.01289990  0.09057971       0.003
   0.08555784  0.01289990  0.09057971       0.003
   0.10266941  0.01289990  0.09057971       0.003
  -0.08555784  0.01289990  0.09057971       0.003
  -0.06844627  0.01289990  0.09057971       0.003
  -0.05133470  0.01289990  0.09057971       0.003
  -0.03422314  0.01289990  0.09057971       0.003
  -0.01711157  0.01289990  0.09057971       0.003
   0.00000000  0.02579979  0.09057971       0.003
   0.01711157  0.02579979  0.09057971       0.003
   0.03422314  0.02579979  0.09057971       0.003
   0.05133470  0.02579979  0.09057971       0.003
   0.06844627  0.02579979  0.09057971       0.003
   0.08555784  0.02579979  0.09057971       0.003
   0.10266941  0.02579979  0.09057971       0.003
  -0.08555784  0.02579979  0.09057971       0.003
  -0.06844627  0.02579979  0.09057971       0.003
  -0.05133470  0.02579979  0.09057971       0.003
  -0.03422314  0.02579979  0.09057971       0.003
  -0.01711157  0.02579979  0.09057971       0.003
   0.00000000  0.03869969  0.09057971       0.003
   0.01711157  0.03869969  0.09057971       0.003
   0.03422314  0.03869969  0.09057971       0.003
   0.05133470  0.03869969  0.09057971       0.003
   0.06844627  0.03869969  0.09057971       0.003
   0.08555784  0.03869969  0.09057971       0.003
   0.10266941  0.03869969  0.09057971       0.003
  -0.08555784  0.03869969  0.09057971       0.003
  -0.06844627  0.03869969  0.09057971       0.003
  -0.05133470  0.03869969  0.09057971       0.003
  -0.03422314  0.03869969  0.09057971       0.003
  -0.01711157  0.03869969  0.09057971       0.003
   0.00000000  0.05159959  0.09057971       0.003
   0.01711157  0.05159959  0.09057971       0.003
   0.03422314  0.05159959  0.09057971       0.003
   0.05133470  0.05159959  0.09057971       0.003
   0.06844627  0.05159959  0.09057971       0.003
   0.08555784  0.05159959  0.09057971       0.003
   0.10266941  0.05159959  0.09057971       0.003
  -0.08555784  0.05159959  0.09057971       0.003
  -0.06844627  0.05159959  0.09057971       0.003
  -0.05133470  0.05159959  0.09057971       0.003
  -0.03422314  0.05159959  0.09057971       0.003
  -0.01711157  0.05159959  0.09057971       0.003
   0.00000000  0.06449948  0.09057971       0.003
   0.01711157  0.06449948  0.09057971       0.003
   0.03422314  0.06449948  0.09057971       0.003
   0.05133470  0.06449948  0.09057971       0.003
   0.06844627  0.06449948  0.09057971       0.003
   0.08555784  0.06449948  0.09057971       0.003
   0.10266941  0.06449948  0.09057971       0.003
  -0.08555784  0.06449948  0.09057971       0.003
  -0.06844627  0.06449948  0.09057971       0.003
  -0.05133470  0.06449948  0.09057971       0.003
  -0.03422314  0.06449948  0.09057971       0.003
  -0.01711157  0.06449948  0.09057971       0.003
   0.00000000  0.07739938  0.09057971       0.002
   0.01711157  0.07739938  0.09057971       0.002
   0.03422314  0.07739938  0.09057971       0.002
   0.05133470  0.07739938  0.09057971       0.002
   0.06844627  0.07739938  0.09057971       0.002
   0.08555784  0.07739938  0.09057971       0.002
   0.10266941  0.07739938  0.09057971       0.002
  -0.08555784  0.07739938  0.09057971       0.002
  -0.06844627  0.07739938  0.09057971       0.002
  -0.05133470  0.07739938  0.09057971       0.002
  -0.03422314  0.07739938  0.09057971       0.002
  -0.01711157  0.07739938  0.09057971       0.002
   0.00000000  0.00000000  0.12077294       0.001
   0.01711157  0.00000000  0.12077294       0.002
   0.03422314  0.00000000  0.12077294       0.002
   0.05133470  0.00000000  0.12077294       0.002
   0.06844627  0.00000000  0.12077294       0.002
   0.08555784  0.00000000  0.12077294       0.002
   0.10266941  0.00000000  0.12077294       0.001
   0.00000000  0.01289990  0.12077294       0.002
   0.01711157  0.01289990  0.12077294       0.003
   0.03422314  0.01289990  0.12077294       0.003
   0.05133470  0.01289990  0.12077294       0.003
   0.06844627  0.01289990  0.12077294       0.003
   0.08555784  0.01289990  0.12077294       0.003
   0.10266941  0.01289990  0.12077294       0.002
   0.00000000  0.02579979  0.12077294       0.002
   0.01711157  0.02579979  0.12077294       0.003
   0.03422314  0.02579979  0.12077294       0.003
   0.05133470  0.02579979  0.12077294       0.003
   0.06844627  0.02579979  0.12077294       0.003
   0.08555784  0.02579979  0.12077294       0.003
   0.10266941  0.02579979  0.12077294       0.002
   0.00000000  0.03869969  0.12077294       0.002
   0.01711157  0.03869969  0.12077294       0.003
   0.03422314  0.03869969  0.12077294       0.003
   0.05133470  0.03869969  0.12077294       0.003
   0.06844627  0.03869969  0.12077294       0.003
   0.08555784  0.03869969  0.12077294       0.003
   0.10266941  0.03869969  0.12077294       0.002
   0.00000000  0.05159959  0.12077294       0.002
   0.01711157  0.05159959  0.12077294       0.003
   0.03422314  0.05159959  0.12077294       0.003
   0.05133470  0.05159959  0.12077294       0.003
   0.06844627  0.05159959  0.12077294       0.003
   0.08555784  0.05159959  0.12077294       0.003
   0.10266941  0.05159959  0.12077294       0.002
   0.00000000  0.06449948  0.12077294       0.002
   0.01711157  0.06449948  0.12077294       0.003
   0.03422314  0.06449948  0.12077294       0.003
   0.05133470  0.06449948  0.12077294       0.003
   0.06844627  0.06449948  0.12077294       0.003
   0.08555784  0.06449948  0.12077294       0.003
   0.10266941  0.06449948  0.12077294       0.002
   0.00000000  0.07739938  0.12077294       0.001
   0.01711157  0.07739938  0.12077294       0.002
   0.03422314  0.07739938  0.12077294       0.002
   0.05133470  0.07739938  0.12077294       0.002
   0.06844627  0.07739938  0.12077294       0.002
   0.08555784  0.07739938  0.12077294       0.002
   0.10266941  0.07739938  0.12077294       0.001
 
 k-points in reciprocal lattice and weights: B4C B11C-CBC                            
   0.00000000  0.00000000  0.00000000       0.001
   0.08333333  0.00000000  0.00000000       0.002
   0.16666667  0.00000000  0.00000000       0.002
   0.25000000  0.00000000  0.00000000       0.002
   0.33333333  0.00000000  0.00000000       0.002
   0.41666667  0.00000000  0.00000000       0.002
   0.50000000  0.00000000  0.00000000       0.001
   0.00000000  0.08333333  0.00000000       0.002
   0.08333333  0.08333333  0.00000000       0.003
   0.16666667  0.08333333  0.00000000       0.003
   0.25000000  0.08333333  0.00000000       0.003
   0.33333333  0.08333333  0.00000000       0.003
   0.41666667  0.08333333  0.00000000       0.003
   0.50000000  0.08333333  0.00000000       0.002
   0.00000000  0.16666667  0.00000000       0.002
   0.08333333  0.16666667  0.00000000       0.003
   0.16666667  0.16666667  0.00000000       0.003
   0.25000000  0.16666667  0.00000000       0.003
   0.33333333  0.16666667  0.00000000       0.003
   0.41666667  0.16666667  0.00000000       0.003
   0.50000000  0.16666667  0.00000000       0.002
   0.00000000  0.25000000  0.00000000       0.002
   0.08333333  0.25000000  0.00000000       0.003
   0.16666667  0.25000000  0.00000000       0.003
   0.25000000  0.25000000  0.00000000       0.003
   0.33333333  0.25000000  0.00000000       0.003
   0.41666667  0.25000000  0.00000000       0.003
   0.50000000  0.25000000  0.00000000       0.002
   0.00000000  0.33333333  0.00000000       0.002
   0.08333333  0.33333333  0.00000000       0.003
   0.16666667  0.33333333  0.00000000       0.003
   0.25000000  0.33333333  0.00000000       0.003
   0.33333333  0.33333333  0.00000000       0.003
   0.41666667  0.33333333  0.00000000       0.003
   0.50000000  0.33333333  0.00000000       0.002
   0.00000000  0.41666667  0.00000000       0.002
   0.08333333  0.41666667  0.00000000       0.003
   0.16666667  0.41666667  0.00000000       0.003
   0.25000000  0.41666667  0.00000000       0.003
   0.33333333  0.41666667  0.00000000       0.003
   0.41666667  0.41666667  0.00000000       0.003
   0.50000000  0.41666667  0.00000000       0.002
   0.00000000  0.50000000  0.00000000       0.001
   0.08333333  0.50000000  0.00000000       0.002
   0.16666667  0.50000000  0.00000000       0.002
   0.25000000  0.50000000  0.00000000       0.002
   0.33333333  0.50000000  0.00000000       0.002
   0.41666667  0.50000000  0.00000000       0.002
   0.50000000  0.50000000  0.00000000       0.001
   0.00000000  0.00000000  0.12500000       0.002
   0.08333333  0.00000000  0.12500000       0.002
   0.16666667  0.00000000  0.12500000       0.002
   0.25000000  0.00000000  0.12500000       0.002
   0.33333333  0.00000000  0.12500000       0.002
   0.41666667  0.00000000  0.12500000       0.002
   0.50000000  0.00000000  0.12500000       0.002
  -0.41666667  0.00000000  0.12500000       0.002
  -0.33333333  0.00000000  0.12500000       0.002
  -0.25000000  0.00000000  0.12500000       0.002
  -0.16666667  0.00000000  0.12500000       0.002
  -0.08333333  0.00000000  0.12500000       0.002
   0.00000000  0.08333333  0.12500000       0.003
   0.08333333  0.08333333  0.12500000       0.003
   0.16666667  0.08333333  0.12500000       0.003
   0.25000000  0.08333333  0.12500000       0.003
   0.33333333  0.08333333  0.12500000       0.003
   0.41666667  0.08333333  0.12500000       0.003
   0.50000000  0.08333333  0.12500000       0.003
  -0.41666667  0.08333333  0.12500000       0.003
  -0.33333333  0.08333333  0.12500000       0.003
  -0.25000000  0.08333333  0.12500000       0.003
  -0.16666667  0.08333333  0.12500000       0.003
  -0.08333333  0.08333333  0.12500000       0.003
   0.00000000  0.16666667  0.12500000       0.003
   0.08333333  0.16666667  0.12500000       0.003
   0.16666667  0.16666667  0.12500000       0.003
   0.25000000  0.16666667  0.12500000       0.003
   0.33333333  0.16666667  0.12500000       0.003
   0.41666667  0.16666667  0.12500000       0.003
   0.50000000  0.16666667  0.12500000       0.003
  -0.41666667  0.16666667  0.12500000       0.003
  -0.33333333  0.16666667  0.12500000       0.003
  -0.25000000  0.16666667  0.12500000       0.003
  -0.16666667  0.16666667  0.12500000       0.003
  -0.08333333  0.16666667  0.12500000       0.003
   0.00000000  0.25000000  0.12500000       0.003
   0.08333333  0.25000000  0.12500000       0.003
   0.16666667  0.25000000  0.12500000       0.003
   0.25000000  0.25000000  0.12500000       0.003
   0.33333333  0.25000000  0.12500000       0.003
   0.41666667  0.25000000  0.12500000       0.003
   0.50000000  0.25000000  0.12500000       0.003
  -0.41666667  0.25000000  0.12500000       0.003
  -0.33333333  0.25000000  0.12500000       0.003
  -0.25000000  0.25000000  0.12500000       0.003
  -0.16666667  0.25000000  0.12500000       0.003
  -0.08333333  0.25000000  0.12500000       0.003
   0.00000000  0.33333333  0.12500000       0.003
   0.08333333  0.33333333  0.12500000       0.003
   0.16666667  0.33333333  0.12500000       0.003
   0.25000000  0.33333333  0.12500000       0.003
   0.33333333  0.33333333  0.12500000       0.003
   0.41666667  0.33333333  0.12500000       0.003
   0.50000000  0.33333333  0.12500000       0.003
  -0.41666667  0.33333333  0.12500000       0.003
  -0.33333333  0.33333333  0.12500000       0.003
  -0.25000000  0.33333333  0.12500000       0.003
  -0.16666667  0.33333333  0.12500000       0.003
  -0.08333333  0.33333333  0.12500000       0.003
   0.00000000  0.41666667  0.12500000       0.003
   0.08333333  0.41666667  0.12500000       0.003
   0.16666667  0.41666667  0.12500000       0.003
   0.25000000  0.41666667  0.12500000       0.003
   0.33333333  0.41666667  0.12500000       0.003
   0.41666667  0.41666667  0.12500000       0.003
   0.50000000  0.41666667  0.12500000       0.003
  -0.41666667  0.41666667  0.12500000       0.003
  -0.33333333  0.41666667  0.12500000       0.003
  -0.25000000  0.41666667  0.12500000       0.003
  -0.16666667  0.41666667  0.12500000       0.003
  -0.08333333  0.41666667  0.12500000       0.003
   0.00000000  0.50000000  0.12500000       0.002
   0.08333333  0.50000000  0.12500000       0.002
   0.16666667  0.50000000  0.12500000       0.002
   0.25000000  0.50000000  0.12500000       0.002
   0.33333333  0.50000000  0.12500000       0.002
   0.41666667  0.50000000  0.12500000       0.002
   0.50000000  0.50000000  0.12500000       0.002
  -0.41666667  0.50000000  0.12500000       0.002
  -0.33333333  0.50000000  0.12500000       0.002
  -0.25000000  0.50000000  0.12500000       0.002
  -0.16666667  0.50000000  0.12500000       0.002
  -0.08333333  0.50000000  0.12500000       0.002
   0.00000000  0.00000000  0.25000000       0.002
   0.08333333  0.00000000  0.25000000       0.002
   0.16666667  0.00000000  0.25000000       0.002
   0.25000000  0.00000000  0.25000000       0.002
   0.33333333  0.00000000  0.25000000       0.002
   0.41666667  0.00000000  0.25000000       0.002
   0.50000000  0.00000000  0.25000000       0.002
  -0.41666667  0.00000000  0.25000000       0.002
  -0.33333333  0.00000000  0.25000000       0.002
  -0.25000000  0.00000000  0.25000000       0.002
  -0.16666667  0.00000000  0.25000000       0.002
  -0.08333333  0.00000000  0.25000000       0.002
   0.00000000  0.08333333  0.25000000       0.003
   0.08333333  0.08333333  0.25000000       0.003
   0.16666667  0.08333333  0.25000000       0.003
   0.25000000  0.08333333  0.25000000       0.003
   0.33333333  0.08333333  0.25000000       0.003
   0.41666667  0.08333333  0.25000000       0.003
   0.50000000  0.08333333  0.25000000       0.003
  -0.41666667  0.08333333  0.25000000       0.003
  -0.33333333  0.08333333  0.25000000       0.003
  -0.25000000  0.08333333  0.25000000       0.003
  -0.16666667  0.08333333  0.25000000       0.003
  -0.08333333  0.08333333  0.25000000       0.003
   0.00000000  0.16666667  0.25000000       0.003
   0.08333333  0.16666667  0.25000000       0.003
   0.16666667  0.16666667  0.25000000       0.003
   0.25000000  0.16666667  0.25000000       0.003
   0.33333333  0.16666667  0.25000000       0.003
   0.41666667  0.16666667  0.25000000       0.003
   0.50000000  0.16666667  0.25000000       0.003
  -0.41666667  0.16666667  0.25000000       0.003
  -0.33333333  0.16666667  0.25000000       0.003
  -0.25000000  0.16666667  0.25000000       0.003
  -0.16666667  0.16666667  0.25000000       0.003
  -0.08333333  0.16666667  0.25000000       0.003
   0.00000000  0.25000000  0.25000000       0.003
   0.08333333  0.25000000  0.25000000       0.003
   0.16666667  0.25000000  0.25000000       0.003
   0.25000000  0.25000000  0.25000000       0.003
   0.33333333  0.25000000  0.25000000       0.003
   0.41666667  0.25000000  0.25000000       0.003
   0.50000000  0.25000000  0.25000000       0.003
  -0.41666667  0.25000000  0.25000000       0.003
  -0.33333333  0.25000000  0.25000000       0.003
  -0.25000000  0.25000000  0.25000000       0.003
  -0.16666667  0.25000000  0.25000000       0.003
  -0.08333333  0.25000000  0.25000000       0.003
   0.00000000  0.33333333  0.25000000       0.003
   0.08333333  0.33333333  0.25000000       0.003
   0.16666667  0.33333333  0.25000000       0.003
   0.25000000  0.33333333  0.25000000       0.003
   0.33333333  0.33333333  0.25000000       0.003
   0.41666667  0.33333333  0.25000000       0.003
   0.50000000  0.33333333  0.25000000       0.003
  -0.41666667  0.33333333  0.25000000       0.003
  -0.33333333  0.33333333  0.25000000       0.003
  -0.25000000  0.33333333  0.25000000       0.003
  -0.16666667  0.33333333  0.25000000       0.003
  -0.08333333  0.33333333  0.25000000       0.003
   0.00000000  0.41666667  0.25000000       0.003
   0.08333333  0.41666667  0.25000000       0.003
   0.16666667  0.41666667  0.25000000       0.003
   0.25000000  0.41666667  0.25000000       0.003
   0.33333333  0.41666667  0.25000000       0.003
   0.41666667  0.41666667  0.25000000       0.003
   0.50000000  0.41666667  0.25000000       0.003
  -0.41666667  0.41666667  0.25000000       0.003
  -0.33333333  0.41666667  0.25000000       0.003
  -0.25000000  0.41666667  0.25000000       0.003
  -0.16666667  0.41666667  0.25000000       0.003
  -0.08333333  0.41666667  0.25000000       0.003
   0.00000000  0.50000000  0.25000000       0.002
   0.08333333  0.50000000  0.25000000       0.002
   0.16666667  0.50000000  0.25000000       0.002
   0.25000000  0.50000000  0.25000000       0.002
   0.33333333  0.50000000  0.25000000       0.002
   0.41666667  0.50000000  0.25000000       0.002
   0.50000000  0.50000000  0.25000000       0.002
  -0.41666667  0.50000000  0.25000000       0.002
  -0.33333333  0.50000000  0.25000000       0.002
  -0.25000000  0.50000000  0.25000000       0.002
  -0.16666667  0.50000000  0.25000000       0.002
  -0.08333333  0.50000000  0.25000000       0.002
   0.00000000  0.00000000  0.37500000       0.002
   0.08333333  0.00000000  0.37500000       0.002
   0.16666667  0.00000000  0.37500000       0.002
   0.25000000  0.00000000  0.37500000       0.002
   0.33333333  0.00000000  0.37500000       0.002
   0.41666667  0.00000000  0.37500000       0.002
   0.50000000  0.00000000  0.37500000       0.002
  -0.41666667  0.00000000  0.37500000       0.002
  -0.33333333  0.00000000  0.37500000       0.002
  -0.25000000  0.00000000  0.37500000       0.002
  -0.16666667  0.00000000  0.37500000       0.002
  -0.08333333  0.00000000  0.37500000       0.002
   0.00000000  0.08333333  0.37500000       0.003
   0.08333333  0.08333333  0.37500000       0.003
   0.16666667  0.08333333  0.37500000       0.003
   0.25000000  0.08333333  0.37500000       0.003
   0.33333333  0.08333333  0.37500000       0.003
   0.41666667  0.08333333  0.37500000       0.003
   0.50000000  0.08333333  0.37500000       0.003
  -0.41666667  0.08333333  0.37500000       0.003
  -0.33333333  0.08333333  0.37500000       0.003
  -0.25000000  0.08333333  0.37500000       0.003
  -0.16666667  0.08333333  0.37500000       0.003
  -0.08333333  0.08333333  0.37500000       0.003
   0.00000000  0.16666667  0.37500000       0.003
   0.08333333  0.16666667  0.37500000       0.003
   0.16666667  0.16666667  0.37500000       0.003
   0.25000000  0.16666667  0.37500000       0.003
   0.33333333  0.16666667  0.37500000       0.003
   0.41666667  0.16666667  0.37500000       0.003
   0.50000000  0.16666667  0.37500000       0.003
  -0.41666667  0.16666667  0.37500000       0.003
  -0.33333333  0.16666667  0.37500000       0.003
  -0.25000000  0.16666667  0.37500000       0.003
  -0.16666667  0.16666667  0.37500000       0.003
  -0.08333333  0.16666667  0.37500000       0.003
   0.00000000  0.25000000  0.37500000       0.003
   0.08333333  0.25000000  0.37500000       0.003
   0.16666667  0.25000000  0.37500000       0.003
[...]
  band No.  band energies     occupation 
      1     -15.5088      2.00000
      2     -15.5088      2.00000
      3     -10.8420      2.00000
      4     -10.8420      2.00000
      5      -8.4168      2.00000
      6      -8.4168      2.00000
      7      -6.9511      2.00000
      8      -6.9511      2.00000
      9      -5.2588      2.00000
     10      -5.2588      2.00000
     11      -3.5354      2.00000
     12      -3.5354      2.00000
     13       1.8134      0.00000
     14       1.8134      0.00000
     15       4.4073      0.00000
     16       4.4073      0.00000
     17       5.2913      0.00000
     18       5.2913      0.00000
     19       7.2502      0.00000

 k-point   338 :       0.0833    0.4167    0.5000
  band No.  band energies     occupation 
      1     -15.5065      2.00000
      2     -15.5053      2.00000
      3     -10.8587      2.00000
      4     -10.8453      2.00000
      5      -8.4201      2.00000
      6      -8.4065      2.00000
      7      -6.9486      2.00000
      8      -6.9268      2.00000
      9      -5.2980      2.00000
     10      -5.2630      2.00000
     11      -3.5569      2.00000
     12      -3.5190      2.00000
     13       1.8444      0.00000
     14       1.8527      0.00000
     15       4.3516      0.00000
     16       4.4437      0.00000
     17       5.2750      0.00000
     18       5.4571      0.00000
     19       7.1717      0.00000

 k-point   339 :       0.1667    0.4167    0.5000
  band No.  band energies     occupation 
      1     -15.4992      2.00000
      2     -15.4969      2.00000
      3     -10.8919      2.00000
      4     -10.8665      2.00000
      5      -8.4148      2.00000
      6      -8.3911      2.00000
      7      -6.9216      2.00000
      8      -6.8817      2.00000
      9      -5.3714      2.00000
     10      -5.3074      2.00000
     11      -3.5802      2.00000
     12      -3.5116      2.00000
     13       1.9409      0.00000
     14       1.9553      0.00000
     15       4.3258      0.00000
     16       4.4353      0.00000
     17       5.4360      0.00000
     18       5.7027      0.00000
     19       6.9942      0.00000

 k-point   340 :       0.2500    0.4167    0.5000
  band No.  band energies     occupation 
      1     -15.4889      2.00000
      2     -15.4855      2.00000
      3     -10.9340      2.00000
      4     -10.8989      2.00000
      5      -8.4007      2.00000
      6      -8.3729      2.00000
      7      -6.8795      2.00000
      8      -6.8268      2.00000
      9      -5.4612      2.00000
     10      -5.3773      2.00000
     11      -3.6032      2.00000
     12      -3.5147      2.00000
     13       2.0845      0.00000
     14       2.1014      0.00000
     15       4.3512      0.00000
     16       4.4220      0.00000
     17       5.7149      0.00000
     18       5.9458      0.00000
     19       6.6763      0.00000

 k-point   341 :       0.3333    0.4167    0.5000
  band No.  band energies     occupation 
      1     -15.4783      2.00000
      2     -15.4741      2.00000
      3     -10.9746      2.00000
      4     -10.9326      2.00000
      5      -8.3816      2.00000
      6      -8.3553      2.00000
      7      -6.8353      2.00000
      8      -6.7756      2.00000
      9      -5.5462      2.00000
     10      -5.4510      2.00000
     11      -3.6235      2.00000
     12      -3.5250      2.00000
     13       2.2417      0.00000
     14       2.2574      0.00000
     15       4.4062      0.00000
     16       4.4577      0.00000
     17       5.9656      0.00000
     18       6.0079      0.00000
     19       6.3792      0.00000

 k-point   342 :       0.4167    0.4167    0.5000
  band No.  band energies     occupation 
      1     -15.4705      2.00000
      2     -15.4658      2.00000
      3     -11.0038      2.00000
      4     -10.9577      2.00000
      5      -8.3642      2.00000
      6      -8.3429      2.00000
      7      -6.8023      2.00000
      8      -6.7395      2.00000
      9      -5.6068      2.00000
     10      -5.5063      2.00000
     11      -3.6380      2.00000
     12      -3.5357      2.00000
     13       2.3670      0.00000
     14       2.3783      0.00000
     15       4.4408      0.00000
     16       4.5611      0.00000
     17       5.8345      0.00000
     18       5.8637      0.00000
     19       6.5173      0.00000

 k-point   343 :       0.5000    0.4167    0.5000
  band No.  band energies     occupation 
      1     -15.4676      2.00000
      2     -15.4627      2.00000
      3     -11.0144      2.00000
      4     -10.9670      2.00000
      5      -8.3569      2.00000
      6      -8.3387      2.00000
      7      -6.7901      2.00000
      8      -6.7266      2.00000
      9      -5.6286      2.00000
     10      -5.5268      2.00000
     11      -3.6432      2.00000
     12      -3.5402      2.00000
     13       2.4159      0.00000
     14       2.4235      0.00000
     15       4.4572      0.00000
     16       4.6206      0.00000
     17       5.7446      0.00000
     18       5.7563      0.00000
     19       6.6898      0.00000

 k-point   344 :       0.0000    0.5000    0.5000
  band No.  band energies     occupation 
      1     -15.5086      2.00000
      2     -15.5086      2.00000
      3     -10.8431      2.00000
      4     -10.8431      2.00000
      5      -8.4148      2.00000
      6      -8.4148      2.00000
      7      -6.9536      2.00000
      8      -6.9536      2.00000
      9      -5.2554      2.00000
     10      -5.2554      2.00000
     11      -3.5382      2.00000
     12      -3.5382      2.00000
     13       1.8184      0.00000
     14       1.8184      0.00000
     15       4.4205      0.00000
     16       4.4205      0.00000
     17       5.3032      0.00000
     18       5.3032      0.00000
     19       7.2110      0.00000

 k-point   345 :       0.0833    0.5000    0.5000
  band No.  band energies     occupation 
      1     -15.5058      2.00000
      2     -15.5058      2.00000
      3     -10.8530      2.00000
      4     -10.8530      2.00000
      5      -8.4117      2.00000
      6      -8.4117      2.00000
      7      -6.9398      2.00000
      8      -6.9398      2.00000
      9      -5.2779      2.00000
     10      -5.2779      2.00000
     11      -3.5397      2.00000
     12      -3.5397      2.00000
     13       1.8541      0.00000
     14       1.8541      0.00000
     15       4.4021      0.00000
     16       4.4021      0.00000
     17       5.3843      0.00000
     18       5.3843      0.00000
     19       7.1971      0.00000

 k-point   346 :       0.1667    0.5000    0.5000
  band No.  band energies     occupation 
      1     -15.4979      2.00000
      2     -15.4979      2.00000
      3     -10.8800      2.00000
      4     -10.8800      2.00000
      5      -8.4023      2.00000
      6      -8.4023      2.00000
      7      -6.9026      2.00000
      8      -6.9026      2.00000
      9      -5.3389      2.00000
     10      -5.3389      2.00000
     11      -3.5450      2.00000
     12      -3.5450      2.00000
     13       1.9552      0.00000
     14       1.9552      0.00000
     15       4.3728      0.00000
     16       4.3728      0.00000
     17       5.5948      0.00000
     18       5.5948      0.00000
     19       7.0325      0.00000

 k-point   347 :       0.2500    0.5000    0.5000
  band No.  band energies     occupation 
      1     -15.4871      2.00000
      2     -15.4871      2.00000
      3     -10.9169      2.00000
      4     -10.9169      2.00000
      5      -8.3874      2.00000
      6      -8.3874      2.00000
      7      -6.8528      2.00000
      8      -6.8528      2.00000
      9      -5.4213      2.00000
     10      -5.4213      2.00000
     11      -3.5547      2.00000
     12      -3.5547      2.00000
     13       2.1021      0.00000
     14       2.1021      0.00000
     15       4.3702      0.00000
     16       4.3702      0.00000
     17       5.8637      0.00000
     18       5.8637      0.00000
     19       6.6813      0.00000

 k-point   348 :       0.3333    0.5000    0.5000
  band No.  band energies     occupation 
      1     -15.4761      2.00000
      2     -15.4761      2.00000
      3     -10.9538      2.00000
      4     -10.9538      2.00000
      5      -8.3700      2.00000
      6      -8.3700      2.00000
      7      -6.8038      2.00000
      8      -6.8038      2.00000
      9      -5.5029      2.00000
     10      -5.5029      2.00000
     11      -3.5671      2.00000
     12      -3.5671      2.00000
     13       2.2607      0.00000
     14       2.2607      0.00000
     15       4.4084      0.00000
     16       4.4084      0.00000
     17       5.9960      0.00000
     18       5.9960      0.00000
     19       6.4896      0.00000

 k-point   349 :       0.4167    0.5000    0.5000
  band No.  band energies     occupation 
      1     -15.4681      2.00000
      2     -15.4681      2.00000
      3     -10.9808      2.00000
      4     -10.9808      2.00000
      5      -8.3558      2.00000
      6      -8.3558      2.00000
      7      -6.7684      2.00000
      8      -6.7684      2.00000
      9      -5.5624      2.00000
     10      -5.5624      2.00000
     11      -3.5776      2.00000
     12      -3.5776      2.00000
     13       2.3852      0.00000
     14       2.3852      0.00000
     15       4.4712      0.00000
     16       4.4712      0.00000
     17       5.8197      0.00000
     18       5.8197      0.00000
     19       6.6771      0.00000

 k-point   350 :       0.5000    0.5000    0.5000
  band No.  band energies     occupation 
      1     -15.4651      2.00000
      2     -15.4651      2.00000
      3     -10.9907      2.00000
      4     -10.9907      2.00000
      5      -8.3502      2.00000
      6      -8.3502      2.00000
      7      -6.7556      2.00000
      8      -6.7556      2.00000
      9      -5.5841      2.00000
     10      -5.5841      2.00000
     11      -3.5817      2.00000
     12      -3.5817      2.00000
     13       2.4327      0.00000
     14       2.4327      0.00000
     15       4.5056      0.00000
     16       4.5056      0.00000
     17       5.7198      0.00000
     18       5.7198      0.00000
     19       6.8090      0.00000


--------------------------------------------------------------------------------------------------------


 soft charge-density along one line, spin component           1
         0         1         2         3         4         5         6         7         8         9
 total charge-density along one line
 
 pseudopotential strength for first ion, spin component:           1
 10.056   0.014  -0.001   0.000   0.001   0.001  -0.000  -0.001
  0.014  -0.002  -0.000   0.000   0.000   0.000  -0.000  -0.000
 -0.001  -0.000  -4.191   0.000   0.003  -0.015  -0.001   0.002
  0.000   0.000   0.000  -4.191  -0.001  -0.001  -0.015  -0.001
  0.001   0.000   0.003  -0.001  -4.194   0.002  -0.001  -0.016
  0.001   0.000  -0.015  -0.001   0.002  -0.769   0.000  -0.000
 -0.000  -0.000  -0.001  -0.015  -0.001   0.000  -0.769   0.000
 -0.001  -0.000   0.002  -0.001  -0.016  -0.000   0.000  -0.769
 total augmentation occupancy for first ion, spin component:           1
  1.492  -1.099  -0.023   0.011   0.038  -0.015   0.006   0.023
 -1.099   0.894   0.065  -0.025  -0.101   0.027  -0.011  -0.043
 -0.023   0.065   1.067   0.085  -0.160   0.161   0.029  -0.058
  0.011  -0.025   0.085   1.109   0.098   0.029   0.175   0.035
  0.038  -0.101  -0.160   0.098   1.153  -0.058   0.035   0.193
 -0.015   0.027   0.161   0.029  -0.058   0.027   0.006  -0.015
  0.006  -0.011   0.029   0.175   0.035   0.006   0.029   0.009
  0.023  -0.043  -0.058   0.035   0.193  -0.015   0.009   0.036


------------------------ aborting loop because EDIFF is reached ----------------------------------------


    CHARGE:  cpu time   23.11: real time  138.70
    FORLOC:  cpu time    0.20: real time    1.20
    FORNL :  cpu time   75.42: real time  452.62
    STRESS:  cpu time   93.42: real time  560.64
    FORHAR:  cpu time    0.39: real time    2.32
    MIXING:  cpu time    0.04: real time    0.24
    OFIELD:  cpu time    0.00: real time    0.00

 ---------------------------------------------------------------------------------------------

         DFTD3 V3.0 Rev 1        
 Edisp (eV)   -0.56144

 E6    (eV) :    -0.4337
 E8    (eV) :    -0.1277
 % E8        : 22.75
    FORVDW:  cpu time    0.09: real time    0.54

  FORCE on cell =-STRESS in cart. coord.  units (eV):
  Direction    XX          YY          ZZ          XY          YZ          ZX
  --------------------------------------------------------------------------------------
  Alpha Z    18.98518    18.98518    18.98518
  Ewald     -43.25151  -149.96496  -112.46773     0.00001    -0.00000   112.37860
  Hartree   133.48097    98.31968   105.64353     0.00000     0.00000    34.59344
  E(xc)     -82.53175   -82.91554   -82.52908     0.00000    -0.00000     0.56950
  Local    -313.03965  -177.72483  -213.05098    -0.00001    -0.00000  -135.58708
  n-local   -35.88119   -35.59448   -36.79390    -0.00985     0.01435    -1.02077
  augment    -0.39269    -0.36226    -0.41910    -0.00000     0.00000    -0.06042
  Kinetic   322.69393   329.50715   320.94039     0.03075    -0.05034   -10.91480
  Fock        0.00000     0.00000     0.00000     0.00000     0.00000     0.00000
  vdW        -0.64149    -0.66598    -0.67264    -0.00000     0.00000     0.01649
  -------------------------------------------------------------------------------------
  Total      -0.57820    -0.41605    -0.36432     0.00000     0.00000    -0.02504
  in kB      -7.25771    -5.22237    -4.57309     0.00000     0.00000    -0.31433
  external pressure =       -5.68 kB  Pullay stress =        0.00 kB


 VOLUME and BASIS-vectors are now :
 -----------------------------------------------------------------------------
  energy-cutoff  :      800.00
  volume of cell :      127.64
      direct lattice vectors                 reciprocal lattice vectors
     4.837314336  0.000000000  0.000000000     0.206726280  0.000000000  0.000000000
     0.000000000  6.416643024  0.000000000     0.000000000  0.155844730  0.000000000
     0.000000000  0.000000000  4.112214021     0.000000000  0.000000000  0.243178005

  length of vectors
     4.837314336  6.416643024  4.112214021     0.206726280  0.155844730  0.243178005


 FORCES acting on ions
    electron-ion (+dipol)            ewald-force                    non-local-force                 convergence-correction
 -----------------------------------------------------------------------------------------------
   0.644E+02 -.401E+02 0.162E+02   -.650E+02 0.406E+02 -.162E+02   0.631E+00 -.476E+00 0.750E-01   -.814E-04 0.532E-04 -.185E-04
   -.644E+02 0.401E+02 -.162E+02   0.650E+02 -.406E+02 0.162E+02   -.631E+00 0.476E+00 -.750E-01   0.814E-04 -.532E-04 0.185E-04
   -.644E+02 -.401E+02 -.162E+02   0.650E+02 0.406E+02 0.162E+02   -.631E+00 -.476E+00 -.750E-01   0.814E-04 0.532E-04 0.185E-04
   0.644E+02 0.401E+02 0.162E+02   -.650E+02 -.406E+02 -.162E+02   0.631E+00 0.476E+00 0.750E-01   -.814E-04 -.532E-04 -.185E-04
   0.181E+02 -.324E+02 -.248E+02   -.201E+02 0.365E+02 0.283E+02   0.204E+01 -.411E+01 -.345E+01   -.981E-05 0.129E-04 0.609E-05
   -.181E+02 0.324E+02 0.248E+02   0.201E+02 -.365E+02 -.283E+02   -.204E+01 0.411E+01 0.345E+01   0.981E-05 -.129E-04 -.609E-05
   -.181E+02 -.324E+02 0.248E+02   0.201E+02 0.365E+02 -.283E+02   -.204E+01 -.411E+01 0.345E+01   0.981E-05 0.129E-04 -.609E-05
   0.181E+02 0.324E+02 -.248E+02   -.201E+02 -.365E+02 0.283E+02   0.204E+01 0.411E+01 -.345E+01   -.981E-05 -.129E-04 0.609E-05
   0.271E+02 0.517E+01 0.369E+02   -.301E+02 -.613E+01 -.417E+02   0.297E+01 0.952E+00 0.481E+01   -.150E-04 0.869E-06 -.139E-04
   -.271E+02 -.517E+01 -.369E+02   0.301E+02 0.613E+01 0.417E+02   -.297E+01 -.952E+00 -.481E+01   0.150E-04 -.869E-06 0.139E-04
   -.271E+02 0.517E+01 -.369E+02   0.301E+02 -.613E+01 0.417E+02   -.297E+01 0.952E+00 -.481E+01   0.150E-04 0.869E-06 0.139E-04
   0.271E+02 -.517E+01 0.369E+02   -.301E+02 0.613E+01 -.417E+02   0.297E+01 -.952E+00 0.481E+01   -.150E-04 -.869E-06 -.139E-04
 -----------------------------------------------------------------------------------------------
   -.195E-04 -.524E-04 0.593E-04   0.142E-13 -.107E-13 0.000E+00   0.000E+00 0.222E-15 0.000E+00   -.401E-10 0.145E-10 -.142E-10
 
 
 POSITION                                       TOTAL-FORCE (eV/Angst)
 -----------------------------------------------------------------------------------
      4.28731      0.34837      3.96505        -0.019080      0.008225     -0.009655
      0.55000      6.06828      0.14716         0.019080     -0.008225      0.009655
      2.96866      3.55669      2.20327         0.019080      0.008225      0.009655
      1.86865      2.85995      1.90894        -0.019080     -0.008225     -0.009655
      3.90062      1.13176      0.51024         0.037597     -0.039927     -0.005266
      0.93670      5.28488      3.60198        -0.037597      0.039927      0.005266
      3.35535      4.34008      1.54587        -0.037597     -0.039927      0.005266
      1.48196      2.07656      2.56634         0.037597      0.039927     -0.005266
      3.72049      0.16675      3.04931         0.026139     -0.009606      0.016142
      1.11683      6.24989      1.06290        -0.026139      0.009606     -0.016142
      3.53548      3.37507      3.11901        -0.026139     -0.009606     -0.016142
      1.30183      3.04157      0.99320         0.026139      0.009606      0.016142
 -----------------------------------------------------------------------------------
    total drift:                               -0.000020     -0.000052      0.000059


--------------------------------------------------------------------------------------------------------



  FREE ENERGIE OF THE ION-ELECTRON SYSTEM (eV)
  ---------------------------------------------------
  free  energy   TOTEN  =       -64.62371569 eV

  energy  without entropy=      -64.62371569  energy(sigma->0) =      -64.62371569
 
 d Force = 0.8613439E-04[-0.208E-05, 0.174E-03]  d Energy = 0.8744075E-04-0.131E-05
 d Force = 0.1013600E+00[ 0.101E+00, 0.102E+00]  d Ewald  = 0.1013600E+00 0.463E-07


--------------------------------------------------------------------------------------------------------


    POTLOK:  cpu time    1.20: real time    7.21


--------------------------------------------------------------------------------------------------------




--------------------------------------------------------------------------------------------------------


  
 reached required accuracy - stopping structural energy minimisation
     LOOP+:  cpu time 2412.24: real time14476.12
    4ORBIT:  cpu time    0.00: real time    0.00
 BZINTS: Fermi energy: -3.204930; 24.000000 electrons
         Band energy:-201.483314;  BLOECHL correction:  0.000000

 total amount of memory used by VASP on root node  1125619. kBytes
========================================================================

   base      :      30000. kBytes
   nonl-proj :     296767. kBytes
   fftplans  :      32156. kBytes
   grid      :      57185. kBytes
   one-center:         36. kBytes
   wavefun   :     709475. kBytes
 
  
  
 General timing and accounting informations for this job:
 ========================================================
  
                  Total CPU time used (sec):    39753.113
                            User time (sec):    38118.151
                          System time (sec):     1634.961
                         Elapsed time (sec):   211930.903
  
                   Maximum memory used (kb):     1214164.
                   Average memory used (kb):           0.
  
                          Minor page faults:    222710919
                          Major page faults:           37
                 Voluntary context switches:         2672
