 vasp.5.3.5 31Mar14 (build Nov 02 2014 15:17:37) complex                        
  
 executed on        ion-Intel-MKL date 2017.03.11  20:06:34
 running on    1 total cores
 distrk:  each k-point on    1 cores,    1 groups
 distr:  one band on NCORES_PER_BAND=   1 cores,    1 groups


--------------------------------------------------------------------------------------------------------


 INCAR:
 POTCAR:   PAW_PBE C 08Apr2002                    
 POTCAR:   PAW_PBE H 15Jun2001                    
 POTCAR:   PAW_PBE C 08Apr2002                    
   VRHFIN =C: s2p2                                                              
   LEXCH  = PE                                                                  
   EATOM  =   147.1560 eV,   10.8157 Ry                                         
                                                                                
   TITEL  = PAW_PBE C 08Apr2002                                                 
   LULTRA =        F    use ultrasoft PP ?                                      
   IUNSCR =        0    unscreen: 0-lin 1-nonlin 2-no                           
   RPACOR =     .000    partial core radius                                     
   POMASS =   12.011; ZVAL   =    4.000    mass and valenz                      
   RCORE  =    1.500    outmost cutoff radius                                   
   RWIGS  =    1.630; RWIGS  =     .863    wigner-seitz radius (au A)           
   ENMAX  =  400.000; ENMIN  =  300.000 eV                                      
   ICORE  =        2    local potential                                         
   LCOR   =        T    correct aug charges                                     
   LPAW   =        T    paw PP                                                  
   EAUG   =  644.873                                                            
   DEXC   =     .000                                                            
   RMAX   =    2.266    core radius for proj-oper                               
   RAUG   =    1.300    factor for augmentation sphere                          
   RDEP   =    1.501    radius for radial grids                                 
   RDEPT  =    1.300    core radius for aug-charge                              
   QCUT   =   -5.516; QGAM   =   11.032    optimization parameters              
                                                                                
   Description                                                                  
     l     E      TYP  RCUT    TYP  RCUT                                        
     0   .000     23  1.200                                                     
     0   .000     23  1.200                                                     
     1   .000     23  1.500                                                     
     1  2.500     23  1.500                                                     
     2   .000      7  1.500                                                     
  local pseudopotential read in
  atomic valenz-charges read in
  non local Contribution for L=           0  read in
    real space projection operators read in
  non local Contribution for L=           0  read in
    real space projection operators read in
  non local Contribution for L=           1  read in
    real space projection operators read in
  non local Contribution for L=           1  read in
    real space projection operators read in
    PAW grid and wavefunctions read in
 
   number of l-projection  operators is LMAX  =           4
   number of lm-projection operators is LMMAX =           8
 
 POTCAR:   PAW_PBE H 15Jun2001                    
   VRHFIN =H: ultrasoft test                                                    
   LEXCH  = PE                                                                  
   EATOM  =    12.4884 eV,     .9179 Ry                                         
                                                                                
   TITEL  = PAW_PBE H 15Jun2001                                                 
   LULTRA =        F    use ultrasoft PP ?                                      
   IUNSCR =        0    unscreen: 0-lin 1-nonlin 2-no                           
   RPACOR =     .000    partial core radius                                     
   POMASS =    1.000; ZVAL   =    1.000    mass and valenz                      
   RCORE  =    1.100    outmost cutoff radius                                   
   RWIGS  =     .700; RWIGS  =     .370    wigner-seitz radius (au A)           
   ENMAX  =  250.000; ENMIN  =  200.000 eV                                      
   RCLOC  =     .701    cutoff for local pot                                    
   LCOR   =        T    correct aug charges                                     
   LPAW   =        T    paw PP                                                  
   EAUG   =  400.000                                                            
   RMAX   =    2.174    core radius for proj-oper                               
   RAUG   =    1.200    factor for augmentation sphere                          
   RDEP   =    1.112    radius for radial grids                                 
   QCUT   =   -5.749; QGAM   =   11.498    optimization parameters              
                                                                                
   Description                                                                  
     l     E      TYP  RCUT    TYP  RCUT                                        
     0   .000     23  1.100                                                     
     0   .500     23  1.100                                                     
     1  -.300     23  1.100                                                     
  local pseudopotential read in
  atomic valenz-charges read in
  non local Contribution for L=           0  read in
    real space projection operators read in
  non local Contribution for L=           0  read in
    real space projection operators read in
  non local Contribution for L=           1  read in
    real space projection operators read in
    PAW grid and wavefunctions read in
 
   number of l-projection  operators is LMAX  =           3
   number of lm-projection operators is LMMAX =           5
 
 PAW_PBE C 08Apr2002                    :
 energy of atom  1       EATOM= -147.1560
 kinetic energy error for atom=    0.0016 (will be added to EATOM!!)
 PAW_PBE H 15Jun2001                    :
 energy of atom  2       EATOM=  -12.4884
 kinetic energy error for atom=    0.0002 (will be added to EATOM!!)
 
 
 POSCAR: C2 H4                                   
  positions in direct lattice
  No initial velocities read in
 exchange correlation table for  LEXCH =        8
   RHO(1)=    0.500       N(1)  =     2000
   RHO(2)=  100.500       N(2)  =     4000
 


--------------------------------------------------------------------------------------------------------


 ion  position               nearest neighbor table
   1  0.883  0.054  0.959-   5 1.05   9 1.13   2 1.36
   2  0.117  0.946  0.041-   6 1.05  10 1.13   1 1.36
   3  0.617  0.554  0.541-   7 1.05  11 1.13   4 1.36
   4  0.383  0.446  0.459-   8 1.05  12 1.13   3 1.36
   5  0.813  0.170  0.119-   1 1.05
   6  0.187  0.830  0.882-   2 1.05
   7  0.687  0.670  0.382-   3 1.05
   8  0.313  0.330  0.618-   4 1.05
   9  0.757  0.029  0.731-   1 1.13
  10  0.243  0.971  0.269-   2 1.13
  11  0.743  0.529  0.769-   3 1.13
  12  0.257  0.471  0.231-   4 1.13
 
  LATTYP: Found a simple orthorhombic cell.
 ALAT       =     4.1122140211
 B/A-ratio  =     1.1763284477
 C/A-ratio  =     1.5603864467
  
  Lattice vectors:
  
 A1 = (   0.0000000000,   0.0000000000,   4.1122140211)
 A2 = (  -4.8373143359,   0.0000000000,   0.0000000000)
 A3 = (   0.0000000000,  -6.4166430243,   0.0000000000)


Analysis of symmetry for initial positions (statically):
=====================================================================
 Subroutine PRICEL returns:
 Original cell was already a primitive cell.
 

 Routine SETGRP: Setting up the symmetry group for a 
 simple orthorhombic supercell.


 Subroutine GETGRP returns: Found  4 space group operations
 (whereof  2 operations were pure point group operations)
 out of a pool of  8 trial point group operations.


The static configuration has the point symmetry S_2 .
 The point group associated with its full space group is C_2h.


Analysis of symmetry for dynamics (positions and initial velocities):
=====================================================================
 Subroutine PRICEL returns:
 Original cell was already a primitive cell.
 

 Routine SETGRP: Setting up the symmetry group for a 
 simple orthorhombic supercell.


 Subroutine GETGRP returns: Found  4 space group operations
 (whereof  2 operations were pure point group operations)
 out of a pool of  8 trial point group operations.


The dynamic configuration has the point symmetry S_2 .
 The point group associated with its full space group is C_2h.
 
 
 KPOINTS: B4C B11C-CBC                            

Automatic generation of k-mesh.
Space group operators:
 irot       det(A)        alpha          n_x          n_y          n_z        tau_x        tau_y        tau_z
    1     1.000000     0.000001     1.000000     0.000000     0.000000     0.000000     0.000000     0.000000
    2    -1.000000     0.000001     1.000000     0.000000     0.000000     0.000000     0.000000     0.000000
    3     1.000000   180.000000     0.000000     1.000000     0.000000    -0.500000    -0.500000     0.500000
    4    -1.000000   180.000000     0.000000     1.000000     0.000000    -0.500000    -0.500000     0.500000
 
 Subroutine IBZKPT returns following result:
 ===========================================
 
 Found    350 irreducible k-points:
 
 Following reciprocal coordinates:
            Coordinates               Weight
  0.000000  0.000000  0.000000      1.000000
  0.083333  0.000000  0.000000      2.000000
  0.166667  0.000000  0.000000      2.000000
  0.250000  0.000000  0.000000      2.000000
  0.333333  0.000000  0.000000      2.000000
  0.416667  0.000000  0.000000      2.000000
  0.500000  0.000000  0.000000      1.000000
  0.000000  0.083333  0.000000      2.000000
  0.083333  0.083333  0.000000      4.000000
  0.166667  0.083333  0.000000      4.000000
  0.250000  0.083333  0.000000      4.000000
  0.333333  0.083333  0.000000      4.000000
  0.416667  0.083333  0.000000      4.000000
  0.500000  0.083333  0.000000      2.000000
  0.000000  0.166667  0.000000      2.000000
  0.083333  0.166667  0.000000      4.000000
  0.166667  0.166667  0.000000      4.000000
  0.250000  0.166667  0.000000      4.000000
  0.333333  0.166667  0.000000      4.000000
  0.416667  0.166667  0.000000      4.000000
  0.500000  0.166667  0.000000      2.000000
  0.000000  0.250000  0.000000      2.000000
  0.083333  0.250000  0.000000      4.000000
  0.166667  0.250000  0.000000      4.000000
  0.250000  0.250000  0.000000      4.000000
  0.333333  0.250000  0.000000      4.000000
  0.416667  0.250000  0.000000      4.000000
  0.500000  0.250000  0.000000      2.000000
  0.000000  0.333333  0.000000      2.000000
  0.083333  0.333333  0.000000      4.000000
  0.166667  0.333333  0.000000      4.000000
  0.250000  0.333333  0.000000      4.000000
  0.333333  0.333333  0.000000      4.000000
  0.416667  0.333333  0.000000      4.000000
  0.500000  0.333333  0.000000      2.000000
  0.000000  0.416667  0.000000      2.000000
  0.083333  0.416667  0.000000      4.000000
  0.166667  0.416667  0.000000      4.000000
  0.250000  0.416667  0.000000      4.000000
  0.333333  0.416667  0.000000      4.000000
  0.416667  0.416667  0.000000      4.000000
  0.500000  0.416667  0.000000      2.000000
  0.000000  0.500000  0.000000      1.000000
  0.083333  0.500000  0.000000      2.000000
  0.166667  0.500000  0.000000      2.000000
  0.250000  0.500000  0.000000      2.000000
  0.333333  0.500000  0.000000      2.000000
  0.416667  0.500000  0.000000      2.000000
  0.500000  0.500000  0.000000      1.000000
  0.000000  0.000000  0.125000      2.000000
  0.083333  0.000000  0.125000      2.000000
  0.166667  0.000000  0.125000      2.000000
  0.250000  0.000000  0.125000      2.000000
  0.333333  0.000000  0.125000      2.000000
  0.416667  0.000000  0.125000      2.000000
  0.500000  0.000000  0.125000      2.000000
 -0.416667  0.000000  0.125000      2.000000
 -0.333333  0.000000  0.125000      2.000000
 -0.250000  0.000000  0.125000      2.000000
 -0.166667  0.000000  0.125000      2.000000
 -0.083333  0.000000  0.125000      2.000000
  0.000000  0.083333  0.125000      4.000000
  0.083333  0.083333  0.125000      4.000000
  0.166667  0.083333  0.125000      4.000000
  0.250000  0.083333  0.125000      4.000000
  0.333333  0.083333  0.125000      4.000000
  0.416667  0.083333  0.125000      4.000000
  0.500000  0.083333  0.125000      4.000000
 -0.416667  0.083333  0.125000      4.000000
 -0.333333  0.083333  0.125000      4.000000
 -0.250000  0.083333  0.125000      4.000000
 -0.166667  0.083333  0.125000      4.000000
 -0.083333  0.083333  0.125000      4.000000
  0.000000  0.166667  0.125000      4.000000
  0.083333  0.166667  0.125000      4.000000
  0.166667  0.166667  0.125000      4.000000
  0.250000  0.166667  0.125000      4.000000
  0.333333  0.166667  0.125000      4.000000
  0.416667  0.166667  0.125000      4.000000
  0.500000  0.166667  0.125000      4.000000
 -0.416667  0.166667  0.125000      4.000000
 -0.333333  0.166667  0.125000      4.000000
 -0.250000  0.166667  0.125000      4.000000
 -0.166667  0.166667  0.125000      4.000000
 -0.083333  0.166667  0.125000      4.000000
  0.000000  0.250000  0.125000      4.000000
  0.083333  0.250000  0.125000      4.000000
  0.166667  0.250000  0.125000      4.000000
  0.250000  0.250000  0.125000      4.000000
  0.333333  0.250000  0.125000      4.000000
  0.416667  0.250000  0.125000      4.000000
  0.500000  0.250000  0.125000      4.000000
 -0.416667  0.250000  0.125000      4.000000
 -0.333333  0.250000  0.125000      4.000000
 -0.250000  0.250000  0.125000      4.000000
 -0.166667  0.250000  0.125000      4.000000
 -0.083333  0.250000  0.125000      4.000000
  0.000000  0.333333  0.125000      4.000000
  0.083333  0.333333  0.125000      4.000000
  0.166667  0.333333  0.125000      4.000000
  0.250000  0.333333  0.125000      4.000000
  0.333333  0.333333  0.125000      4.000000
  0.416667  0.333333  0.125000      4.000000
  0.500000  0.333333  0.125000      4.000000
 -0.416667  0.333333  0.125000      4.000000
 -0.333333  0.333333  0.125000      4.000000
 -0.250000  0.333333  0.125000      4.000000
 -0.166667  0.333333  0.125000      4.000000
 -0.083333  0.333333  0.125000      4.000000
  0.000000  0.416667  0.125000      4.000000
  0.083333  0.416667  0.125000      4.000000
  0.166667  0.416667  0.125000      4.000000
  0.250000  0.416667  0.125000      4.000000
  0.333333  0.416667  0.125000      4.000000
  0.416667  0.416667  0.125000      4.000000
  0.500000  0.416667  0.125000      4.000000
 -0.416667  0.416667  0.125000      4.000000
 -0.333333  0.416667  0.125000      4.000000
 -0.250000  0.416667  0.125000      4.000000
 -0.166667  0.416667  0.125000      4.000000
 -0.083333  0.416667  0.125000      4.000000
  0.000000  0.500000  0.125000      2.000000
  0.083333  0.500000  0.125000      2.000000
  0.166667  0.500000  0.125000      2.000000
  0.250000  0.500000  0.125000      2.000000
  0.333333  0.500000  0.125000      2.000000
  0.416667  0.500000  0.125000      2.000000
  0.500000  0.500000  0.125000      2.000000
 -0.416667  0.500000  0.125000      2.000000
 -0.333333  0.500000  0.125000      2.000000
 -0.250000  0.500000  0.125000      2.000000
 -0.166667  0.500000  0.125000      2.000000
 -0.083333  0.500000  0.125000      2.000000
  0.000000  0.000000  0.250000      2.000000
  0.083333  0.000000  0.250000      2.000000
  0.166667  0.000000  0.250000      2.000000
  0.250000  0.000000  0.250000      2.000000
  0.333333  0.000000  0.250000      2.000000
  0.416667  0.000000  0.250000      2.000000
  0.500000  0.000000  0.250000      2.000000
 -0.416667  0.000000  0.250000      2.000000
 -0.333333  0.000000  0.250000      2.000000
 -0.250000  0.000000  0.250000      2.000000
 -0.166667  0.000000  0.250000      2.000000
 -0.083333  0.000000  0.250000      2.000000
  0.000000  0.083333  0.250000      4.000000
  0.083333  0.083333  0.250000      4.000000
  0.166667  0.083333  0.250000      4.000000
  0.250000  0.083333  0.250000      4.000000
  0.333333  0.083333  0.250000      4.000000
  0.416667  0.083333  0.250000      4.000000
  0.500000  0.083333  0.250000      4.000000
 -0.416667  0.083333  0.250000      4.000000
 -0.333333  0.083333  0.250000      4.000000
 -0.250000  0.083333  0.250000      4.000000
 -0.166667  0.083333  0.250000      4.000000
 -0.083333  0.083333  0.250000      4.000000
  0.000000  0.166667  0.250000      4.000000
  0.083333  0.166667  0.250000      4.000000
  0.166667  0.166667  0.250000      4.000000
  0.250000  0.166667  0.250000      4.000000
  0.333333  0.166667  0.250000      4.000000
  0.416667  0.166667  0.250000      4.000000
  0.500000  0.166667  0.250000      4.000000
 -0.416667  0.166667  0.250000      4.000000
 -0.333333  0.166667  0.250000      4.000000
 -0.250000  0.166667  0.250000      4.000000
 -0.166667  0.166667  0.250000      4.000000
 -0.083333  0.166667  0.250000      4.000000
  0.000000  0.250000  0.250000      4.000000
  0.083333  0.250000  0.250000      4.000000
  0.166667  0.250000  0.250000      4.000000
  0.250000  0.250000  0.250000      4.000000
  0.333333  0.250000  0.250000      4.000000
  0.416667  0.250000  0.250000      4.000000
  0.500000  0.250000  0.250000      4.000000
 -0.416667  0.250000  0.250000      4.000000
 -0.333333  0.250000  0.250000      4.000000
 -0.250000  0.250000  0.250000      4.000000
 -0.166667  0.250000  0.250000      4.000000
 -0.083333  0.250000  0.250000      4.000000
  0.000000  0.333333  0.250000      4.000000
  0.083333  0.333333  0.250000      4.000000
  0.166667  0.333333  0.250000      4.000000
  0.250000  0.333333  0.250000      4.000000
  0.333333  0.333333  0.250000      4.000000
  0.416667  0.333333  0.250000      4.000000
  0.500000  0.333333  0.250000      4.000000
 -0.416667  0.333333  0.250000      4.000000
 -0.333333  0.333333  0.250000      4.000000
 -0.250000  0.333333  0.250000      4.000000
 -0.166667  0.333333  0.250000      4.000000
 -0.083333  0.333333  0.250000      4.000000
  0.000000  0.416667  0.250000      4.000000
  0.083333  0.416667  0.250000      4.000000
  0.166667  0.416667  0.250000      4.000000
  0.250000  0.416667  0.250000      4.000000
  0.333333  0.416667  0.250000      4.000000
  0.416667  0.416667  0.250000      4.000000
  0.500000  0.416667  0.250000      4.000000
 -0.416667  0.416667  0.250000      4.000000
 -0.333333  0.416667  0.250000      4.000000
 -0.250000  0.416667  0.250000      4.000000
 -0.166667  0.416667  0.250000      4.000000
 -0.083333  0.416667  0.250000      4.000000
  0.000000  0.500000  0.250000      2.000000
  0.083333  0.500000  0.250000      2.000000
  0.166667  0.500000  0.250000      2.000000
  0.250000  0.500000  0.250000      2.000000
  0.333333  0.500000  0.250000      2.000000
  0.416667  0.500000  0.250000      2.000000
  0.500000  0.500000  0.250000      2.000000
 -0.416667  0.500000  0.250000      2.000000
 -0.333333  0.500000  0.250000      2.000000
 -0.250000  0.500000  0.250000      2.000000
 -0.166667  0.500000  0.250000      2.000000
 -0.083333  0.500000  0.250000      2.000000
  0.000000  0.000000  0.375000      2.000000
  0.083333  0.000000  0.375000      2.000000
  0.166667  0.000000  0.375000      2.000000
  0.250000  0.000000  0.375000      2.000000
  0.333333  0.000000  0.375000      2.000000
  0.416667  0.000000  0.375000      2.000000
  0.500000  0.000000  0.375000      2.000000
 -0.416667  0.000000  0.375000      2.000000
 -0.333333  0.000000  0.375000      2.000000
 -0.250000  0.000000  0.375000      2.000000
 -0.166667  0.000000  0.375000      2.000000
 -0.083333  0.000000  0.375000      2.000000
  0.000000  0.083333  0.375000      4.000000
  0.083333  0.083333  0.375000      4.000000
  0.166667  0.083333  0.375000      4.000000
  0.250000  0.083333  0.375000      4.000000
  0.333333  0.083333  0.375000      4.000000
  0.416667  0.083333  0.375000      4.000000
  0.500000  0.083333  0.375000      4.000000
 -0.416667  0.083333  0.375000      4.000000
 -0.333333  0.083333  0.375000      4.000000
 -0.250000  0.083333  0.375000      4.000000
 -0.166667  0.083333  0.375000      4.000000
 -0.083333  0.083333  0.375000      4.000000
  0.000000  0.166667  0.375000      4.000000
  0.083333  0.166667  0.375000      4.000000
  0.166667  0.166667  0.375000      4.000000
  0.250000  0.166667  0.375000      4.000000
  0.333333  0.166667  0.375000      4.000000
  0.416667  0.166667  0.375000      4.000000
  0.500000  0.166667  0.375000      4.000000
 -0.416667  0.166667  0.375000      4.000000
 -0.333333  0.166667  0.375000      4.000000
 -0.250000  0.166667  0.375000      4.000000
 -0.166667  0.166667  0.375000      4.000000
 -0.083333  0.166667  0.375000      4.000000
  0.000000  0.250000  0.375000      4.000000
  0.083333  0.250000  0.375000      4.000000
  0.166667  0.250000  0.375000      4.000000
  0.250000  0.250000  0.375000      4.000000
  0.333333  0.250000  0.375000      4.000000
  0.416667  0.250000  0.375000      4.000000
  0.500000  0.250000  0.375000      4.000000
 -0.416667  0.250000  0.375000      4.000000
 -0.333333  0.250000  0.375000      4.000000
 -0.250000  0.250000  0.375000      4.000000
 -0.166667  0.250000  0.375000      4.000000
 -0.083333  0.250000  0.375000      4.000000
  0.000000  0.333333  0.375000      4.000000
  0.083333  0.333333  0.375000      4.000000
  0.166667  0.333333  0.375000      4.000000
  0.250000  0.333333  0.375000      4.000000
  0.333333  0.333333  0.375000      4.000000
  0.416667  0.333333  0.375000      4.000000
  0.500000  0.333333  0.375000      4.000000
 -0.416667  0.333333  0.375000      4.000000
 -0.333333  0.333333  0.375000      4.000000
 -0.250000  0.333333  0.375000      4.000000
 -0.166667  0.333333  0.375000      4.000000
 -0.083333  0.333333  0.375000      4.000000
  0.000000  0.416667  0.375000      4.000000
  0.083333  0.416667  0.375000      4.000000
  0.166667  0.416667  0.375000      4.000000
  0.250000  0.416667  0.375000      4.000000
  0.333333  0.416667  0.375000      4.000000
  0.416667  0.416667  0.375000      4.000000
  0.500000  0.416667  0.375000      4.000000
 -0.416667  0.416667  0.375000      4.000000
 -0.333333  0.416667  0.375000      4.000000
 -0.250000  0.416667  0.375000      4.000000
 -0.166667  0.416667  0.375000      4.000000
 -0.083333  0.416667  0.375000      4.000000
  0.000000  0.500000  0.375000      2.000000
  0.083333  0.500000  0.375000      2.000000
  0.166667  0.500000  0.375000      2.000000
  0.250000  0.500000  0.375000      2.000000
  0.333333  0.500000  0.375000      2.000000
  0.416667  0.500000  0.375000      2.000000
  0.500000  0.500000  0.375000      2.000000
 -0.416667  0.500000  0.375000      2.000000
 -0.333333  0.500000  0.375000      2.000000
 -0.250000  0.500000  0.375000      2.000000
 -0.166667  0.500000  0.375000      2.000000
 -0.083333  0.500000  0.375000      2.000000
  0.000000  0.000000  0.500000      1.000000
  0.083333  0.000000  0.500000      2.000000
  0.166667  0.000000  0.500000      2.000000
  0.250000  0.000000  0.500000      2.000000
  0.333333  0.000000  0.500000      2.000000
  0.416667  0.000000  0.500000      2.000000
  0.500000  0.000000  0.500000      1.000000
  0.000000  0.083333  0.500000      2.000000
  0.083333  0.083333  0.500000      4.000000
  0.166667  0.083333  0.500000      4.000000
  0.250000  0.083333  0.500000      4.000000
  0.333333  0.083333  0.500000      4.000000
  0.416667  0.083333  0.500000      4.000000
  0.500000  0.083333  0.500000      2.000000
  0.000000  0.166667  0.500000      2.000000
  0.083333  0.166667  0.500000      4.000000
  0.166667  0.166667  0.500000      4.000000
  0.250000  0.166667  0.500000      4.000000
  0.333333  0.166667  0.500000      4.000000
  0.416667  0.166667  0.500000      4.000000
  0.500000  0.166667  0.500000      2.000000
  0.000000  0.250000  0.500000      2.000000
  0.083333  0.250000  0.500000      4.000000
  0.166667  0.250000  0.500000      4.000000
  0.250000  0.250000  0.500000      4.000000
  0.333333  0.250000  0.500000      4.000000
  0.416667  0.250000  0.500000      4.000000
  0.500000  0.250000  0.500000      2.000000
  0.000000  0.333333  0.500000      2.000000
  0.083333  0.333333  0.500000      4.000000
  0.166667  0.333333  0.500000      4.000000
  0.250000  0.333333  0.500000      4.000000
  0.333333  0.333333  0.500000      4.000000
  0.416667  0.333333  0.500000      4.000000
  0.500000  0.333333  0.500000      2.000000
  0.000000  0.416667  0.500000      2.000000
  0.083333  0.416667  0.500000      4.000000
  0.166667  0.416667  0.500000      4.000000
  0.250000  0.416667  0.500000      4.000000
  0.333333  0.416667  0.500000      4.000000
  0.416667  0.416667  0.500000      4.000000
  0.500000  0.416667  0.500000      2.000000
  0.000000  0.500000  0.500000      1.000000
  0.083333  0.500000  0.500000      2.000000
  0.166667  0.500000  0.500000      2.000000
  0.250000  0.500000  0.500000      2.000000
  0.333333  0.500000  0.500000      2.000000
  0.416667  0.500000  0.500000      2.000000
  0.500000  0.500000  0.500000      1.000000
 
 Following cartesian coordinates:
            Coordinates               Weight
  0.000000  0.000000  0.000000      1.000000
  0.017112  0.000000  0.000000      2.000000
  0.034223  0.000000  0.000000      2.000000
  0.051335  0.000000  0.000000      2.000000
  0.068446  0.000000  0.000000      2.000000
  0.085558  0.000000  0.000000      2.000000
  0.102669  0.000000  0.000000      1.000000
  0.000000  0.012900  0.000000      2.000000
  0.017112  0.012900  0.000000      4.000000
  0.034223  0.012900  0.000000      4.000000
  0.051335  0.012900  0.000000      4.000000
  0.068446  0.012900  0.000000      4.000000
  0.085558  0.012900  0.000000      4.000000
  0.102669  0.012900  0.000000      2.000000
  0.000000  0.025800  0.000000      2.000000
  0.017112  0.025800  0.000000      4.000000
  0.034223  0.025800  0.000000      4.000000
  0.051335  0.025800  0.000000      4.000000
  0.068446  0.025800  0.000000      4.000000
  0.085558  0.025800  0.000000      4.000000
  0.102669  0.025800  0.000000      2.000000
  0.000000  0.038700  0.000000      2.000000
  0.017112  0.038700  0.000000      4.000000
  0.034223  0.038700  0.000000      4.000000
  0.051335  0.038700  0.000000      4.000000
  0.068446  0.038700  0.000000      4.000000
  0.085558  0.038700  0.000000      4.000000
  0.102669  0.038700  0.000000      2.000000
  0.000000  0.051600  0.000000      2.000000
  0.017112  0.051600  0.000000      4.000000
  0.034223  0.051600  0.000000      4.000000
  0.051335  0.051600  0.000000      4.000000
  0.068446  0.051600  0.000000      4.000000
  0.085558  0.051600  0.000000      4.000000
  0.102669  0.051600  0.000000      2.000000
  0.000000  0.064499  0.000000      2.000000
  0.017112  0.064499  0.000000      4.000000
  0.034223  0.064499  0.000000      4.000000
  0.051335  0.064499  0.000000      4.000000
  0.068446  0.064499  0.000000      4.000000
  0.085558  0.064499  0.000000      4.000000
  0.102669  0.064499  0.000000      2.000000
  0.000000  0.077399  0.000000      1.000000
  0.017112  0.077399  0.000000      2.000000
  0.034223  0.077399  0.000000      2.000000
  0.051335  0.077399  0.000000      2.000000
  0.068446  0.077399  0.000000      2.000000
  0.085558  0.077399  0.000000      2.000000
  0.102669  0.077399  0.000000      1.000000
  0.000000  0.000000  0.030193      2.000000
  0.017112  0.000000  0.030193      2.000000
  0.034223  0.000000  0.030193      2.000000
  0.051335  0.000000  0.030193      2.000000
  0.068446  0.000000  0.030193      2.000000
  0.085558  0.000000  0.030193      2.000000
  0.102669  0.000000  0.030193      2.000000
 -0.085558  0.000000  0.030193      2.000000
 -0.068446  0.000000  0.030193      2.000000
 -0.051335  0.000000  0.030193      2.000000
 -0.034223  0.000000  0.030193      2.000000
 -0.017112  0.000000  0.030193      2.000000
  0.000000  0.012900  0.030193      4.000000
  0.017112  0.012900  0.030193      4.000000
  0.034223  0.012900  0.030193      4.000000
  0.051335  0.012900  0.030193      4.000000
  0.068446  0.012900  0.030193      4.000000
  0.085558  0.012900  0.030193      4.000000
  0.102669  0.012900  0.030193      4.000000
 -0.085558  0.012900  0.030193      4.000000
 -0.068446  0.012900  0.030193      4.000000
 -0.051335  0.012900  0.030193      4.000000
 -0.034223  0.012900  0.030193      4.000000
 -0.017112  0.012900  0.030193      4.000000
  0.000000  0.025800  0.030193      4.000000
  0.017112  0.025800  0.030193      4.000000
  0.034223  0.025800  0.030193      4.000000
  0.051335  0.025800  0.030193      4.000000
  0.068446  0.025800  0.030193      4.000000
  0.085558  0.025800  0.030193      4.000000
  0.102669  0.025800  0.030193      4.000000
 -0.085558  0.025800  0.030193      4.000000
 -0.068446  0.025800  0.030193      4.000000
 -0.051335  0.025800  0.030193      4.000000
 -0.034223  0.025800  0.030193      4.000000
 -0.017112  0.025800  0.030193      4.000000
  0.000000  0.038700  0.030193      4.000000
  0.017112  0.038700  0.030193      4.000000
  0.034223  0.038700  0.030193      4.000000
  0.051335  0.038700  0.030193      4.000000
  0.068446  0.038700  0.030193      4.000000
  0.085558  0.038700  0.030193      4.000000
  0.102669  0.038700  0.030193      4.000000
 -0.085558  0.038700  0.030193      4.000000
 -0.068446  0.038700  0.030193      4.000000
 -0.051335  0.038700  0.030193      4.000000
 -0.034223  0.038700  0.030193      4.000000
 -0.017112  0.038700  0.030193      4.000000
  0.000000  0.051600  0.030193      4.000000
  0.017112  0.051600  0.030193      4.000000
  0.034223  0.051600  0.030193      4.000000
  0.051335  0.051600  0.030193      4.000000
  0.068446  0.051600  0.030193      4.000000
  0.085558  0.051600  0.030193      4.000000
  0.102669  0.051600  0.030193      4.000000
 -0.085558  0.051600  0.030193      4.000000
 -0.068446  0.051600  0.030193      4.000000
 -0.051335  0.051600  0.030193      4.000000
 -0.034223  0.051600  0.030193      4.000000
 -0.017112  0.051600  0.030193      4.000000
  0.000000  0.064499  0.030193      4.000000
  0.017112  0.064499  0.030193      4.000000
  0.034223  0.064499  0.030193      4.000000
  0.051335  0.064499  0.030193      4.000000
  0.068446  0.064499  0.030193      4.000000
  0.085558  0.064499  0.030193      4.000000
  0.102669  0.064499  0.030193      4.000000
 -0.085558  0.064499  0.030193      4.000000
 -0.068446  0.064499  0.030193      4.000000
 -0.051335  0.064499  0.030193      4.000000
 -0.034223  0.064499  0.030193      4.000000
 -0.017112  0.064499  0.030193      4.000000
  0.000000  0.077399  0.030193      2.000000
  0.017112  0.077399  0.030193      2.000000
  0.034223  0.077399  0.030193      2.000000
  0.051335  0.077399  0.030193      2.000000
  0.068446  0.077399  0.030193      2.000000
  0.085558  0.077399  0.030193      2.000000
  0.102669  0.077399  0.030193      2.000000
 -0.085558  0.077399  0.030193      2.000000
 -0.068446  0.077399  0.030193      2.000000
 -0.051335  0.077399  0.030193      2.000000
 -0.034223  0.077399  0.030193      2.000000
 -0.017112  0.077399  0.030193      2.000000
  0.000000  0.000000  0.060386      2.000000
  0.017112  0.000000  0.060386      2.000000
  0.034223  0.000000  0.060386      2.000000
  0.051335  0.000000  0.060386      2.000000
  0.068446  0.000000  0.060386      2.000000
  0.085558  0.000000  0.060386      2.000000
  0.102669  0.000000  0.060386      2.000000
 -0.085558  0.000000  0.060386      2.000000
 -0.068446  0.000000  0.060386      2.000000
 -0.051335  0.000000  0.060386      2.000000
 -0.034223  0.000000  0.060386      2.000000
 -0.017112  0.000000  0.060386      2.000000
  0.000000  0.012900  0.060386      4.000000
  0.017112  0.012900  0.060386      4.000000
  0.034223  0.012900  0.060386      4.000000
  0.051335  0.012900  0.060386      4.000000
  0.068446  0.012900  0.060386      4.000000
  0.085558  0.012900  0.060386      4.000000
  0.102669  0.012900  0.060386      4.000000
 -0.085558  0.012900  0.060386      4.000000
 -0.068446  0.012900  0.060386      4.000000
 -0.051335  0.012900  0.060386      4.000000
 -0.034223  0.012900  0.060386      4.000000
 -0.017112  0.012900  0.060386      4.000000
  0.000000  0.025800  0.060386      4.000000
  0.017112  0.025800  0.060386      4.000000
  0.034223  0.025800  0.060386      4.000000
  0.051335  0.025800  0.060386      4.000000
  0.068446  0.025800  0.060386      4.000000
  0.085558  0.025800  0.060386      4.000000
  0.102669  0.025800  0.060386      4.000000
 -0.085558  0.025800  0.060386      4.000000
 -0.068446  0.025800  0.060386      4.000000
 -0.051335  0.025800  0.060386      4.000000
 -0.034223  0.025800  0.060386      4.000000
 -0.017112  0.025800  0.060386      4.000000
  0.000000  0.038700  0.060386      4.000000
  0.017112  0.038700  0.060386      4.000000
  0.034223  0.038700  0.060386      4.000000
  0.051335  0.038700  0.060386      4.000000
  0.068446  0.038700  0.060386      4.000000
  0.085558  0.038700  0.060386      4.000000
  0.102669  0.038700  0.060386      4.000000
 -0.085558  0.038700  0.060386      4.000000
 -0.068446  0.038700  0.060386      4.000000
 -0.051335  0.038700  0.060386      4.000000
 -0.034223  0.038700  0.060386      4.000000
 -0.017112  0.038700  0.060386      4.000000
  0.000000  0.051600  0.060386      4.000000
  0.017112  0.051600  0.060386      4.000000
  0.034223  0.051600  0.060386      4.000000
  0.051335  0.051600  0.060386      4.000000
  0.068446  0.051600  0.060386      4.000000
  0.085558  0.051600  0.060386      4.000000
  0.102669  0.051600  0.060386      4.000000
 -0.085558  0.051600  0.060386      4.000000
 -0.068446  0.051600  0.060386      4.000000
 -0.051335  0.051600  0.060386      4.000000
 -0.034223  0.051600  0.060386      4.000000
 -0.017112  0.051600  0.060386      4.000000
  0.000000  0.064499  0.060386      4.000000
  0.017112  0.064499  0.060386      4.000000
  0.034223  0.064499  0.060386      4.000000
  0.051335  0.064499  0.060386      4.000000
  0.068446  0.064499  0.060386      4.000000
  0.085558  0.064499  0.060386      4.000000
  0.102669  0.064499  0.060386      4.000000
 -0.085558  0.064499  0.060386      4.000000
 -0.068446  0.064499  0.060386      4.000000
 -0.051335  0.064499  0.060386      4.000000
 -0.034223  0.064499  0.060386      4.000000
 -0.017112  0.064499  0.060386      4.000000
  0.000000  0.077399  0.060386      2.000000
  0.017112  0.077399  0.060386      2.000000
  0.034223  0.077399  0.060386      2.000000
  0.051335  0.077399  0.060386      2.000000
  0.068446  0.077399  0.060386      2.000000
  0.085558  0.077399  0.060386      2.000000
  0.102669  0.077399  0.060386      2.000000
 -0.085558  0.077399  0.060386      2.000000
 -0.068446  0.077399  0.060386      2.000000
 -0.051335  0.077399  0.060386      2.000000
 -0.034223  0.077399  0.060386      2.000000
 -0.017112  0.077399  0.060386      2.000000
  0.000000  0.000000  0.090580      2.000000
  0.017112  0.000000  0.090580      2.000000
  0.034223  0.000000  0.090580      2.000000
  0.051335  0.000000  0.090580      2.000000
  0.068446  0.000000  0.090580      2.000000
  0.085558  0.000000  0.090580      2.000000
  0.102669  0.000000  0.090580      2.000000
 -0.085558  0.000000  0.090580      2.000000
 -0.068446  0.000000  0.090580      2.000000
 -0.051335  0.000000  0.090580      2.000000
 -0.034223  0.000000  0.090580      2.000000
 -0.017112  0.000000  0.090580      2.000000
  0.000000  0.012900  0.090580      4.000000
  0.017112  0.012900  0.090580      4.000000
  0.034223  0.012900  0.090580      4.000000
  0.051335  0.012900  0.090580      4.000000
  0.068446  0.012900  0.090580      4.000000
  0.085558  0.012900  0.090580      4.000000
  0.102669  0.012900  0.090580      4.000000
 -0.085558  0.012900  0.090580      4.000000
 -0.068446  0.012900  0.090580      4.000000
 -0.051335  0.012900  0.090580      4.000000
 -0.034223  0.012900  0.090580      4.000000
 -0.017112  0.012900  0.090580      4.000000
  0.000000  0.025800  0.090580      4.000000
  0.017112  0.025800  0.090580      4.000000
  0.034223  0.025800  0.090580      4.000000
  0.051335  0.025800  0.090580      4.000000
  0.068446  0.025800  0.090580      4.000000
  0.085558  0.025800  0.090580      4.000000
  0.102669  0.025800  0.090580      4.000000
 -0.085558  0.025800  0.090580      4.000000
 -0.068446  0.025800  0.090580      4.000000
 -0.051335  0.025800  0.090580      4.000000
 -0.034223  0.025800  0.090580      4.000000
 -0.017112  0.025800  0.090580      4.000000
  0.000000  0.038700  0.090580      4.000000
  0.017112  0.038700  0.090580      4.000000
  0.034223  0.038700  0.090580      4.000000
  0.051335  0.038700  0.090580      4.000000
  0.068446  0.038700  0.090580      4.000000
  0.085558  0.038700  0.090580      4.000000
  0.102669  0.038700  0.090580      4.000000
 -0.085558  0.038700  0.090580      4.000000
 -0.068446  0.038700  0.090580      4.000000
 -0.051335  0.038700  0.090580      4.000000
 -0.034223  0.038700  0.090580      4.000000
 -0.017112  0.038700  0.090580      4.000000
  0.000000  0.051600  0.090580      4.000000
  0.017112  0.051600  0.090580      4.000000
  0.034223  0.051600  0.090580      4.000000
  0.051335  0.051600  0.090580      4.000000
  0.068446  0.051600  0.090580      4.000000
  0.085558  0.051600  0.090580      4.000000
  0.102669  0.051600  0.090580      4.000000
 -0.085558  0.051600  0.090580      4.000000
 -0.068446  0.051600  0.090580      4.000000
 -0.051335  0.051600  0.090580      4.000000
 -0.034223  0.051600  0.090580      4.000000
 -0.017112  0.051600  0.090580      4.000000
  0.000000  0.064499  0.090580      4.000000
  0.017112  0.064499  0.090580      4.000000
  0.034223  0.064499  0.090580      4.000000
  0.051335  0.064499  0.090580      4.000000
  0.068446  0.064499  0.090580      4.000000
  0.085558  0.064499  0.090580      4.000000
  0.102669  0.064499  0.090580      4.000000
 -0.085558  0.064499  0.090580      4.000000
 -0.068446  0.064499  0.090580      4.000000
 -0.051335  0.064499  0.090580      4.000000
 -0.034223  0.064499  0.090580      4.000000
 -0.017112  0.064499  0.090580      4.000000
  0.000000  0.077399  0.090580      2.000000
  0.017112  0.077399  0.090580      2.000000
  0.034223  0.077399  0.090580      2.000000
  0.051335  0.077399  0.090580      2.000000
  0.068446  0.077399  0.090580      2.000000
  0.085558  0.077399  0.090580      2.000000
  0.102669  0.077399  0.090580      2.000000
 -0.085558  0.077399  0.090580      2.000000
 -0.068446  0.077399  0.090580      2.000000
 -0.051335  0.077399  0.090580      2.000000
 -0.034223  0.077399  0.090580      2.000000
 -0.017112  0.077399  0.090580      2.000000
  0.000000  0.000000  0.120773      1.000000
  0.017112  0.000000  0.120773      2.000000
  0.034223  0.000000  0.120773      2.000000
  0.051335  0.000000  0.120773      2.000000
  0.068446  0.000000  0.120773      2.000000
  0.085558  0.000000  0.120773      2.000000
  0.102669  0.000000  0.120773      1.000000
  0.000000  0.012900  0.120773      2.000000
  0.017112  0.012900  0.120773      4.000000
  0.034223  0.012900  0.120773      4.000000
  0.051335  0.012900  0.120773      4.000000
  0.068446  0.012900  0.120773      4.000000
  0.085558  0.012900  0.120773      4.000000
  0.102669  0.012900  0.120773      2.000000
  0.000000  0.025800  0.120773      2.000000
  0.017112  0.025800  0.120773      4.000000
  0.034223  0.025800  0.120773      4.000000
  0.051335  0.025800  0.120773      4.000000
  0.068446  0.025800  0.120773      4.000000
  0.085558  0.025800  0.120773      4.000000
  0.102669  0.025800  0.120773      2.000000
  0.000000  0.038700  0.120773      2.000000
  0.017112  0.038700  0.120773      4.000000
  0.034223  0.038700  0.120773      4.000000
  0.051335  0.038700  0.120773      4.000000
  0.068446  0.038700  0.120773      4.000000
  0.085558  0.038700  0.120773      4.000000
  0.102669  0.038700  0.120773      2.000000
  0.000000  0.051600  0.120773      2.000000
  0.017112  0.051600  0.120773      4.000000
  0.034223  0.051600  0.120773      4.000000
  0.051335  0.051600  0.120773      4.000000
  0.068446  0.051600  0.120773      4.000000
  0.085558  0.051600  0.120773      4.000000
  0.102669  0.051600  0.120773      2.000000
  0.000000  0.064499  0.120773      2.000000
  0.017112  0.064499  0.120773      4.000000
  0.034223  0.064499  0.120773      4.000000
  0.051335  0.064499  0.120773      4.000000
  0.068446  0.064499  0.120773      4.000000
  0.085558  0.064499  0.120773      4.000000
  0.102669  0.064499  0.120773      2.000000
  0.000000  0.077399  0.120773      1.000000
  0.017112  0.077399  0.120773      2.000000
  0.034223  0.077399  0.120773      2.000000
  0.051335  0.077399  0.120773      2.000000
  0.068446  0.077399  0.120773      2.000000
  0.085558  0.077399  0.120773      2.000000
  0.102669  0.077399  0.120773      1.000000
 
 TETIRR: Found   3456 inequivalent tetrahedra from     6912


--------------------------------------------------------------------------------------------------------




 Dimension of arrays:
   k-points           NKPTS =    350   k-points in BZ     NKDIM =    350   number of bands    NBANDS=     19
   number of dos      NEDOS =    301   number of ions     NIONS =     12
   non local maximal  LDIM  =      4   non local SUM 2l+1 LMDIM =      8
   total plane-waves  NPLWV = 115200
   max r-space proj   IRMAX =      1   max aug-charges    IRDMAX=  10849
   dimension x,y,z NGX =    48 NGY =   60 NGZ =   40
   dimension x,y,z NGXF=    96 NGYF=  120 NGZF=   80
   support grid    NGXF=    96 NGYF=  120 NGZF=   80
   ions per type =               4   8
 NGX,Y,Z   is equivalent  to a cutoff of  16.50, 15.55, 16.17 a.u.
 NGXF,Y,Z  is equivalent  to a cutoff of  32.99, 31.09, 32.34 a.u.


 I would recommend the setting:
   dimension x,y,z NGX =    45 NGY =   59 NGZ =   38
 SYSTEM =  ethylene                                
 POSCAR =  C2 H4                                   

 Startparameter for this run:
   NWRITE =      2    write-flag & timer
   PREC   = accura    normal or accurate (medium, high low for compatibility)
   ISTART =      0    job   : 0-new  1-cont  2-samecut
   ICHARG =      2    charge: 1-file 2-atom 10-const
   ISPIN  =      1    spin polarized calculation?
   LNONCOLLINEAR =      F non collinear calculations
   LSORBIT =      F    spin-orbit coupling
   INIWAV =      1    electr: 0-lowe 1-rand  2-diag
   LASPH  =      F    aspherical Exc in radial PAW
   METAGGA=      F    non-selfconsistent MetaGGA calc.

 Electronic Relaxation 1
   ENCUT  =  800.0 eV  58.80 Ry    7.67 a.u.  11.16 14.80  9.48*2*pi/ulx,y,z
   ENINI  =  800.0     initial cutoff
   ENAUG  =  644.9 eV  augmentation charge cutoff
   NELM   =    200;   NELMIN=  2; NELMDL=  0     # of ELM steps 
   EDIFF  = 0.1E-07   stopping-criterion for ELM
   LREAL  =      F    real-space projection
   NLSPLINE    = F    spline interpolate recip. space projectors
   LCOMPAT=      F    compatible to vasp.4.4
   GGA_COMPAT  = T    GGA compatible to vasp.4.4-vasp.4.6
   LMAXPAW     = -100 max onsite density
   LMAXMIX     =    2 max onsite mixed and CHGCAR
   VOSKOWN=      0    Vosko Wilk Nusair interpolation
   ROPT   =    0.00000   0.00000
 Ionic relaxation
   EDIFFG = 0.1E-02   stopping-criterion for IOM
   NSW    =    200    number of steps for IOM
   NBLOCK =      1;   KBLOCK =    200    inner block; outer block 
   IBRION =      2    ionic relax: 0-MD 1-quasi-New 2-CG
   NFREE  =      1    steps in history (QN), initial steepest desc. (CG)
   ISIF   =      2    stress and relaxation
   IWAVPR =     11    prediction:  0-non 1-charg 2-wave 3-comb
   ISYM   =      2    0-nonsym 1-usesym 2-fastsym
   LCORR  =      T    Harris-Foulkes like correction to forces

   POTIM  = 0.5000    time-step for ionic-motion
   TEIN   =    0.0    initial temperature
   TEBEG  =    0.0;   TEEND  =   0.0 temperature during run
   SMASS  =  -3.00    Nose mass-parameter (am)
   estimated Nose-frequenzy (Omega)   =  0.10E-29 period in steps =****** mass=  -0.535E-27a.u.
   SCALEE = 1.0000    scale energy and forces
   NPACO  =    256;   APACO  = 16.0  distance and # of slots for P.C.
   PSTRESS=    0.0 pullay stress

  Mass of Ions in am
   POMASS =  12.01  1.00
  Ionic Valenz
   ZVAL   =   4.00  1.00
  Atomic Wigner-Seitz radii
   RWIGS  =  -1.00 -1.00
  virtual crystal weights 
   VCA    =   1.00  1.00
   NELECT =      24.0000    total number of electrons
   NUPDOWN=      -1.0000    fix difference up-down

 DOS related values:
   EMIN   =  10.00;   EMAX   =-10.00  energy-range for DOS
   EFERMI =   0.00
   ISMEAR =    -5;   SIGMA  =   0.20  broadening in eV -4-tet -1-fermi 0-gaus

 Electronic relaxation 2 (details)
   IALGO  =     38    algorithm
   LDIAG  =      T    sub-space diagonalisation (order eigenvalues)
   LSUBROT=      F    optimize rotation matrix (better conditioning)
   TURBO    =      0    0=normal 1=particle mesh
   IRESTART =      0    0=no restart 2=restart with 2 vectors
   NREBOOT  =      0    no. of reboots
   NMIN     =      0    reboot dimension
   EREF     =   0.00    reference energy to select bands
   IMIX   =      4    mixing-type and parameters
     AMIX     =   0.40;   BMIX     =  1.00
     AMIX_MAG =   1.60;   BMIX_MAG =  1.00
     AMIN     =   0.10
     WC   =   100.;   INIMIX=   1;  MIXPRE=   1;  MAXMIX= -45

 Intra band minimization:
   WEIMIN = 0.0010     energy-eigenvalue tresh-hold
   EBREAK =  0.13E-09  absolut break condition
   DEPER  =   0.30     relativ break condition  

   TIME   =   0.40     timestep for ELM

  volume/ion in A,a.u.               =      10.64        71.78
  Fermi-wavevector in a.u.,A,eV,Ry     =   0.937884  1.772344 11.968052  0.879627
  Thomas-Fermi vector in A             =   2.065040
 
 Write flags
   LWAVE  =      F    write WAVECAR
   LCHARG =      F    write CHGCAR
   LVTOT  =      F    write LOCPOT, total local potential
   LVHAR  =      F    write LOCPOT, Hartree potential only
   LELF   =      F    write electronic localiz. function (ELF)
   LORBIT =      0    0 simple, 1 ext, 2 COOP (PROOUT)


 Dipole corrections
   LMONO  =      F    monopole corrections only (constant potential shift)
   LDIPOL =      F    correct potential (dipole corrections)
   IDIPOL =      0    1-x, 2-y, 3-z, 4-all directions 
   EPSILON=  1.0000000 bulk dielectric constant

 Exchange correlation treatment:
   GGA     =    PE    GGA type
   LEXCH   =     8    internal setting for exchange type
   VOSKOWN=      0    Vosko Wilk Nusair interpolation
   LHFCALC =     F    Hartree Fock is set to
   LHFONE  =     F    Hartree Fock one center treatment
   AEXX    =    0.0000 exact exchange contribution

 Linear response parameters
   LEPSILON=     F    determine dielectric tensor
   LRPA    =     F    only Hartree local field effects (RPA)
   LNABLA  =     F    use nabla operator in PAW spheres
   LVEL    =     F    velocity operator in full k-point grid
   LINTERFAST=   F  fast interpolation
   KINTER  =     0    interpolate to denser k-point grid
   CSHIFT  =0.1000    complex shift for real part using Kramers Kronig
   OMEGAMAX=  -1.0    maximum frequency
   DEG_THRESHOLD= 0.2000000E-02 threshold for treating states as degnerate
   RTIME   =    0.100 relaxation time in fs

 Orbital magnetization related:
   ORBITALMAG=     F  switch on orbital magnetization
   LCHIMAG   =     F  perturbation theory with respect to B field
   DQ        =  0.001000  dq finite difference perturbation B field



--------------------------------------------------------------------------------------------------------


 conjugate gradient relaxation of ions
 charge density and potential will be updated during run
 non-spin polarized calculation
 Variant of blocked Davidson
 Davidson routine will perform the subspace rotation
 perform sub-space diagonalisation
    after iterative eigenvector-optimisation
 modified Broyden-mixing scheme, WC =      100.0
 initial mixing is a Kerker type mixing with AMIX =  0.4000 and BMIX =      1.0000
 Hartree-type preconditioning will be used
 using additional bands            7
 reciprocal scheme for non local part
 calculate Harris-corrections to forces 
   (improved forces if not selfconsistent)
 use gradient corrections 
 use of overlap-Matrix (Vanderbilt PP)
 Fermi weights with tetrahedron method with Bloechl corrections


--------------------------------------------------------------------------------------------------------


  energy-cutoff  :      800.00
  volume of cell :      127.64
      direct lattice vectors                 reciprocal lattice vectors
     4.837314336  0.000000000  0.000000000     0.206726280  0.000000000  0.000000000
     0.000000000  6.416643024  0.000000000     0.000000000  0.155844730  0.000000000
     0.000000000  0.000000000  4.112214021     0.000000000  0.000000000  0.243178005

  length of vectors
     4.837314336  6.416643024  4.112214021     0.206726280  0.155844730  0.243178005


 
 k-points in units of 2pi/SCALE and weight: B4C B11C-CBC                            
   0.00000000  0.00000000  0.00000000       0.001
   0.01711157  0.00000000  0.00000000       0.002
   0.03422314  0.00000000  0.00000000       0.002
   0.05133470  0.00000000  0.00000000       0.002
   0.06844627  0.00000000  0.00000000       0.002
   0.08555784  0.00000000  0.00000000       0.002
   0.10266941  0.00000000  0.00000000       0.001
   0.00000000  0.01289990  0.00000000       0.002
   0.01711157  0.01289990  0.00000000       0.003
   0.03422314  0.01289990  0.00000000       0.003
   0.05133470  0.01289990  0.00000000       0.003
   0.06844627  0.01289990  0.00000000       0.003
   0.08555784  0.01289990  0.00000000       0.003
   0.10266941  0.01289990  0.00000000       0.002
   0.00000000  0.02579979  0.00000000       0.002
   0.01711157  0.02579979  0.00000000       0.003
   0.03422314  0.02579979  0.00000000       0.003
   0.05133470  0.02579979  0.00000000       0.003
   0.06844627  0.02579979  0.00000000       0.003
   0.08555784  0.02579979  0.00000000       0.003
   0.10266941  0.02579979  0.00000000       0.002
   0.00000000  0.03869969  0.00000000       0.002
   0.01711157  0.03869969  0.00000000       0.003
   0.03422314  0.03869969  0.00000000       0.003
   0.05133470  0.03869969  0.00000000       0.003
   0.06844627  0.03869969  0.00000000       0.003
   0.08555784  0.03869969  0.00000000       0.003
   0.10266941  0.03869969  0.00000000       0.002
   0.00000000  0.05159959  0.00000000       0.002
   0.01711157  0.05159959  0.00000000       0.003
   0.03422314  0.05159959  0.00000000       0.003
   0.05133470  0.05159959  0.00000000       0.003
   0.06844627  0.05159959  0.00000000       0.003
   0.08555784  0.05159959  0.00000000       0.003
   0.10266941  0.05159959  0.00000000       0.002
   0.00000000  0.06449948  0.00000000       0.002
   0.01711157  0.06449948  0.00000000       0.003
   0.03422314  0.06449948  0.00000000       0.003
   0.05133470  0.06449948  0.00000000       0.003
   0.06844627  0.06449948  0.00000000       0.003
   0.08555784  0.06449948  0.00000000       0.003
   0.10266941  0.06449948  0.00000000       0.002
   0.00000000  0.07739938  0.00000000       0.001
   0.01711157  0.07739938  0.00000000       0.002
   0.03422314  0.07739938  0.00000000       0.002
   0.05133470  0.07739938  0.00000000       0.002
   0.06844627  0.07739938  0.00000000       0.002
   0.08555784  0.07739938  0.00000000       0.002
   0.10266941  0.07739938  0.00000000       0.001
   0.00000000  0.00000000  0.03019324       0.002
   0.01711157  0.00000000  0.03019324       0.002
   0.03422314  0.00000000  0.03019324       0.002
   0.05133470  0.00000000  0.03019324       0.002
   0.06844627  0.00000000  0.03019324       0.002
   0.08555784  0.00000000  0.03019324       0.002
   0.10266941  0.00000000  0.03019324       0.002
  -0.08555784  0.00000000  0.03019324       0.002
  -0.06844627  0.00000000  0.03019324       0.002
  -0.05133470  0.00000000  0.03019324       0.002
  -0.03422314  0.00000000  0.03019324       0.002
  -0.01711157  0.00000000  0.03019324       0.002
   0.00000000  0.01289990  0.03019324       0.003
   0.01711157  0.01289990  0.03019324       0.003
   0.03422314  0.01289990  0.03019324       0.003
   0.05133470  0.01289990  0.03019324       0.003
   0.06844627  0.01289990  0.03019324       0.003
   0.08555784  0.01289990  0.03019324       0.003
   0.10266941  0.01289990  0.03019324       0.003
  -0.08555784  0.01289990  0.03019324       0.003
  -0.06844627  0.01289990  0.03019324       0.003
  -0.05133470  0.01289990  0.03019324       0.003
  -0.03422314  0.01289990  0.03019324       0.003
  -0.01711157  0.01289990  0.03019324       0.003
   0.00000000  0.02579979  0.03019324       0.003
   0.01711157  0.02579979  0.03019324       0.003
   0.03422314  0.02579979  0.03019324       0.003
   0.05133470  0.02579979  0.03019324       0.003
   0.06844627  0.02579979  0.03019324       0.003
   0.08555784  0.02579979  0.03019324       0.003
   0.10266941  0.02579979  0.03019324       0.003
  -0.08555784  0.02579979  0.03019324       0.003
  -0.06844627  0.02579979  0.03019324       0.003
  -0.05133470  0.02579979  0.03019324       0.003
  -0.03422314  0.02579979  0.03019324       0.003
  -0.01711157  0.02579979  0.03019324       0.003
   0.00000000  0.03869969  0.03019324       0.003
   0.01711157  0.03869969  0.03019324       0.003
   0.03422314  0.03869969  0.03019324       0.003
   0.05133470  0.03869969  0.03019324       0.003
   0.06844627  0.03869969  0.03019324       0.003
   0.08555784  0.03869969  0.03019324       0.003
   0.10266941  0.03869969  0.03019324       0.003
  -0.08555784  0.03869969  0.03019324       0.003
  -0.06844627  0.03869969  0.03019324       0.003
  -0.05133470  0.03869969  0.03019324       0.003
  -0.03422314  0.03869969  0.03019324       0.003
  -0.01711157  0.03869969  0.03019324       0.003
   0.00000000  0.05159959  0.03019324       0.003
   0.01711157  0.05159959  0.03019324       0.003
   0.03422314  0.05159959  0.03019324       0.003
   0.05133470  0.05159959  0.03019324       0.003
   0.06844627  0.05159959  0.03019324       0.003
   0.08555784  0.05159959  0.03019324       0.003
   0.10266941  0.05159959  0.03019324       0.003
  -0.08555784  0.05159959  0.03019324       0.003
  -0.06844627  0.05159959  0.03019324       0.003
  -0.05133470  0.05159959  0.03019324       0.003
  -0.03422314  0.05159959  0.03019324       0.003
  -0.01711157  0.05159959  0.03019324       0.003
   0.00000000  0.06449948  0.03019324       0.003
   0.01711157  0.06449948  0.03019324       0.003
   0.03422314  0.06449948  0.03019324       0.003
   0.05133470  0.06449948  0.03019324       0.003
   0.06844627  0.06449948  0.03019324       0.003
   0.08555784  0.06449948  0.03019324       0.003
   0.10266941  0.06449948  0.03019324       0.003
  -0.08555784  0.06449948  0.03019324       0.003
  -0.06844627  0.06449948  0.03019324       0.003
  -0.05133470  0.06449948  0.03019324       0.003
  -0.03422314  0.06449948  0.03019324       0.003
  -0.01711157  0.06449948  0.03019324       0.003
   0.00000000  0.07739938  0.03019324       0.002
   0.01711157  0.07739938  0.03019324       0.002
   0.03422314  0.07739938  0.03019324       0.002
   0.05133470  0.07739938  0.03019324       0.002
   0.06844627  0.07739938  0.03019324       0.002
   0.08555784  0.07739938  0.03019324       0.002
   0.10266941  0.07739938  0.03019324       0.002
  -0.08555784  0.07739938  0.03019324       0.002
  -0.06844627  0.07739938  0.03019324       0.002
  -0.05133470  0.07739938  0.03019324       0.002
  -0.03422314  0.07739938  0.03019324       0.002
  -0.01711157  0.07739938  0.03019324       0.002
   0.00000000  0.00000000  0.06038647       0.002
   0.01711157  0.00000000  0.06038647       0.002
   0.03422314  0.00000000  0.06038647       0.002
   0.05133470  0.00000000  0.06038647       0.002
   0.06844627  0.00000000  0.06038647       0.002
   0.08555784  0.00000000  0.06038647       0.002
   0.10266941  0.00000000  0.06038647       0.002
  -0.08555784  0.00000000  0.06038647       0.002
  -0.06844627  0.00000000  0.06038647       0.002
  -0.05133470  0.00000000  0.06038647       0.002
  -0.03422314  0.00000000  0.06038647       0.002
  -0.01711157  0.00000000  0.06038647       0.002
   0.00000000  0.01289990  0.06038647       0.003
   0.01711157  0.01289990  0.06038647       0.003
   0.03422314  0.01289990  0.06038647       0.003
   0.05133470  0.01289990  0.06038647       0.003
   0.06844627  0.01289990  0.06038647       0.003
   0.08555784  0.01289990  0.06038647       0.003
   0.10266941  0.01289990  0.06038647       0.003
  -0.08555784  0.01289990  0.06038647       0.003
  -0.06844627  0.01289990  0.06038647       0.003
  -0.05133470  0.01289990  0.06038647       0.003
  -0.03422314  0.01289990  0.06038647       0.003
  -0.01711157  0.01289990  0.06038647       0.003
   0.00000000  0.02579979  0.06038647       0.003
   0.01711157  0.02579979  0.06038647       0.003
   0.03422314  0.02579979  0.06038647       0.003
   0.05133470  0.02579979  0.06038647       0.003
   0.06844627  0.02579979  0.06038647       0.003
   0.08555784  0.02579979  0.06038647       0.003
   0.10266941  0.02579979  0.06038647       0.003
  -0.08555784  0.02579979  0.06038647       0.003
  -0.06844627  0.02579979  0.06038647       0.003
  -0.05133470  0.02579979  0.06038647       0.003
  -0.03422314  0.02579979  0.06038647       0.003
  -0.01711157  0.02579979  0.06038647       0.003
   0.00000000  0.03869969  0.06038647       0.003
   0.01711157  0.03869969  0.06038647       0.003
   0.03422314  0.03869969  0.06038647       0.003
   0.05133470  0.03869969  0.06038647       0.003
   0.06844627  0.03869969  0.06038647       0.003
   0.08555784  0.03869969  0.06038647       0.003
   0.10266941  0.03869969  0.06038647       0.003
  -0.08555784  0.03869969  0.06038647       0.003
  -0.06844627  0.03869969  0.06038647       0.003
  -0.05133470  0.03869969  0.06038647       0.003
  -0.03422314  0.03869969  0.06038647       0.003
  -0.01711157  0.03869969  0.06038647       0.003
   0.00000000  0.05159959  0.06038647       0.003
   0.01711157  0.05159959  0.06038647       0.003
   0.03422314  0.05159959  0.06038647       0.003
   0.05133470  0.05159959  0.06038647       0.003
   0.06844627  0.05159959  0.06038647       0.003
   0.08555784  0.05159959  0.06038647       0.003
   0.10266941  0.05159959  0.06038647       0.003
  -0.08555784  0.05159959  0.06038647       0.003
  -0.06844627  0.05159959  0.06038647       0.003
  -0.05133470  0.05159959  0.06038647       0.003
  -0.03422314  0.05159959  0.06038647       0.003
  -0.01711157  0.05159959  0.06038647       0.003
   0.00000000  0.06449948  0.06038647       0.003
   0.01711157  0.06449948  0.06038647       0.003
   0.03422314  0.06449948  0.06038647       0.003
   0.05133470  0.06449948  0.06038647       0.003
   0.06844627  0.06449948  0.06038647       0.003
   0.08555784  0.06449948  0.06038647       0.003
   0.10266941  0.06449948  0.06038647       0.003
  -0.08555784  0.06449948  0.06038647       0.003
  -0.06844627  0.06449948  0.06038647       0.003
  -0.05133470  0.06449948  0.06038647       0.003
  -0.03422314  0.06449948  0.06038647       0.003
  -0.01711157  0.06449948  0.06038647       0.003
   0.00000000  0.07739938  0.06038647       0.002
   0.01711157  0.07739938  0.06038647       0.002
   0.03422314  0.07739938  0.06038647       0.002
   0.05133470  0.07739938  0.06038647       0.002
   0.06844627  0.07739938  0.06038647       0.002
   0.08555784  0.07739938  0.06038647       0.002
   0.10266941  0.07739938  0.06038647       0.002
  -0.08555784  0.07739938  0.06038647       0.002
  -0.06844627  0.07739938  0.06038647       0.002
  -0.05133470  0.07739938  0.06038647       0.002
  -0.03422314  0.07739938  0.06038647       0.002
  -0.01711157  0.07739938  0.06038647       0.002
   0.00000000  0.00000000  0.09057971       0.002
   0.01711157  0.00000000  0.09057971       0.002
   0.03422314  0.00000000  0.09057971       0.002
   0.05133470  0.00000000  0.09057971       0.002
   0.06844627  0.00000000  0.09057971       0.002
   0.08555784  0.00000000  0.09057971       0.002
   0.10266941  0.00000000  0.09057971       0.002
  -0.08555784  0.00000000  0.09057971       0.002
  -0.06844627  0.00000000  0.09057971       0.002
  -0.05133470  0.00000000  0.09057971       0.002
  -0.03422314  0.00000000  0.09057971       0.002
  -0.01711157  0.00000000  0.09057971       0.002
   0.00000000  0.01289990  0.09057971       0.003
   0.01711157  0.01289990  0.09057971       0.003
   0.03422314  0.01289990  0.09057971       0.003
   0.05133470  0.01289990  0.09057971       0.003
   0.06844627  0.01289990  0.09057971       0.003
   0.08555784  0.01289990  0.09057971       0.003
   0.10266941  0.01289990  0.09057971       0.003
  -0.08555784  0.01289990  0.09057971       0.003
  -0.06844627  0.01289990  0.09057971       0.003
  -0.05133470  0.01289990  0.09057971       0.003
  -0.03422314  0.01289990  0.09057971       0.003
  -0.01711157  0.01289990  0.09057971       0.003
   0.00000000  0.02579979  0.09057971       0.003
   0.01711157  0.02579979  0.09057971       0.003
   0.03422314  0.02579979  0.09057971       0.003
   0.05133470  0.02579979  0.09057971       0.003
   0.06844627  0.02579979  0.09057971       0.003
   0.08555784  0.02579979  0.09057971       0.003
   0.10266941  0.02579979  0.09057971       0.003
  -0.08555784  0.02579979  0.09057971       0.003
  -0.06844627  0.02579979  0.09057971       0.003
  -0.05133470  0.02579979  0.09057971       0.003
  -0.03422314  0.02579979  0.09057971       0.003
  -0.01711157  0.02579979  0.09057971       0.003
   0.00000000  0.03869969  0.09057971       0.003
   0.01711157  0.03869969  0.09057971       0.003
   0.03422314  0.03869969  0.09057971       0.003
   0.05133470  0.03869969  0.09057971       0.003
   0.06844627  0.03869969  0.09057971       0.003
   0.08555784  0.03869969  0.09057971       0.003
   0.10266941  0.03869969  0.09057971       0.003
  -0.08555784  0.03869969  0.09057971       0.003
  -0.06844627  0.03869969  0.09057971       0.003
  -0.05133470  0.03869969  0.09057971       0.003
  -0.03422314  0.03869969  0.09057971       0.003
  -0.01711157  0.03869969  0.09057971       0.003
   0.00000000  0.05159959  0.09057971       0.003
   0.01711157  0.05159959  0.09057971       0.003
   0.03422314  0.05159959  0.09057971       0.003
   0.05133470  0.05159959  0.09057971       0.003
   0.06844627  0.05159959  0.09057971       0.003
   0.08555784  0.05159959  0.09057971       0.003
   0.10266941  0.05159959  0.09057971       0.003
  -0.08555784  0.05159959  0.09057971       0.003
  -0.06844627  0.05159959  0.09057971       0.003
  -0.05133470  0.05159959  0.09057971       0.003
  -0.03422314  0.05159959  0.09057971       0.003
  -0.01711157  0.05159959  0.09057971       0.003
   0.00000000  0.06449948  0.09057971       0.003
   0.01711157  0.06449948  0.09057971       0.003
   0.03422314  0.06449948  0.09057971       0.003
   0.05133470  0.06449948  0.09057971       0.003
   0.06844627  0.06449948  0.09057971       0.003
   0.08555784  0.06449948  0.09057971       0.003
   0.10266941  0.06449948  0.09057971       0.003
  -0.08555784  0.06449948  0.09057971       0.003
  -0.06844627  0.06449948  0.09057971       0.003
  -0.05133470  0.06449948  0.09057971       0.003
  -0.03422314  0.06449948  0.09057971       0.003
  -0.01711157  0.06449948  0.09057971       0.003
   0.00000000  0.07739938  0.09057971       0.002
   0.01711157  0.07739938  0.09057971       0.002
   0.03422314  0.07739938  0.09057971       0.002
   0.05133470  0.07739938  0.09057971       0.002
   0.06844627  0.07739938  0.09057971       0.002
   0.08555784  0.07739938  0.09057971       0.002
   0.10266941  0.07739938  0.09057971       0.002
  -0.08555784  0.07739938  0.09057971       0.002
  -0.06844627  0.07739938  0.09057971       0.002
  -0.05133470  0.07739938  0.09057971       0.002
  -0.03422314  0.07739938  0.09057971       0.002
  -0.01711157  0.07739938  0.09057971       0.002
   0.00000000  0.00000000  0.12077294       0.001
   0.01711157  0.00000000  0.12077294       0.002
   0.03422314  0.00000000  0.12077294       0.002
   0.05133470  0.00000000  0.12077294       0.002
   0.06844627  0.00000000  0.12077294       0.002
   0.08555784  0.00000000  0.12077294       0.002
   0.10266941  0.00000000  0.12077294       0.001
   0.00000000  0.01289990  0.12077294       0.002
   0.01711157  0.01289990  0.12077294       0.003
   0.03422314  0.01289990  0.12077294       0.003
   0.05133470  0.01289990  0.12077294       0.003
   0.06844627  0.01289990  0.12077294       0.003
   0.08555784  0.01289990  0.12077294       0.003
   0.10266941  0.01289990  0.12077294       0.002
   0.00000000  0.02579979  0.12077294       0.002
   0.01711157  0.02579979  0.12077294       0.003
   0.03422314  0.02579979  0.12077294       0.003
   0.05133470  0.02579979  0.12077294       0.003
   0.06844627  0.02579979  0.12077294       0.003
   0.08555784  0.02579979  0.12077294       0.003
   0.10266941  0.02579979  0.12077294       0.002
   0.00000000  0.03869969  0.12077294       0.002
   0.01711157  0.03869969  0.12077294       0.003
   0.03422314  0.03869969  0.12077294       0.003
   0.05133470  0.03869969  0.12077294       0.003
   0.06844627  0.03869969  0.12077294       0.003
   0.08555784  0.03869969  0.12077294       0.003
   0.10266941  0.03869969  0.12077294       0.002
   0.00000000  0.05159959  0.12077294       0.002
   0.01711157  0.05159959  0.12077294       0.003
   0.03422314  0.05159959  0.12077294       0.003
   0.05133470  0.05159959  0.12077294       0.003
   0.06844627  0.05159959  0.12077294       0.003
   0.08555784  0.05159959  0.12077294       0.003
   0.10266941  0.05159959  0.12077294       0.002
   0.00000000  0.06449948  0.12077294       0.002
   0.01711157  0.06449948  0.12077294       0.003
   0.03422314  0.06449948  0.12077294       0.003
   0.05133470  0.06449948  0.12077294       0.003
   0.06844627  0.06449948  0.12077294       0.003
   0.08555784  0.06449948  0.12077294       0.003
   0.10266941  0.06449948  0.12077294       0.002
   0.00000000  0.07739938  0.12077294       0.001
   0.01711157  0.07739938  0.12077294       0.002
   0.03422314  0.07739938  0.12077294       0.002
   0.05133470  0.07739938  0.12077294       0.002
   0.06844627  0.07739938  0.12077294       0.002
   0.08555784  0.07739938  0.12077294       0.002
   0.10266941  0.07739938  0.12077294       0.001
 
 k-points in reciprocal lattice and weights: B4C B11C-CBC                            
   0.00000000  0.00000000  0.00000000       0.001
   0.08333333  0.00000000  0.00000000       0.002
   0.16666667  0.00000000  0.00000000       0.002
   0.25000000  0.00000000  0.00000000       0.002
   0.33333333  0.00000000  0.00000000       0.002
   0.41666667  0.00000000  0.00000000       0.002
   0.50000000  0.00000000  0.00000000       0.001
   0.00000000  0.08333333  0.00000000       0.002
   0.08333333  0.08333333  0.00000000       0.003
   0.16666667  0.08333333  0.00000000       0.003
   0.25000000  0.08333333  0.00000000       0.003
   0.33333333  0.08333333  0.00000000       0.003
   0.41666667  0.08333333  0.00000000       0.003
   0.50000000  0.08333333  0.00000000       0.002
   0.00000000  0.16666667  0.00000000       0.002
   0.08333333  0.16666667  0.00000000       0.003
   0.16666667  0.16666667  0.00000000       0.003
   0.25000000  0.16666667  0.00000000       0.003
   0.33333333  0.16666667  0.00000000       0.003
   0.41666667  0.16666667  0.00000000       0.003
   0.50000000  0.16666667  0.00000000       0.002
   0.00000000  0.25000000  0.00000000       0.002
   0.08333333  0.25000000  0.00000000       0.003
   0.16666667  0.25000000  0.00000000       0.003
   0.25000000  0.25000000  0.00000000       0.003
   0.33333333  0.25000000  0.00000000       0.003
   0.41666667  0.25000000  0.00000000       0.003
   0.50000000  0.25000000  0.00000000       0.002
   0.00000000  0.33333333  0.00000000       0.002
   0.08333333  0.33333333  0.00000000       0.003
   0.16666667  0.33333333  0.00000000       0.003
   0.25000000  0.33333333  0.00000000       0.003
   0.33333333  0.33333333  0.00000000       0.003
   0.41666667  0.33333333  0.00000000       0.003
   0.50000000  0.33333333  0.00000000       0.002
   0.00000000  0.41666667  0.00000000       0.002
   0.08333333  0.41666667  0.00000000       0.003
   0.16666667  0.41666667  0.00000000       0.003
   0.25000000  0.41666667  0.00000000       0.003
   0.33333333  0.41666667  0.00000000       0.003
   0.41666667  0.41666667  0.00000000       0.003
   0.50000000  0.41666667  0.00000000       0.002
   0.00000000  0.50000000  0.00000000       0.001
   0.08333333  0.50000000  0.00000000       0.002
   0.16666667  0.50000000  0.00000000       0.002
   0.25000000  0.50000000  0.00000000       0.002
   0.33333333  0.50000000  0.00000000       0.002
   0.41666667  0.50000000  0.00000000       0.002
   0.50000000  0.50000000  0.00000000       0.001
   0.00000000  0.00000000  0.12500000       0.002
   0.08333333  0.00000000  0.12500000       0.002
   0.16666667  0.00000000  0.12500000       0.002
   0.25000000  0.00000000  0.12500000       0.002
   0.33333333  0.00000000  0.12500000       0.002
   0.41666667  0.00000000  0.12500000       0.002
   0.50000000  0.00000000  0.12500000       0.002
  -0.41666667  0.00000000  0.12500000       0.002
  -0.33333333  0.00000000  0.12500000       0.002
  -0.25000000  0.00000000  0.12500000       0.002
  -0.16666667  0.00000000  0.12500000       0.002
  -0.08333333  0.00000000  0.12500000       0.002
   0.00000000  0.08333333  0.12500000       0.003
   0.08333333  0.08333333  0.12500000       0.003
   0.16666667  0.08333333  0.12500000       0.003
   0.25000000  0.08333333  0.12500000       0.003
   0.33333333  0.08333333  0.12500000       0.003
   0.41666667  0.08333333  0.12500000       0.003
   0.50000000  0.08333333  0.12500000       0.003
  -0.41666667  0.08333333  0.12500000       0.003
  -0.33333333  0.08333333  0.12500000       0.003
  -0.25000000  0.08333333  0.12500000       0.003
  -0.16666667  0.08333333  0.12500000       0.003
  -0.08333333  0.08333333  0.12500000       0.003
   0.00000000  0.16666667  0.12500000       0.003
   0.08333333  0.16666667  0.12500000       0.003
   0.16666667  0.16666667  0.12500000       0.003
   0.25000000  0.16666667  0.12500000       0.003
   0.33333333  0.16666667  0.12500000       0.003
   0.41666667  0.16666667  0.12500000       0.003
   0.50000000  0.16666667  0.12500000       0.003
  -0.41666667  0.16666667  0.12500000       0.003
  -0.33333333  0.16666667  0.12500000       0.003
  -0.25000000  0.16666667  0.12500000       0.003
  -0.16666667  0.16666667  0.12500000       0.003
  -0.08333333  0.16666667  0.12500000       0.003
   0.00000000  0.25000000  0.12500000       0.003
   0.08333333  0.25000000  0.12500000       0.003
   0.16666667  0.25000000  0.12500000       0.003
   0.25000000  0.25000000  0.12500000       0.003
   0.33333333  0.25000000  0.12500000       0.003
   0.41666667  0.25000000  0.12500000       0.003
   0.50000000  0.25000000  0.12500000       0.003
  -0.41666667  0.25000000  0.12500000       0.003
  -0.33333333  0.25000000  0.12500000       0.003
  -0.25000000  0.25000000  0.12500000       0.003
  -0.16666667  0.25000000  0.12500000       0.003
  -0.08333333  0.25000000  0.12500000       0.003
   0.00000000  0.33333333  0.12500000       0.003
   0.08333333  0.33333333  0.12500000       0.003
   0.16666667  0.33333333  0.12500000       0.003
   0.25000000  0.33333333  0.12500000       0.003
   0.33333333  0.33333333  0.12500000       0.003
   0.41666667  0.33333333  0.12500000       0.003
   0.50000000  0.33333333  0.12500000       0.003
  -0.41666667  0.33333333  0.12500000       0.003
  -0.33333333  0.33333333  0.12500000       0.003
  -0.25000000  0.33333333  0.12500000       0.003
  -0.16666667  0.33333333  0.12500000       0.003
  -0.08333333  0.33333333  0.12500000       0.003
   0.00000000  0.41666667  0.12500000       0.003
   0.08333333  0.41666667  0.12500000       0.003
   0.16666667  0.41666667  0.12500000       0.003
   0.25000000  0.41666667  0.12500000       0.003
   0.33333333  0.41666667  0.12500000       0.003
   0.41666667  0.41666667  0.12500000       0.003
   0.50000000  0.41666667  0.12500000       0.003
  -0.41666667  0.41666667  0.12500000       0.003
  -0.33333333  0.41666667  0.12500000       0.003
  -0.25000000  0.41666667  0.12500000       0.003
  -0.16666667  0.41666667  0.12500000       0.003
  -0.08333333  0.41666667  0.12500000       0.003
   0.00000000  0.50000000  0.12500000       0.002
   0.08333333  0.50000000  0.12500000       0.002
   0.16666667  0.50000000  0.12500000       0.002
   0.25000000  0.50000000  0.12500000       0.002
   0.33333333  0.50000000  0.12500000       0.002
   0.41666667  0.50000000  0.12500000       0.002
   0.50000000  0.50000000  0.12500000       0.002
  -0.41666667  0.50000000  0.12500000       0.002
  -0.33333333  0.50000000  0.12500000       0.002
  -0.25000000  0.50000000  0.12500000       0.002
  -0.16666667  0.50000000  0.12500000       0.002
  -0.08333333  0.50000000  0.12500000       0.002
   0.00000000  0.00000000  0.25000000       0.002
   0.08333333  0.00000000  0.25000000       0.002
   0.16666667  0.00000000  0.25000000       0.002
   0.25000000  0.00000000  0.25000000       0.002
   0.33333333  0.00000000  0.25000000       0.002
   0.41666667  0.00000000  0.25000000       0.002
   0.50000000  0.00000000  0.25000000       0.002
  -0.41666667  0.00000000  0.25000000       0.002
  -0.33333333  0.00000000  0.25000000       0.002
  -0.25000000  0.00000000  0.25000000       0.002
  -0.16666667  0.00000000  0.25000000       0.002
  -0.08333333  0.00000000  0.25000000       0.002
   0.00000000  0.08333333  0.25000000       0.003
   0.08333333  0.08333333  0.25000000       0.003
   0.16666667  0.08333333  0.25000000       0.003
   0.25000000  0.08333333  0.25000000       0.003
   0.33333333  0.08333333  0.25000000       0.003
   0.41666667  0.08333333  0.25000000       0.003
   0.50000000  0.08333333  0.25000000       0.003
  -0.41666667  0.08333333  0.25000000       0.003
  -0.33333333  0.08333333  0.25000000       0.003
  -0.25000000  0.08333333  0.25000000       0.003
  -0.16666667  0.08333333  0.25000000       0.003
  -0.08333333  0.08333333  0.25000000       0.003
   0.00000000  0.16666667  0.25000000       0.003
   0.08333333  0.16666667  0.25000000       0.003
   0.16666667  0.16666667  0.25000000       0.003
   0.25000000  0.16666667  0.25000000       0.003
   0.33333333  0.16666667  0.25000000       0.003
   0.41666667  0.16666667  0.25000000       0.003
   0.50000000  0.16666667  0.25000000       0.003
  -0.41666667  0.16666667  0.25000000       0.003
  -0.33333333  0.16666667  0.25000000       0.003
  -0.25000000  0.16666667  0.25000000       0.003
  -0.16666667  0.16666667  0.25000000       0.003
  -0.08333333  0.16666667  0.25000000       0.003
   0.00000000  0.25000000  0.25000000       0.003
   0.08333333  0.25000000  0.25000000       0.003
   0.16666667  0.25000000  0.25000000       0.003
   0.25000000  0.25000000  0.25000000       0.003
   0.33333333  0.25000000  0.25000000       0.003
   0.41666667  0.25000000  0.25000000       0.003
   0.50000000  0.25000000  0.25000000       0.003
  -0.41666667  0.25000000  0.25000000       0.003
  -0.33333333  0.25000000  0.25000000       0.003
  -0.25000000  0.25000000  0.25000000       0.003
  -0.16666667  0.25000000  0.25000000       0.003
  -0.08333333  0.25000000  0.25000000       0.003
   0.00000000  0.33333333  0.25000000       0.003
   0.08333333  0.33333333  0.25000000       0.003
   0.16666667  0.33333333  0.25000000       0.003
   0.25000000  0.33333333  0.25000000       0.003
   0.33333333  0.33333333  0.25000000       0.003
   0.41666667  0.33333333  0.25000000       0.003
   0.50000000  0.33333333  0.25000000       0.003
  -0.41666667  0.33333333  0.25000000       0.003
  -0.33333333  0.33333333  0.25000000       0.003
  -0.25000000  0.33333333  0.25000000       0.003
  -0.16666667  0.33333333  0.25000000       0.003
  -0.08333333  0.33333333  0.25000000       0.003
   0.00000000  0.41666667  0.25000000       0.003
   0.08333333  0.41666667  0.25000000       0.003
   0.16666667  0.41666667  0.25000000       0.003
   0.25000000  0.41666667  0.25000000       0.003
   0.33333333  0.41666667  0.25000000       0.003
   0.41666667  0.41666667  0.25000000       0.003
   0.50000000  0.41666667  0.25000000       0.003
  -0.41666667  0.41666667  0.25000000       0.003
  -0.33333333  0.41666667  0.25000000       0.003
  -0.25000000  0.41666667  0.25000000       0.003
  -0.16666667  0.41666667  0.25000000       0.003
  -0.08333333  0.41666667  0.25000000       0.003
   0.00000000  0.50000000  0.25000000       0.002
   0.08333333  0.50000000  0.25000000       0.002
   0.16666667  0.50000000  0.25000000       0.002
   0.25000000  0.50000000  0.25000000       0.002
   0.33333333  0.50000000  0.25000000       0.002
   0.41666667  0.50000000  0.25000000       0.002
   0.50000000  0.50000000  0.25000000       0.002
  -0.41666667  0.50000000  0.25000000       0.002
  -0.33333333  0.50000000  0.25000000       0.002
  -0.25000000  0.50000000  0.25000000       0.002
  -0.16666667  0.50000000  0.25000000       0.002
  -0.08333333  0.50000000  0.25000000       0.002
   0.00000000  0.00000000  0.37500000       0.002
   0.08333333  0.00000000  0.37500000       0.002
   0.16666667  0.00000000  0.37500000       0.002
   0.25000000  0.00000000  0.37500000       0.002
   0.33333333  0.00000000  0.37500000       0.002
   0.41666667  0.00000000  0.37500000       0.002
   0.50000000  0.00000000  0.37500000       0.002
  -0.41666667  0.00000000  0.37500000       0.002
  -0.33333333  0.00000000  0.37500000       0.002
  -0.25000000  0.00000000  0.37500000       0.002
  -0.16666667  0.00000000  0.37500000       0.002
  -0.08333333  0.00000000  0.37500000       0.002
   0.00000000  0.08333333  0.37500000       0.003
   0.08333333  0.08333333  0.37500000       0.003
   0.16666667  0.08333333  0.37500000       0.003
   0.25000000  0.08333333  0.37500000       0.003
   0.33333333  0.08333333  0.37500000       0.003
   0.41666667  0.08333333  0.37500000       0.003
   0.50000000  0.08333333  0.37500000       0.003
  -0.41666667  0.08333333  0.37500000       0.003
  -0.33333333  0.08333333  0.37500000       0.003
  -0.25000000  0.08333333  0.37500000       0.003
  -0.16666667  0.08333333  0.37500000       0.003
  -0.08333333  0.08333333  0.37500000       0.003
   0.00000000  0.16666667  0.37500000       0.003
   0.08333333  0.16666667  0.37500000       0.003
   0.16666667  0.16666667  0.37500000       0.003
   0.25000000  0.16666667  0.37500000       0.003
   0.33333333  0.16666667  0.37500000       0.003
   0.41666667  0.16666667  0.37500000       0.003
   0.50000000  0.16666667  0.37500000       0.003
  -0.41666667  0.16666667  0.37500000       0.003
  -0.33333333  0.16666667  0.37500000       0.003
  -0.25000000  0.16666667  0.37500000       0.003
  -0.16666667  0.16666667  0.37500000       0.003
  -0.08333333  0.16666667  0.37500000       0.003
   0.00000000  0.25000000  0.37500000       0.003
   0.08333333  0.25000000  0.37500000       0.003
   0.16666667  0.25000000  0.37500000       0.003
[...]
 k-point ** :  -0.3333 0.4167 0.1250  plane waves:    6564
 k-point ** :  -0.2500 0.4167 0.1250  plane waves:    6564
 k-point ** :  -0.1667 0.4167 0.1250  plane waves:    6562
 k-point ** :  -0.0833 0.4167 0.1250  plane waves:    6561
 k-point ** :   0.0000 0.5000 0.1250  plane waves:    6560
 k-point ** :   0.0833 0.5000 0.1250  plane waves:    6550
 k-point ** :   0.1667 0.5000 0.1250  plane waves:    6556
 k-point ** :   0.2500 0.5000 0.1250  plane waves:    6562
 k-point ** :   0.3333 0.5000 0.1250  plane waves:    6570
 k-point ** :   0.4167 0.5000 0.1250  plane waves:    6572
 k-point ** :   0.5000 0.5000 0.1250  plane waves:    6568
 k-point ** :  -0.4167 0.5000 0.1250  plane waves:    6572
 k-point ** :  -0.3333 0.5000 0.1250  plane waves:    6570
 k-point ** :  -0.2500 0.5000 0.1250  plane waves:    6562
 k-point ** :  -0.1667 0.5000 0.1250  plane waves:    6556
 k-point ** :  -0.0833 0.5000 0.1250  plane waves:    6550
 k-point ** :   0.0000 0.0000 0.2500  plane waves:    6575
 k-point ** :   0.0833 0.0000 0.2500  plane waves:    6576
 k-point ** :   0.1667 0.0000 0.2500  plane waves:    6569
 k-point ** :   0.2500 0.0000 0.2500  plane waves:    6559
 k-point ** :   0.3333 0.0000 0.2500  plane waves:    6564
 k-point ** :   0.4167 0.0000 0.2500  plane waves:    6558
 k-point ** :   0.5000 0.0000 0.2500  plane waves:    6566
 k-point ** :  -0.4167 0.0000 0.2500  plane waves:    6558
 k-point ** :  -0.3333 0.0000 0.2500  plane waves:    6564
 k-point ** :  -0.2500 0.0000 0.2500  plane waves:    6559
 k-point ** :  -0.1667 0.0000 0.2500  plane waves:    6569
 k-point ** :  -0.0833 0.0000 0.2500  plane waves:    6576
 k-point ** :   0.0000 0.0833 0.2500  plane waves:    6583
 k-point ** :   0.0833 0.0833 0.2500  plane waves:    6565
 k-point ** :   0.1667 0.0833 0.2500  plane waves:    6561
 k-point ** :   0.2500 0.0833 0.2500  plane waves:    6566
 k-point ** :   0.3333 0.0833 0.2500  plane waves:    6562
 k-point ** :   0.4167 0.0833 0.2500  plane waves:    6560
 k-point ** :   0.5000 0.0833 0.2500  plane waves:    6558
 k-point ** :  -0.4167 0.0833 0.2500  plane waves:    6560
 k-point ** :  -0.3333 0.0833 0.2500  plane waves:    6562
 k-point ** :  -0.2500 0.0833 0.2500  plane waves:    6566
 k-point ** :  -0.1667 0.0833 0.2500  plane waves:    6561
 k-point ** :  -0.0833 0.0833 0.2500  plane waves:    6565
 k-point ** :   0.0000 0.1667 0.2500  plane waves:    6558
 k-point ** :   0.0833 0.1667 0.2500  plane waves:    6559
 k-point ** :   0.1667 0.1667 0.2500  plane waves:    6564
 k-point ** :   0.2500 0.1667 0.2500  plane waves:    6555
 k-point ** :   0.3333 0.1667 0.2500  plane waves:    6568
 k-point ** :   0.4167 0.1667 0.2500  plane waves:    6560
 k-point ** :   0.5000 0.1667 0.2500  plane waves:    6558
 k-point ** :  -0.4167 0.1667 0.2500  plane waves:    6560
 k-point ** :  -0.3333 0.1667 0.2500  plane waves:    6568
 k-point ** :  -0.2500 0.1667 0.2500  plane waves:    6555
 k-point ** :  -0.1667 0.1667 0.2500  plane waves:    6564
 k-point ** :  -0.0833 0.1667 0.2500  plane waves:    6559
 k-point ** :   0.0000 0.2500 0.2500  plane waves:    6551
 k-point ** :   0.0833 0.2500 0.2500  plane waves:    6565
 k-point ** :   0.1667 0.2500 0.2500  plane waves:    6558
 k-point ** :   0.2500 0.2500 0.2500  plane waves:    6555
 k-point ** :   0.3333 0.2500 0.2500  plane waves:    6562
 k-point ** :   0.4167 0.2500 0.2500  plane waves:    6565
 k-point ** :   0.5000 0.2500 0.2500  plane waves:    6562
 k-point ** :  -0.4167 0.2500 0.2500  plane waves:    6565
 k-point ** :  -0.3333 0.2500 0.2500  plane waves:    6562
 k-point ** :  -0.2500 0.2500 0.2500  plane waves:    6555
 k-point ** :  -0.1667 0.2500 0.2500  plane waves:    6558
 k-point ** :  -0.0833 0.2500 0.2500  plane waves:    6565
 k-point ** :   0.0000 0.3333 0.2500  plane waves:    6558
 k-point ** :   0.0833 0.3333 0.2500  plane waves:    6559
 k-point ** :   0.1667 0.3333 0.2500  plane waves:    6556
 k-point ** :   0.2500 0.3333 0.2500  plane waves:    6563
 k-point ** :   0.3333 0.3333 0.2500  plane waves:    6553
 k-point ** :   0.4167 0.3333 0.2500  plane waves:    6558
 k-point ** :   0.5000 0.3333 0.2500  plane waves:    6550
 k-point ** :  -0.4167 0.3333 0.2500  plane waves:    6558
 k-point ** :  -0.3333 0.3333 0.2500  plane waves:    6553
 k-point ** :  -0.2500 0.3333 0.2500  plane waves:    6563
 k-point ** :  -0.1667 0.3333 0.2500  plane waves:    6556
 k-point ** :  -0.0833 0.3333 0.2500  plane waves:    6559
 k-point ** :   0.0000 0.4167 0.2500  plane waves:    6557
 k-point ** :   0.0833 0.4167 0.2500  plane waves:    6562
 k-point ** :   0.1667 0.4167 0.2500  plane waves:    6563
 k-point ** :   0.2500 0.4167 0.2500  plane waves:    6565
 k-point ** :   0.3333 0.4167 0.2500  plane waves:    6558
 k-point ** :   0.4167 0.4167 0.2500  plane waves:    6559
 k-point ** :   0.5000 0.4167 0.2500  plane waves:    6538
 k-point ** :  -0.4167 0.4167 0.2500  plane waves:    6559
 k-point ** :  -0.3333 0.4167 0.2500  plane waves:    6558
 k-point ** :  -0.2500 0.4167 0.2500  plane waves:    6565
 k-point ** :  -0.1667 0.4167 0.2500  plane waves:    6563
 k-point ** :  -0.0833 0.4167 0.2500  plane waves:    6562
 k-point ** :   0.0000 0.5000 0.2500  plane waves:    6564
 k-point ** :   0.0833 0.5000 0.2500  plane waves:    6556
 k-point ** :   0.1667 0.5000 0.2500  plane waves:    6570
 k-point ** :   0.2500 0.5000 0.2500  plane waves:    6566
 k-point ** :   0.3333 0.5000 0.2500  plane waves:    6552
 k-point ** :   0.4167 0.5000 0.2500  plane waves:    6562
 k-point ** :   0.5000 0.5000 0.2500  plane waves:    6564
 k-point ** :  -0.4167 0.5000 0.2500  plane waves:    6562
 k-point ** :  -0.3333 0.5000 0.2500  plane waves:    6552
 k-point ** :  -0.2500 0.5000 0.2500  plane waves:    6566
 k-point ** :  -0.1667 0.5000 0.2500  plane waves:    6570
 k-point ** :  -0.0833 0.5000 0.2500  plane waves:    6556
 k-point ** :   0.0000 0.0000 0.3750  plane waves:    6537
 k-point ** :   0.0833 0.0000 0.3750  plane waves:    6536
 k-point ** :   0.1667 0.0000 0.3750  plane waves:    6559
 k-point ** :   0.2500 0.0000 0.3750  plane waves:    6546
 k-point ** :   0.3333 0.0000 0.3750  plane waves:    6543
 k-point ** :   0.4167 0.0000 0.3750  plane waves:    6549
 k-point ** :   0.5000 0.0000 0.3750  plane waves:    6548
 k-point ** :  -0.4167 0.0000 0.3750  plane waves:    6549
 k-point ** :  -0.3333 0.0000 0.3750  plane waves:    6543
 k-point ** :  -0.2500 0.0000 0.3750  plane waves:    6546
 k-point ** :  -0.1667 0.0000 0.3750  plane waves:    6559
 k-point ** :  -0.0833 0.0000 0.3750  plane waves:    6536
 k-point ** :   0.0000 0.0833 0.3750  plane waves:    6538
 k-point ** :   0.0833 0.0833 0.3750  plane waves:    6547
 k-point ** :   0.1667 0.0833 0.3750  plane waves:    6547
 k-point ** :   0.2500 0.0833 0.3750  plane waves:    6547
 k-point ** :   0.3333 0.0833 0.3750  plane waves:    6556
 k-point ** :   0.4167 0.0833 0.3750  plane waves:    6547
 k-point ** :   0.5000 0.0833 0.3750  plane waves:    6538
 k-point ** :  -0.4167 0.0833 0.3750  plane waves:    6547
 k-point ** :  -0.3333 0.0833 0.3750  plane waves:    6556
 k-point ** :  -0.2500 0.0833 0.3750  plane waves:    6547
 k-point ** :  -0.1667 0.0833 0.3750  plane waves:    6547
 k-point ** :  -0.0833 0.0833 0.3750  plane waves:    6547
 k-point ** :   0.0000 0.1667 0.3750  plane waves:    6541
 k-point ** :   0.0833 0.1667 0.3750  plane waves:    6546
 k-point ** :   0.1667 0.1667 0.3750  plane waves:    6543
 k-point ** :   0.2500 0.1667 0.3750  plane waves:    6548
 k-point ** :   0.3333 0.1667 0.3750  plane waves:    6547
 k-point ** :   0.4167 0.1667 0.3750  plane waves:    6557
 k-point ** :   0.5000 0.1667 0.3750  plane waves:    6552
 k-point ** :  -0.4167 0.1667 0.3750  plane waves:    6557
 k-point ** :  -0.3333 0.1667 0.3750  plane waves:    6547
 k-point ** :  -0.2500 0.1667 0.3750  plane waves:    6548
 k-point ** :  -0.1667 0.1667 0.3750  plane waves:    6543
 k-point ** :  -0.0833 0.1667 0.3750  plane waves:    6546
 k-point ** :   0.0000 0.2500 0.3750  plane waves:    6538
 k-point ** :   0.0833 0.2500 0.3750  plane waves:    6548
 k-point ** :   0.1667 0.2500 0.3750  plane waves:    6539
 k-point ** :   0.2500 0.2500 0.3750  plane waves:    6546
 k-point ** :   0.3333 0.2500 0.3750  plane waves:    6557
 k-point ** :   0.4167 0.2500 0.3750  plane waves:    6566
 k-point ** :   0.5000 0.2500 0.3750  plane waves:    6562
 k-point ** :  -0.4167 0.2500 0.3750  plane waves:    6566
 k-point ** :  -0.3333 0.2500 0.3750  plane waves:    6557
 k-point ** :  -0.2500 0.2500 0.3750  plane waves:    6546
 k-point ** :  -0.1667 0.2500 0.3750  plane waves:    6539
 k-point ** :  -0.0833 0.2500 0.3750  plane waves:    6548
 k-point ** :   0.0000 0.3333 0.3750  plane waves:    6537
 k-point ** :   0.0833 0.3333 0.3750  plane waves:    6543
 k-point ** :   0.1667 0.3333 0.3750  plane waves:    6544
 k-point ** :   0.2500 0.3333 0.3750  plane waves:    6552
 k-point ** :   0.3333 0.3333 0.3750  plane waves:    6560
 k-point ** :   0.4167 0.3333 0.3750  plane waves:    6568
 k-point ** :   0.5000 0.3333 0.3750  plane waves:    6564
 k-point ** :  -0.4167 0.3333 0.3750  plane waves:    6568
 k-point ** :  -0.3333 0.3333 0.3750  plane waves:    6560
 k-point ** :  -0.2500 0.3333 0.3750  plane waves:    6552
 k-point ** :  -0.1667 0.3333 0.3750  plane waves:    6544
 k-point ** :  -0.0833 0.3333 0.3750  plane waves:    6543
 k-point ** :   0.0000 0.4167 0.3750  plane waves:    6539
 k-point ** :   0.0833 0.4167 0.3750  plane waves:    6552
 k-point ** :   0.1667 0.4167 0.3750  plane waves:    6556
 k-point ** :   0.2500 0.4167 0.3750  plane waves:    6549
 k-point ** :   0.3333 0.4167 0.3750  plane waves:    6556
 k-point ** :   0.4167 0.4167 0.3750  plane waves:    6563
 k-point ** :   0.5000 0.4167 0.3750  plane waves:    6586
 k-point ** :  -0.4167 0.4167 0.3750  plane waves:    6563
 k-point ** :  -0.3333 0.4167 0.3750  plane waves:    6556
 k-point ** :  -0.2500 0.4167 0.3750  plane waves:    6549
 k-point ** :  -0.1667 0.4167 0.3750  plane waves:    6556
 k-point ** :  -0.0833 0.4167 0.3750  plane waves:    6552
 k-point ** :   0.0000 0.5000 0.3750  plane waves:    6550
 k-point ** :   0.0833 0.5000 0.3750  plane waves:    6570
 k-point ** :   0.1667 0.5000 0.3750  plane waves:    6548
 k-point ** :   0.2500 0.5000 0.3750  plane waves:    6552
 k-point ** :   0.3333 0.5000 0.3750  plane waves:    6556
 k-point ** :   0.4167 0.5000 0.3750  plane waves:    6578
 k-point ** :   0.5000 0.5000 0.3750  plane waves:    6588
 k-point ** :  -0.4167 0.5000 0.3750  plane waves:    6578
 k-point ** :  -0.3333 0.5000 0.3750  plane waves:    6556
 k-point ** :  -0.2500 0.5000 0.3750  plane waves:    6552
 k-point ** :  -0.1667 0.5000 0.3750  plane waves:    6548
 k-point ** :  -0.0833 0.5000 0.3750  plane waves:    6570
 k-point ** :   0.0000 0.0000 0.5000  plane waves:    6558
 k-point ** :   0.0833 0.0000 0.5000  plane waves:    6534
 k-point ** :   0.1667 0.0000 0.5000  plane waves:    6528
 k-point ** :   0.2500 0.0000 0.5000  plane waves:    6546
 k-point ** :   0.3333 0.0000 0.5000  plane waves:    6550
 k-point ** :   0.4167 0.0000 0.5000  plane waves:    6532
 k-point ** :   0.5000 0.0000 0.5000  plane waves:    6528
 k-point ** :   0.0000 0.0833 0.5000  plane waves:    6528
 k-point ** :   0.0833 0.0833 0.5000  plane waves:    6544
 k-point ** :   0.1667 0.0833 0.5000  plane waves:    6530
 k-point ** :   0.2500 0.0833 0.5000  plane waves:    6536
 k-point ** :   0.3333 0.0833 0.5000  plane waves:    6546
 k-point ** :   0.4167 0.0833 0.5000  plane waves:    6514
 k-point ** :   0.5000 0.0833 0.5000  plane waves:    6532
 k-point ** :   0.0000 0.1667 0.5000  plane waves:    6528
 k-point ** :   0.0833 0.1667 0.5000  plane waves:    6532
 k-point ** :   0.1667 0.1667 0.5000  plane waves:    6520
 k-point ** :   0.2500 0.1667 0.5000  plane waves:    6542
 k-point ** :   0.3333 0.1667 0.5000  plane waves:    6542
 k-point ** :   0.4167 0.1667 0.5000  plane waves:    6546
 k-point ** :   0.5000 0.1667 0.5000  plane waves:    6544
 k-point ** :   0.0000 0.2500 0.5000  plane waves:    6530
 k-point ** :   0.0833 0.2500 0.5000  plane waves:    6522
 k-point ** :   0.1667 0.2500 0.5000  plane waves:    6524
 k-point ** :   0.2500 0.2500 0.5000  plane waves:    6548
 k-point ** :   0.3333 0.2500 0.5000  plane waves:    6550
 k-point ** :   0.4167 0.2500 0.5000  plane waves:    6552
 k-point ** :   0.5000 0.2500 0.5000  plane waves:    6572
 k-point ** :   0.0000 0.3333 0.5000  plane waves:    6536
 k-point ** :   0.0833 0.3333 0.5000  plane waves:    6532
 k-point ** :   0.1667 0.3333 0.5000  plane waves:    6534
 k-point ** :   0.2500 0.3333 0.5000  plane waves:    6542
 k-point ** :   0.3333 0.3333 0.5000  plane waves:    6546
 k-point ** :   0.4167 0.3333 0.5000  plane waves:    6562
 k-point ** :   0.5000 0.3333 0.5000  plane waves:    6572
 k-point ** :   0.0000 0.4167 0.5000  plane waves:    6530
 k-point ** :   0.0833 0.4167 0.5000  plane waves:    6516
 k-point ** :   0.1667 0.4167 0.5000  plane waves:    6528
 k-point ** :   0.2500 0.4167 0.5000  plane waves:    6542
 k-point ** :   0.3333 0.4167 0.5000  plane waves:    6570
 k-point ** :   0.4167 0.4167 0.5000  plane waves:    6586
 k-point ** :   0.5000 0.4167 0.5000  plane waves:    6584
 k-point ** :   0.0000 0.5000 0.5000  plane waves:    6520
 k-point ** :   0.0833 0.5000 0.5000  plane waves:    6528
 k-point ** :   0.1667 0.5000 0.5000  plane waves:    6520
 k-point ** :   0.2500 0.5000 0.5000  plane waves:    6548
 k-point ** :   0.3333 0.5000 0.5000  plane waves:    6584
 k-point ** :   0.4167 0.5000 0.5000  plane waves:    6596
 k-point ** :   0.5000 0.5000 0.5000  plane waves:    6576

 maximum and minimum number of plane-waves per node :      6596     6514

 maximum number of plane-waves:      6596
 maximum index in each direction: 
   IXMAX=   11   IYMAX=   14   IZMAX=    9
   IXMIN=  -11   IYMIN=  -15   IZMIN=   -9

 NGX is ok and might be reduce to  46
 NGY is ok and might be reduce to  60
 NGZ is ok and might be reduce to  38

 serial   3D FFT for wavefunctions
 parallel 3D FFT for charge:
    minimum data exchange during FFTs selected (reduces bandwidth)


 total amount of memory used by VASP on root node  1125619. kBytes
========================================================================

   base      :      30000. kBytes
   nonl-proj :     296767. kBytes
   fftplans  :      32156. kBytes
   grid      :      57185. kBytes
   one-center:         36. kBytes
   wavefun   :     709475. kBytes
 
     INWAV:  cpu time    0.00: real time    0.00
 Broyden mixing: mesh for mixing (old mesh)
   NGX = 23   NGY = 29   NGZ = 19
  (NGX  = 96   NGY  =120   NGZ  = 80)
  gives a total of  12673 points

 initial charge density was supplied:
 charge density of overlapping atoms calculated
 number of electron      24.0000000 magnetization 
 keeping initial charge density in first step


--------------------------------------------------------------------------------------------------------


 Maximum index for augmentation-charges        10338 (set IRDMAX)


--------------------------------------------------------------------------------------------------------


 First call to EWALD:  gamma=   0.352
 Maximum number of real-space cells 3x 2x 3
 Maximum number of reciprocal cells 3x 3x 2

 FEWALD executed in parallel
    FEWALD:  cpu time    0.00: real time    0.01


----------------------------------------- Iteration    1(   1)  ---------------------------------------


    POTLOK:  cpu time    1.30: real time    2.67
    SETDIJ:  cpu time    0.04: real time    0.09
     EDDAV:  cpu time  323.18: real time  646.56
 BZINTS: Fermi energy:  7.153938; 24.000000 electrons
         Band energy:-118.338414;  BLOECHL correction: -0.177378
       DOS:  cpu time    0.33: real time    0.67
    --------------------------------------------
      LOOP:  cpu time  324.86: real time  650.02

 eigenvalue-minimisations  : 13300
 total energy-change (2. order) : 0.8921589E+02  (-0.1254294E+04)
 number of electron      24.0000000 magnetization 
 augmentation part       24.0000000 magnetization 

 Free energy of the ion-electron system (eV)
  ---------------------------------------------------
  alpha Z        PSCENC =        18.98518062
  Ewald energy   TEWEN  =      -311.75839262
  -Hartree energ DENC   =      -255.59374513
  -exchange      EXHF   =         0.00000000
  -V(xc)+E(xc)   XCENC  =        72.07211723
  PAW double counting   =       157.57637806     -162.25035855
  entropy T*S    EENTRO =         0.00000000
  eigenvalues    EBANDS =      -118.33841371
  atomic energy  EATOM  =       688.52312443
  ---------------------------------------------------
  free energy    TOTEN  =        89.21589033 eV

  energy without entropy =       89.21589033  energy(sigma->0) =       89.21589033


--------------------------------------------------------------------------------------------------------




----------------------------------------- Iteration    1(   2)  ---------------------------------------


     EDDAV:  cpu time  380.89: real time 1749.08
 BZINTS: Fermi energy: -4.330606; 24.000000 electrons
         Band energy:-265.800391;  BLOECHL correction:  0.000000
       DOS:  cpu time    0.10: real time    0.50
    --------------------------------------------
      LOOP:  cpu time  380.99: real time 1749.59

 eigenvalue-minimisations  : 16845
 total energy-change (2. order) :-0.1474620E+03  (-0.1444212E+03)
 number of electron      24.0000000 magnetization 
 augmentation part       24.0000000 magnetization 

 Free energy of the ion-electron system (eV)
  ---------------------------------------------------
  alpha Z        PSCENC =        18.98518062
  Ewald energy   TEWEN  =      -311.75839262
  -Hartree energ DENC   =      -255.59374513
  -exchange      EXHF   =         0.00000000
  -V(xc)+E(xc)   XCENC  =        72.07211723
  PAW double counting   =       157.57637806     -162.25035855
  entropy T*S    EENTRO =         0.00000000
  eigenvalues    EBANDS =      -265.80039051
  atomic energy  EATOM  =       688.52312443
  ---------------------------------------------------
  free energy    TOTEN  =       -58.24608646 eV

  energy without entropy =      -58.24608646  energy(sigma->0) =      -58.24608646


--------------------------------------------------------------------------------------------------------




----------------------------------------- Iteration    1(   3)  ---------------------------------------


     EDDAV:  cpu time  383.45: real time 1917.61
 BZINTS: Fermi energy: -5.954369; 24.000000 electrons
         Band energy:-278.113648;  BLOECHL correction:  0.000000
       DOS:  cpu time    0.06: real time    0.32
    --------------------------------------------
      LOOP:  cpu time  383.51: real time 1917.96

 eigenvalue-minimisations  : 16973
 total energy-change (2. order) :-0.1231326E+02  (-0.1226741E+02)
 number of electron      24.0000000 magnetization 
 augmentation part       24.0000000 magnetization 

 Free energy of the ion-electron system (eV)
  ---------------------------------------------------
  alpha Z        PSCENC =        18.98518062
  Ewald energy   TEWEN  =      -311.75839262
  -Hartree energ DENC   =      -255.59374513
  -exchange      EXHF   =         0.00000000
  -V(xc)+E(xc)   XCENC  =        72.07211723
  PAW double counting   =       157.57637806     -162.25035855
  entropy T*S    EENTRO =         0.00000000
  eigenvalues    EBANDS =      -278.11364800
  atomic energy  EATOM  =       688.52312443
  ---------------------------------------------------
  free energy    TOTEN  =       -70.55934396 eV

  energy without entropy =      -70.55934396  energy(sigma->0) =      -70.55934396


--------------------------------------------------------------------------------------------------------




----------------------------------------- Iteration    1(   4)  ---------------------------------------


