ethylene                                
           1
     4.837314    0.000000    0.000000
     0.000000    6.416643    0.000000
     0.000000    0.000000    4.112214
   C    H 
   4   8
Direct configuration=     1
   0.88344002  0.05382000  0.95924997
   0.11656000  0.94617999  0.04075000
   0.61655998  0.55382001  0.54075003
   0.38344002  0.44617999  0.45925000
   0.81309998  0.16980000  0.11850000
   0.18690000  0.83020002  0.88150001
   0.68690002  0.66979998  0.38150001
   0.31309998  0.33020002  0.61849999
   0.75699997  0.02870000  0.73109996
   0.24300000  0.97130001  0.26890001
   0.74300003  0.52869999  0.76890004
   0.25700000  0.47130001  0.23109999
Direct configuration=     2
   0.89566486  0.04195400  0.94986677
   0.10433515  0.95804599  0.05013320
   0.60433514  0.54195401  0.55013323
   0.39566486  0.45804599  0.44986680
   0.80586334  0.17913276  0.12923725
   0.19413665  0.82086725  0.87076276
   0.69413666  0.67913275  0.37076276
   0.30586334  0.32086725  0.62923724
   0.76566529  0.02853065  0.74248817
   0.23433468  0.97146936  0.25751180
   0.73433471  0.52853064  0.75751183
   0.26566532  0.47146936  0.24248820
Direct configuration=     3
   0.88615442  0.05118527  0.95716653
   0.11384559  0.94881471  0.04283345
   0.61384558  0.55118529  0.54283347
   0.38615442  0.44881471  0.45716656
   0.81149316  0.17187225  0.12088410
   0.18850683  0.82812777  0.87911591
   0.68850684  0.67187223  0.37911591
   0.31149316  0.32812777  0.62088409
   0.75892402  0.02866240  0.73362860
   0.24107595  0.97133761  0.26637137
   0.74107598  0.52866239  0.76637140
   0.25892405  0.47133761  0.23362863
Direct configuration=     4
   0.88376872  0.05305575  0.95804351
   0.11623129  0.94694423  0.04195647
   0.61623128  0.55305577  0.54195649
   0.38376872  0.44694423  0.45804354
   0.80804259  0.17482564  0.12276196
   0.19195739  0.82517437  0.87723805
   0.69195741  0.67482563  0.37723805
   0.30804259  0.32517437  0.62276195
   0.76627003  0.02755532  0.74114892
   0.23372994  0.97244469  0.25885105
   0.73372997  0.52755531  0.75885108
   0.26627006  0.47244469  0.24114895
Direct configuration=     5
   0.88457178  0.05242612  0.95774830
   0.11542823  0.94757386  0.04225167
   0.61542822  0.55242614  0.54225170
   0.38457178  0.44757386  0.45774833
   0.80920410  0.17383149  0.12212984
   0.19079588  0.82616853  0.87787017
   0.69079590  0.67383147  0.37787017
   0.30920410  0.32616853  0.62212983
   0.76379726  0.02792798  0.73861747
   0.23620271  0.97207203  0.26138250
   0.73620274  0.52792797  0.76138253
   0.26379729  0.47207203  0.23861750
Direct configuration=     6
   0.88596238  0.05365902  0.96236724
   0.11403763  0.94634096  0.03763274
   0.61403762  0.55365904  0.53763276
   0.38596238  0.44634096  0.46236727
   0.80717483  0.17527335  0.12260381
   0.19282516  0.82472667  0.87739620
   0.69282517  0.67527333  0.37739620
   0.30717483  0.32472667  0.62260380
   0.76750556  0.02689861  0.74136289
   0.23249441  0.97310140  0.25863708
   0.73249444  0.52689860  0.75863711
   0.26750559  0.47310140  0.24136292
Direct configuration=     7
   0.88645972  0.05409996  0.96401917
   0.11354030  0.94590002  0.03598080
   0.61354028  0.55409998  0.53598083
   0.38645972  0.44590002  0.46401920
   0.80644907  0.17578902  0.12277332
   0.19355092  0.82421100  0.87722669
   0.69355093  0.67578900  0.37722669
   0.30644907  0.32421100  0.62277331
   0.76883181  0.02653046  0.74234477
   0.23116816  0.97346954  0.25765520
   0.73116819  0.52653046  0.75765523
   0.26883184  0.47346954  0.24234480
Direct configuration=     8
   0.88636229  0.05419220  0.96408589
   0.11363773  0.94580778  0.03591408
   0.61363771  0.55419222  0.53591411
   0.38636229  0.44580778  0.46408592
   0.80639349  0.17599614  0.12318765
   0.19360650  0.82400388  0.87681236
   0.69360651  0.67599612  0.37681236
   0.30639349  0.32400388  0.62318764
   0.76890784  0.02636124  0.74206995
   0.23109213  0.97363877  0.25793002
   0.73109216  0.52636123  0.75793005
   0.26890787  0.47363877  0.24206998
Direct configuration=     9
   0.88619080  0.05435455  0.96420332
   0.11380921  0.94564544  0.03579665
   0.61380920  0.55435456  0.53579668
   0.38619080  0.44564544  0.46420335
   0.80629566  0.17636066  0.12391686
   0.19370433  0.82363935  0.87608315
   0.69370434  0.67636065  0.37608315
   0.30629566  0.32363935  0.62391685
   0.76904164  0.02606341  0.74158626
   0.23095833  0.97393659  0.25841371
   0.73095836  0.52606341  0.75841374
   0.26904167  0.47393659  0.24158629
Direct configuration=    10
   0.88638304  0.05424284  0.96422100
   0.11361697  0.94575715  0.03577898
   0.61361696  0.55424285  0.53577900
   0.38638304  0.44575715  0.46422103
   0.80640966  0.17639287  0.12420261
   0.19359033  0.82360714  0.87579740
   0.69359034  0.67639286  0.37579740
   0.30640966  0.32360714  0.62420260
   0.76918468  0.02592912  0.74147901
   0.23081529  0.97407088  0.25852096
   0.73081532  0.52592912  0.75852099
   0.26918471  0.47407088  0.24147904
Direct configuration=    11
   0.88629965  0.05429130  0.96421333
   0.11370036  0.94570869  0.03578664
   0.61370035  0.55429131  0.53578667
   0.38629965  0.44570869  0.46421336
   0.80636021  0.17637890  0.12407866
   0.19363978  0.82362112  0.87592135
   0.69363979  0.67637888  0.37592135
   0.30636021  0.32362112  0.62407865
   0.76912263  0.02598738  0.74152553
   0.23087734  0.97401263  0.25847444
   0.73087737  0.52598737  0.75847447
   0.26912266  0.47401263  0.24152556
