32   
4    

1    
  0.0039623327368361  -0.0000001785908866   0.0091814987475195
  -0.2512160800    0.0044866400   -0.1359792100
   0.0341959200    0.0031182700   -0.0000884600
  -0.0084906300   -0.0215145100   -0.0000151200
  -0.0086364700    0.0278623800   -0.0001713900
  -0.0053154600    0.0031797000    0.0042847900
  -0.0052517700    0.0031843000    0.0046483500
  -0.0052962900    0.0031570100    0.0046481000
  -0.0052918200    0.0032018200    0.0046488300
   0.0056139800   -0.0033572300   -0.0051061700
   0.0045935200   -0.0035191300   -0.0055381100
   0.0052429300   -0.0025565700   -0.0053226000
   0.0047736200   -0.0031536700   -0.0027718400
   0.0048390000   -0.0027569700   -0.0053046600
   0.0058035400   -0.0029054400   -0.0048765900
   0.0054486200   -0.0036721300   -0.0050910900
   0.0049859300   -0.0031278500   -0.0023552500
   0.0067005900   -0.0020259200    0.0124133200
   0.0387258400   -0.0026413600    0.0421082100
   0.0893332200    0.0271175200    0.0425875400
   0.0902489600   -0.0318477300    0.0415582000
   0.0032825500   -0.0020304800   -0.0010290800
   0.0033050300   -0.0020290000   -0.0009101400
   0.0032804000   -0.0020416000   -0.0009130500
   0.0032791200   -0.0020164500   -0.0009057700
  -0.0046439800    0.0027556100    0.0029255300
  -0.0013804900    0.0032208900    0.0033027400
  -0.0034163500    0.0001660100    0.0031207000
  -0.0028566100    0.0020440700    0.0003122000
  -0.0013779400    0.0008131100    0.0033223400
  -0.0044204100    0.0012781600    0.0029666600
  -0.0033028700    0.0036874800    0.0031271900
  -0.0027555800    0.0019231000    0.0004038300

1    
 -0.0039623327368361   0.0000001785908866  -0.0091814987475195
   0.2401889100    0.0043775300    0.1360341700
  -0.0452270100    0.0031123300    0.0001037100
  -0.0023920500    0.0278634800    0.0001759300
  -0.0025127100   -0.0215305500    0.0000383600
  -0.0057160800    0.0031762700   -0.0043014600
  -0.0057778100    0.0031784100   -0.0046646400
  -0.0057380000    0.0031995700   -0.0046649400
  -0.0057347900    0.0031483700   -0.0046645000
   0.0051915000   -0.0030350300    0.0047592400
   0.0061771000   -0.0028762800    0.0051878400
   0.0055496900   -0.0038046400    0.0049711300
   0.0060101000   -0.0032204300    0.0022351300
   0.0064217200   -0.0035937700    0.0056467300
   0.0054106100   -0.0034347100    0.0052153400
   0.0057799500   -0.0026288300    0.0054335600
   0.0062460900   -0.0032103500    0.0028813600
   0.0001731700   -0.0018899300   -0.0124202100
  -0.0318545800   -0.0024708900   -0.0421201000
  -0.0833117500   -0.0316733000   -0.0416248300
  -0.0825139700    0.0272828500   -0.0425448000
   0.0037437700   -0.0020175900    0.0010532100
   0.0037239400   -0.0020167800    0.0009343700
   0.0037479600   -0.0020006600    0.0009320400
   0.0037482400   -0.0020321000    0.0009353200
  -0.0023796200    0.0013464100   -0.0030166800
  -0.0054410800    0.0008898100   -0.0033590200
  -0.0035126900    0.0037549500   -0.0031994300
  -0.0040696200    0.0020016000   -0.0004468600
  -0.0056769700    0.0032033000   -0.0032752800
  -0.0024158900    0.0027370800   -0.0028882300
  -0.0036412900    0.0001406800   -0.0030680800
  -0.0041968200    0.0020231900   -0.0002783900

17   
  0.0039623327368361  -0.0000001785908866   0.0091814987475195
  -0.0024221000    0.0032101800    0.0085341000
   0.0295888200    0.0038029700    0.0382247000
   0.0810683800    0.0329901100    0.0376955800
   0.0802805800   -0.0259899300    0.0386903200
  -0.0057673100    0.0031747400   -0.0049958800
  -0.0057431000    0.0031858600   -0.0048766000
  -0.0057766900    0.0031615900   -0.0048757100
  -0.0057608300    0.0031781200   -0.0048757600
   0.0056189700   -0.0031711300    0.0064037200
   0.0064701300   -0.0026478000    0.0077788200
   0.0055946300   -0.0036273900    0.0070868000
   0.0061832900   -0.0031381100    0.0042880200
   0.0065435600   -0.0035876900    0.0076932400
   0.0057071800   -0.0031690300    0.0063448100
   0.0057670100   -0.0026730000    0.0070184700
   0.0062831700   -0.0031435400    0.0042767100
  -0.2383936700   -0.0035929300   -0.1424893800
   0.0462733500   -0.0022974500   -0.0052250000
   0.0062833400   -0.0254211600   -0.0052909000
   0.0064207800    0.0206965900   -0.0051755800
   0.0035854000   -0.0018339600    0.0008613500
   0.0035197700   -0.0018355000    0.0003390400
   0.0035408600   -0.0018124000    0.0003397500
   0.0035349000   -0.0018457800    0.0003403100
  -0.0061335200    0.0022230400    0.0006330400
  -0.0059006200    0.0020255800    0.0007636000
  -0.0058437000    0.0019157300    0.0006842500
  -0.0065416100    0.0020500300   -0.0010191500
  -0.0058080900    0.0020925000    0.0006681900
  -0.0060516500    0.0018549700    0.0005822500
  -0.0057198700    0.0021802700    0.0006163000
  -0.0064013500    0.0020445000   -0.0010394100

17   
 -0.0039623327368361   0.0000001785908866  -0.0091814987475195
  -0.0089625200    0.0032432700   -0.0087679600
  -0.0409841000    0.0038589800   -0.0384622000
  -0.0916131600   -0.0259106700   -0.0389685900
  -0.0924980200    0.0330573300   -0.0379020400
  -0.0056932200    0.0032283700    0.0046091300
  -0.0057096700    0.0032347000    0.0044908400
  -0.0056921000    0.0032462200    0.0044903800
  -0.0056865100    0.0032092700    0.0044908200
   0.0054944800   -0.0031958800   -0.0063348300
   0.0046567000   -0.0035926400   -0.0076767700
   0.0054178200   -0.0026846800   -0.0070073500
   0.0049091500   -0.0031504600   -0.0042652900
   0.0047381100   -0.0026765000   -0.0071729100
   0.0055705000   -0.0031942300   -0.0057950500
   0.0055991800   -0.0036375400   -0.0064806800
   0.0050104400   -0.0031638000   -0.0036822500
   0.2496239100   -0.0042228800    0.1427305800
  -0.0350234000   -0.0028225900    0.0055158100
   0.0048095300    0.0201564400    0.0054481200
   0.0049518100   -0.0259345400    0.0055960700
   0.0044841800   -0.0023919200   -0.0009363700
   0.0045543800   -0.0023902000   -0.0004140600
   0.0045340800   -0.0023940800   -0.0004132700
   0.0045316500   -0.0023818700   -0.0004160100
  -0.0033062000    0.0024000500   -0.0008057300
  -0.0035556800    0.0026443900   -0.0008835500
  -0.0036433700    0.0027277700   -0.0008433700
  -0.0029789000    0.0025960500    0.0008130800
  -0.0035973500    0.0025108000   -0.0007302900
  -0.0033424400    0.0027127100   -0.0006067300
  -0.0036480000    0.0023894600   -0.0006629400
  -0.0029512800    0.0025286600    0.0010433800
