  32  32   0   0
  0.9079817E+01  0.4932875E-09  0.4932875E-09  0.1379404E-08  0.5000000E-15
  1.000000000000000E-004
  CAR 
 graphite                                
     15.25213528    -17.16720276  301      4.43851311      1.00000000
    -17.167  0.0000E+00  0.0000E+00
    -17.059  0.0000E+00  0.0000E+00
    -16.951  0.0000E+00  0.0000E+00
    -16.843  0.0000E+00  0.0000E+00
    -16.735  0.0000E+00  0.0000E+00
    -16.627  0.0000E+00  0.0000E+00
    -16.519  0.0000E+00  0.0000E+00
    -16.411  0.0000E+00  0.0000E+00
    -16.303  0.0000E+00  0.0000E+00
    -16.195  0.0000E+00  0.0000E+00
    -16.087  0.0000E+00  0.0000E+00
    -15.978  0.0000E+00  0.0000E+00
    -15.870  0.0000E+00  0.0000E+00
    -15.762  0.0000E+00  0.0000E+00
    -15.654  0.0000E+00  0.0000E+00
    -15.546  0.0000E+00  0.0000E+00
    -15.438  0.0000E+00  0.0000E+00
    -15.330  0.0000E+00  0.0000E+00
    -15.222  0.0000E+00  0.0000E+00
    -15.114  0.1177E+01  0.2422E-01
    -15.006  0.2716E+01  0.2464E+00
    -14.898  0.4890E+01  0.6460E+00
    -14.790  0.4876E+01  0.1174E+01
    -14.682  0.4947E+01  0.1710E+01
    -14.574  0.4938E+01  0.2242E+01
    -14.466  0.4948E+01  0.2777E+01
    -14.358  0.4908E+01  0.3307E+01
    -14.249  0.5001E+01  0.3843E+01
    -14.141  0.4989E+01  0.4382E+01
    -14.033  0.4974E+01  0.4921E+01
    -13.925  0.5672E+01  0.5492E+01
    -13.817  0.5957E+01  0.6123E+01
    -13.709  0.6635E+01  0.6832E+01
    -13.601  0.4623E+01  0.7417E+01
    -13.493  0.1749E+01  0.7744E+01
    -13.385  0.3629E+01  0.8006E+01
    -13.277  0.4396E+01  0.8470E+01
    -13.169  0.4574E+01  0.8958E+01
    -13.061  0.6221E+01  0.9710E+01
    -12.953  0.6386E+01  0.1044E+02
    -12.845  0.4358E+01  0.1095E+02
    -12.737  0.4516E+01  0.1142E+02
    -12.628  0.4634E+01  0.1192E+02
    -12.520  0.4746E+01  0.1243E+02
    -12.412  0.5221E+01  0.1296E+02
    -12.304  0.5789E+01  0.1355E+02
    -12.196  0.5532E+01  0.1418E+02
    -12.088  0.5561E+01  0.1477E+02
    -11.980  0.5141E+01  0.1535E+02
    -11.872  0.4806E+01  0.1589E+02
    -11.764  0.4913E+01  0.1642E+02
    -11.656  0.5003E+01  0.1695E+02
    -11.548  0.5060E+01  0.1750E+02
    -11.440  0.5170E+01  0.1805E+02
    -11.332  0.5507E+01  0.1862E+02
    -11.224  0.5867E+01  0.1924E+02
    -11.116  0.5750E+01  0.1987E+02
    -11.008  0.5696E+01  0.2049E+02
    -10.899  0.5774E+01  0.2111E+02
    -10.791  0.5306E+01  0.2172E+02
    -10.683  0.4648E+01  0.2224E+02
    -10.575  0.5255E+01  0.2279E+02
    -10.467  0.5339E+01  0.2336E+02
    -10.359  0.5454E+01  0.2394E+02
    -10.251  0.5659E+01  0.2454E+02
    -10.143  0.5900E+01  0.2517E+02
    -10.035  0.7421E+01  0.2587E+02
     -9.927  0.1020E+02  0.2686E+02
     -9.819  0.6841E+01  0.2777E+02
     -9.711  0.5932E+01  0.2841E+02
     -9.603  0.6191E+01  0.2913E+02
     -9.495  0.3607E+01  0.2964E+02
     -9.387  0.3239E+01  0.3001E+02
     -9.278  0.2870E+01  0.3034E+02
     -9.170  0.2501E+01  0.3063E+02
     -9.062  0.2372E+01  0.3088E+02
     -8.954  0.3219E+01  0.3121E+02
     -8.846  0.1848E+01  0.3148E+02
     -8.738  0.1581E+01  0.3164E+02
     -8.630  0.2484E+01  0.3186E+02
     -8.522  0.6454E+01  0.3227E+02
     -8.414  0.4477E+01  0.3302E+02
     -8.306  0.3901E+01  0.3346E+02
     -8.198  0.4228E+01  0.3390E+02
     -8.090  0.6995E+01  0.3452E+02
     -7.982  0.6222E+01  0.3530E+02
     -7.874  0.7294E+01  0.3603E+02
     -7.766  0.8375E+01  0.3688E+02
     -7.658  0.8268E+01  0.3783E+02
     -7.549  0.6303E+01  0.3858E+02
     -7.441  0.6044E+01  0.3925E+02
     -7.333  0.5787E+01  0.3989E+02
     -7.225  0.5553E+01  0.4050E+02
     -7.117  0.5361E+01  0.4109E+02
     -7.009  0.5181E+01  0.4166E+02
     -6.901  0.4987E+01  0.4221E+02
     -6.793  0.4851E+01  0.4274E+02
     -6.685  0.4823E+01  0.4326E+02
     -6.577  0.4793E+01  0.4378E+02
     -6.469  0.4650E+01  0.4429E+02
     -6.361  0.4424E+01  0.4478E+02
     -6.253  0.4371E+01  0.4526E+02
     -6.145  0.4048E+01  0.4567E+02
     -6.037  0.4258E+01  0.4611E+02
     -5.928  0.4885E+01  0.4661E+02
     -5.820  0.5694E+01  0.4718E+02
     -5.712  0.6471E+01  0.4784E+02
     -5.604  0.1062E+02  0.4873E+02
     -5.496  0.8743E+01  0.4979E+02
     -5.388  0.6483E+01  0.5061E+02
     -5.280  0.4224E+01  0.5119E+02
     -5.172  0.2662E+01  0.5154E+02
     -5.064  0.2981E+01  0.5184E+02
     -4.956  0.4198E+01  0.5222E+02
     -4.848  0.5514E+01  0.5275E+02
     -4.740  0.7062E+01  0.5342E+02
     -4.632  0.8093E+01  0.5426E+02
     -4.524  0.6907E+01  0.5508E+02
     -4.416  0.5690E+01  0.5576E+02
     -4.308  0.6980E+01  0.5639E+02
     -4.199  0.7310E+01  0.5720E+02
     -4.091  0.6795E+01  0.5796E+02
     -3.983  0.6281E+01  0.5867E+02
     -3.875  0.6218E+01  0.5933E+02
     -3.767  0.6580E+01  0.6000E+02
     -3.659  0.1288E+02  0.6107E+02
     -3.551  0.9140E+01  0.6221E+02
     -3.443  0.7950E+01  0.6314E+02
     -3.335  0.6966E+01  0.6394E+02
     -3.227  0.6781E+01  0.6467E+02
     -3.119  0.7493E+01  0.6544E+02
     -3.011  0.8559E+01  0.6631E+02
     -2.903  0.1024E+02  0.6731E+02
     -2.795  0.1445E+02  0.6863E+02
     -2.687  0.1274E+02  0.7019E+02
     -2.579  0.1217E+02  0.7148E+02
     -2.470  0.1293E+02  0.7286E+02
     -2.362  0.1417E+02  0.7424E+02
     -2.254  0.1359E+02  0.7580E+02
     -2.146  0.1714E+02  0.7725E+02
     -2.038  0.1266E+02  0.7909E+02
     -1.930  0.1368E+02  0.8036E+02
     -1.822  0.1643E+02  0.8245E+02
     -1.714  0.1797E+02  0.8438E+02
     -1.606  0.1537E+02  0.8624E+02
     -1.498  0.1169E+02  0.8770E+02
     -1.390  0.9971E+01  0.8886E+02
     -1.282  0.9423E+01  0.8989E+02
     -1.174  0.7984E+01  0.9085E+02
     -1.066  0.1083E+02  0.9185E+02
     -0.958  0.1299E+02  0.9319E+02
     -0.849  0.1573E+02  0.9462E+02
     -0.741  0.9163E+01  0.9608E+02
     -0.633  0.1005E+02  0.9713E+02
     -0.525  0.1084E+02  0.9828E+02
     -0.417  0.1040E+02  0.9939E+02
     -0.309  0.1122E+02  0.1006E+03
     -0.201  0.9409E+01  0.1016E+03
     -0.093  0.1007E+02  0.1027E+03
      0.015  0.9679E+01  0.1038E+03
      0.123  0.9583E+01  0.1048E+03
      0.231  0.9253E+01  0.1058E+03
      0.339  0.9171E+01  0.1068E+03
      0.447  0.9494E+01  0.1078E+03
      0.555  0.9420E+01  0.1088E+03
      0.663  0.9405E+01  0.1098E+03
      0.771  0.9200E+01  0.1109E+03
      0.880  0.9109E+01  0.1118E+03
      0.988  0.9435E+01  0.1128E+03
      1.096  0.9534E+01  0.1139E+03
      1.204  0.9898E+01  0.1149E+03
      1.312  0.1020E+02  0.1160E+03
      1.420  0.7499E+01  0.1170E+03
      1.528  0.6570E+01  0.1177E+03
      1.636  0.5761E+01  0.1184E+03
      1.744  0.4882E+01  0.1190E+03
      1.852  0.3851E+01  0.1194E+03
      1.960  0.3773E+01  0.1199E+03
      2.068  0.6398E+01  0.1204E+03
      2.176  0.9849E+01  0.1212E+03
      2.284  0.5510E+01  0.1221E+03
      2.392  0.9322E+01  0.1230E+03
      2.501  0.6375E+01  0.1239E+03
      2.609  0.5090E+01  0.1245E+03
      2.717  0.4329E+01  0.1250E+03
      2.825  0.3684E+01  0.1254E+03
      2.933  0.3258E+01  0.1258E+03
      3.041  0.3101E+01  0.1261E+03
      3.149  0.2868E+01  0.1264E+03
      3.257  0.2420E+01  0.1267E+03
      3.365  0.2073E+01  0.1270E+03
      3.473  0.1843E+01  0.1272E+03
      3.581  0.1607E+01  0.1274E+03
      3.689  0.1367E+01  0.1275E+03
      3.797  0.1133E+01  0.1277E+03
      3.905  0.9090E+00  0.1278E+03
      4.013  0.6877E+00  0.1279E+03
      4.121  0.4915E+00  0.1279E+03
      4.230  0.3106E+00  0.1280E+03
      4.338  0.1423E+00  0.1280E+03
      4.446  0.8964E-03  0.1280E+03
      4.554  0.1185E+00  0.1280E+03
      4.662  0.2507E+00  0.1280E+03
      4.770  0.3981E+00  0.1281E+03
      4.878  0.5633E+00  0.1281E+03
      4.986  0.7566E+00  0.1282E+03
      5.094  0.1004E+01  0.1283E+03
      5.202  0.1367E+01  0.1284E+03
      5.310  0.1746E+01  0.1286E+03
      5.418  0.2095E+01  0.1288E+03
      5.526  0.2498E+01  0.1290E+03
      5.634  0.2930E+01  0.1293E+03
      5.742  0.3329E+01  0.1297E+03
      5.851  0.4247E+01  0.1301E+03
      5.959  0.6677E+01  0.1307E+03
      6.067  0.7986E+01  0.1317E+03
      6.175  0.8447E+01  0.1326E+03
      6.283  0.8155E+01  0.1335E+03
      6.391  0.7313E+01  0.1344E+03
      6.499  0.6401E+01  0.1351E+03
      6.607  0.6181E+01  0.1358E+03
      6.715  0.5607E+01  0.1364E+03
      6.823  0.5050E+01  0.1370E+03
      6.931  0.4499E+01  0.1375E+03
      7.039  0.3755E+01  0.1380E+03
      7.147  0.3595E+01  0.1384E+03
      7.255  0.3854E+01  0.1388E+03
      7.363  0.4390E+01  0.1392E+03
      7.471  0.4684E+01  0.1397E+03
      7.580  0.4649E+01  0.1402E+03
      7.688  0.4493E+01  0.1407E+03
      7.796  0.4344E+01  0.1412E+03
      7.904  0.4189E+01  0.1416E+03
      8.012  0.4036E+01  0.1421E+03
      8.120  0.3865E+01  0.1425E+03
      8.228  0.3714E+01  0.1429E+03
      8.336  0.3591E+01  0.1433E+03
      8.444  0.3511E+01  0.1437E+03
      8.552  0.3454E+01  0.1441E+03
      8.660  0.3667E+01  0.1445E+03
      8.768  0.3836E+01  0.1449E+03
      8.876  0.3924E+01  0.1453E+03
      8.984  0.4080E+01  0.1457E+03
      9.092  0.4177E+01  0.1462E+03
      9.201  0.4263E+01  0.1466E+03
      9.309  0.4246E+01  0.1471E+03
      9.417  0.4059E+01  0.1475E+03
      9.525  0.4031E+01  0.1480E+03
      9.633  0.4005E+01  0.1484E+03
      9.741  0.4029E+01  0.1488E+03
      9.849  0.4069E+01  0.1493E+03
      9.957  0.4178E+01  0.1497E+03
     10.065  0.4347E+01  0.1502E+03
     10.173  0.4417E+01  0.1506E+03
     10.281  0.4573E+01  0.1511E+03
     10.389  0.5480E+01  0.1516E+03
     10.497  0.5212E+01  0.1523E+03
     10.605  0.5697E+01  0.1528E+03
     10.713  0.4627E+01  0.1533E+03
     10.821  0.4351E+01  0.1538E+03
     10.930  0.3748E+01  0.1544E+03
     11.038  0.4005E+01  0.1548E+03
     11.146  0.3981E+01  0.1552E+03
     11.254  0.3852E+01  0.1557E+03
     11.362  0.2927E+01  0.1560E+03
     11.470  0.2789E+01  0.1563E+03
     11.578  0.4278E+01  0.1567E+03
     11.686  0.4849E+01  0.1572E+03
     11.794  0.6673E+01  0.1578E+03
     11.902  0.1028E+02  0.1588E+03
     12.010  0.1194E+02  0.1600E+03
     12.118  0.1345E+02  0.1614E+03
     12.226  0.1360E+02  0.1629E+03
     12.334  0.1117E+02  0.1642E+03
     12.442  0.8610E+01  0.1653E+03
     12.551  0.6324E+01  0.1661E+03
     12.659  0.5380E+01  0.1667E+03
     12.767  0.4356E+01  0.1673E+03
     12.875  0.2578E+01  0.1676E+03
     12.983  0.1564E+01  0.1679E+03
     13.091  0.5912E+00  0.1680E+03
     13.199  0.1721E-01  0.1680E+03
     13.307  0.0000E+00  0.1680E+03
     13.415  0.0000E+00  0.1680E+03
     13.523  0.0000E+00  0.1680E+03
     13.631  0.0000E+00  0.1680E+03
     13.739  0.0000E+00  0.1680E+03
     13.847  0.0000E+00  0.1680E+03
     13.955  0.0000E+00  0.1680E+03
     14.063  0.0000E+00  0.1680E+03
     14.171  0.0000E+00  0.1680E+03
     14.280  0.0000E+00  0.1680E+03
     14.388  0.0000E+00  0.1680E+03
     14.496  0.0000E+00  0.1680E+03
     14.604  0.0000E+00  0.1680E+03
     14.712  0.0000E+00  0.1680E+03
     14.820  0.0000E+00  0.1680E+03
     14.928  0.0000E+00  0.1680E+03
     15.036  0.0000E+00  0.1680E+03
     15.144  0.0000E+00  0.1680E+03
     15.252  0.0000E+00  0.1680E+03
