  32  32   0   0
  0.8381369E+01  0.4932875E-09  0.4932875E-09  0.1273296E-08  0.5000000E-15
  1.000000000000000E-004
  CAR 
 graphite                                
     16.75688432    -16.54513896  301      5.13803388      1.00000000
    -16.545  0.0000E+00  0.0000E+00
    -16.434  0.0000E+00  0.0000E+00
    -16.323  0.0000E+00  0.0000E+00
    -16.212  0.0000E+00  0.0000E+00
    -16.101  0.0000E+00  0.0000E+00
    -15.990  0.0000E+00  0.0000E+00
    -15.879  0.0000E+00  0.0000E+00
    -15.768  0.0000E+00  0.0000E+00
    -15.657  0.0000E+00  0.0000E+00
    -15.546  0.0000E+00  0.0000E+00
    -15.435  0.0000E+00  0.0000E+00
    -15.324  0.0000E+00  0.0000E+00
    -15.213  0.0000E+00  0.0000E+00
    -15.102  0.0000E+00  0.0000E+00
    -14.991  0.0000E+00  0.0000E+00
    -14.880  0.0000E+00  0.0000E+00
    -14.769  0.0000E+00  0.0000E+00
    -14.658  0.0000E+00  0.0000E+00
    -14.547  0.0000E+00  0.0000E+00
    -14.436  0.1462E+01  0.8829E-01
    -14.325  0.2407E+01  0.3007E+00
    -14.214  0.3133E+01  0.6098E+00
    -14.103  0.4326E+01  0.1014E+01
    -13.992  0.4897E+01  0.1554E+01
    -13.881  0.4928E+01  0.2104E+01
    -13.770  0.4908E+01  0.2645E+01
    -13.659  0.5020E+01  0.3196E+01
    -13.548  0.4918E+01  0.3748E+01
    -13.437  0.4947E+01  0.4294E+01
    -13.326  0.5363E+01  0.4858E+01
    -13.215  0.5594E+01  0.5469E+01
    -13.104  0.6545E+01  0.6127E+01
    -12.993  0.6114E+01  0.6852E+01
    -12.882  0.4029E+01  0.7382E+01
    -12.771  0.2704E+01  0.7716E+01
    -12.660  0.3477E+01  0.8070E+01
    -12.549  0.4040E+01  0.8463E+01
    -12.438  0.6220E+01  0.9142E+01
    -12.327  0.5366E+01  0.9771E+01
    -12.216  0.5953E+01  0.1038E+02
    -12.105  0.4463E+01  0.1100E+02
    -11.994  0.4764E+01  0.1151E+02
    -11.883  0.5003E+01  0.1205E+02
    -11.772  0.4997E+01  0.1261E+02
    -11.661  0.5046E+01  0.1317E+02
    -11.550  0.5271E+01  0.1373E+02
    -11.439  0.5819E+01  0.1436E+02
    -11.328  0.5018E+01  0.1495E+02
    -11.217  0.5021E+01  0.1551E+02
    -11.106  0.5050E+01  0.1607E+02
    -10.995  0.5120E+01  0.1663E+02
    -10.884  0.5196E+01  0.1720E+02
    -10.773  0.5289E+01  0.1778E+02
    -10.662  0.5531E+01  0.1838E+02
    -10.551  0.5672E+01  0.1900E+02
    -10.440  0.5993E+01  0.1965E+02
    -10.329  0.5972E+01  0.2031E+02
    -10.218  0.6026E+01  0.2098E+02
    -10.107  0.5310E+01  0.2162E+02
     -9.996  0.4308E+01  0.2214E+02
     -9.885  0.4358E+01  0.2261E+02
     -9.774  0.5099E+01  0.2314E+02
     -9.663  0.5388E+01  0.2373E+02
     -9.552  0.5579E+01  0.2434E+02
     -9.441  0.5866E+01  0.2497E+02
     -9.330  0.7003E+01  0.2570E+02
     -9.219  0.8701E+01  0.2655E+02
     -9.108  0.8420E+01  0.2759E+02
     -8.997  0.6833E+01  0.2842E+02
     -8.886  0.5157E+01  0.2905E+02
     -8.775  0.3660E+01  0.2961E+02
     -8.664  0.3273E+01  0.3000E+02
     -8.553  0.2886E+01  0.3034E+02
     -8.442  0.2499E+01  0.3064E+02
     -8.331  0.2907E+01  0.3092E+02
     -8.220  0.2473E+01  0.3123E+02
     -8.109  0.1971E+01  0.3148E+02
     -7.998  0.1861E+01  0.3167E+02
     -7.887  0.2919E+01  0.3193E+02
     -7.776  0.6414E+01  0.3254E+02
     -7.665  0.4260E+01  0.3312E+02
     -7.554  0.4015E+01  0.3358E+02
     -7.443  0.5840E+01  0.3406E+02
     -7.332  0.6522E+01  0.3476E+02
     -7.221  0.6526E+01  0.3554E+02
     -7.110  0.7627E+01  0.3633E+02
     -6.999  0.8959E+01  0.3725E+02
     -6.888  0.7534E+01  0.3815E+02
     -6.777  0.6180E+01  0.3888E+02
     -6.666  0.5893E+01  0.3955E+02
     -6.555  0.5640E+01  0.4019E+02
     -6.444  0.5433E+01  0.4081E+02
     -6.333  0.5245E+01  0.4140E+02
     -6.222  0.5057E+01  0.4197E+02
     -6.111  0.4887E+01  0.4252E+02
     -5.999  0.4832E+01  0.4306E+02
     -5.888  0.4804E+01  0.4360E+02
     -5.777  0.4667E+01  0.4413E+02
     -5.666  0.4536E+01  0.4464E+02
     -5.555  0.4365E+01  0.4513E+02
     -5.444  0.3626E+01  0.4555E+02
     -5.333  0.4221E+01  0.4599E+02
     -5.222  0.4888E+01  0.4649E+02
     -5.111  0.5651E+01  0.4708E+02
     -5.000  0.6693E+01  0.4775E+02
     -4.889  0.9025E+01  0.4865E+02
     -4.778  0.9215E+01  0.4973E+02
     -4.667  0.6639E+01  0.5061E+02
     -4.556  0.4063E+01  0.5120E+02
     -4.445  0.2422E+01  0.5154E+02
     -4.334  0.2940E+01  0.5182E+02
     -4.223  0.4210E+01  0.5221E+02
     -4.112  0.5715E+01  0.5276E+02
     -4.001  0.7514E+01  0.5350E+02
     -3.890  0.8043E+01  0.5438E+02
     -3.779  0.6849E+01  0.5521E+02
     -3.668  0.5723E+01  0.5590E+02
     -3.557  0.7039E+01  0.5653E+02
     -3.446  0.7958E+01  0.5741E+02
     -3.335  0.7625E+01  0.5827E+02
     -3.224  0.7527E+01  0.5911E+02
     -3.113  0.7751E+01  0.5996E+02
     -3.002  0.9865E+01  0.6086E+02
     -2.891  0.1091E+02  0.6188E+02
     -2.780  0.9257E+01  0.6287E+02
     -2.669  0.8296E+01  0.6385E+02
     -2.558  0.7035E+01  0.6470E+02
     -2.447  0.7409E+01  0.6549E+02
     -2.336  0.8577E+01  0.6637E+02
     -2.225  0.1035E+02  0.6741E+02
     -2.114  0.1210E+02  0.6868E+02
     -2.003  0.1215E+02  0.7009E+02
     -1.892  0.1034E+02  0.7133E+02
     -1.781  0.1188E+02  0.7257E+02
     -1.670  0.1282E+02  0.7393E+02
     -1.559  0.1484E+02  0.7552E+02
     -1.448  0.1392E+02  0.7704E+02
     -1.337  0.1353E+02  0.7872E+02
     -1.226  0.1158E+02  0.7991E+02
     -1.115  0.1957E+02  0.8180E+02
     -1.004  0.1907E+02  0.8393E+02
     -0.893  0.1526E+02  0.8582E+02
     -0.782  0.1301E+02  0.8739E+02
     -0.671  0.1103E+02  0.8871E+02
     -0.560  0.1019E+02  0.8991E+02
     -0.449  0.7785E+01  0.9088E+02
     -0.338  0.1022E+02  0.9184E+02
     -0.227  0.1427E+02  0.9327E+02
     -0.116  0.1494E+02  0.9487E+02
     -0.005  0.8873E+01  0.9623E+02
      0.106  0.8776E+01  0.9719E+02
      0.217  0.9745E+01  0.9821E+02
      0.328  0.1014E+02  0.9930E+02
      0.439  0.1079E+02  0.1005E+03
      0.550  0.1134E+02  0.1018E+03
      0.661  0.9597E+01  0.1029E+03
      0.772  0.9373E+01  0.1039E+03
      0.883  0.9347E+01  0.1050E+03
      0.994  0.9435E+01  0.1060E+03
      1.105  0.9800E+01  0.1071E+03
      1.216  0.9203E+01  0.1082E+03
      1.327  0.9213E+01  0.1092E+03
      1.438  0.9389E+01  0.1102E+03
      1.549  0.9929E+01  0.1113E+03
      1.660  0.9373E+01  0.1123E+03
      1.771  0.8760E+01  0.1134E+03
      1.882  0.9210E+01  0.1143E+03
      1.993  0.9309E+01  0.1154E+03
      2.104  0.8728E+01  0.1164E+03
      2.215  0.6282E+01  0.1172E+03
      2.326  0.5774E+01  0.1179E+03
      2.437  0.5575E+01  0.1185E+03
      2.548  0.5223E+01  0.1191E+03
      2.659  0.4872E+01  0.1197E+03
      2.770  0.7088E+01  0.1203E+03
      2.881  0.8259E+01  0.1212E+03
      2.992  0.6629E+01  0.1221E+03
      3.103  0.4180E+01  0.1227E+03
      3.214  0.6030E+01  0.1233E+03
      3.325  0.6136E+01  0.1239E+03
      3.436  0.5715E+01  0.1247E+03
      3.547  0.4512E+01  0.1252E+03
      3.658  0.3647E+01  0.1257E+03
      3.769  0.3166E+01  0.1260E+03
      3.880  0.2856E+01  0.1264E+03
      3.991  0.2535E+01  0.1267E+03
      4.102  0.2108E+01  0.1269E+03
      4.213  0.1812E+01  0.1272E+03
      4.324  0.1555E+01  0.1273E+03
      4.435  0.1328E+01  0.1275E+03
      4.546  0.1134E+01  0.1276E+03
      4.657  0.9711E+00  0.1278E+03
      4.768  0.8255E+00  0.1279E+03
      4.879  0.5619E+00  0.1279E+03
      4.990  0.3054E+00  0.1280E+03
      5.101  0.5564E-01  0.1280E+03
      5.212  0.7380E-01  0.1280E+03
      5.323  0.2205E+00  0.1280E+03
      5.434  0.3760E+00  0.1281E+03
      5.545  0.5410E+00  0.1281E+03
      5.656  0.7203E+00  0.1282E+03
      5.767  0.9148E+00  0.1283E+03
      5.878  0.1122E+01  0.1284E+03
      5.989  0.1406E+01  0.1285E+03
      6.100  0.1718E+01  0.1287E+03
      6.211  0.2103E+01  0.1289E+03
      6.322  0.2505E+01  0.1292E+03
      6.433  0.3506E+01  0.1295E+03
      6.544  0.4432E+01  0.1300E+03
      6.655  0.6180E+01  0.1306E+03
      6.766  0.8833E+01  0.1317E+03
      6.877  0.8033E+01  0.1326E+03
      6.988  0.7279E+01  0.1334E+03
      7.099  0.7185E+01  0.1343E+03
      7.210  0.7687E+01  0.1351E+03
      7.321  0.5923E+01  0.1358E+03
      7.432  0.5203E+01  0.1364E+03
      7.543  0.4787E+01  0.1370E+03
      7.654  0.3940E+01  0.1375E+03
      7.765  0.3507E+01  0.1379E+03
      7.876  0.3519E+01  0.1383E+03
      7.987  0.3885E+01  0.1387E+03
      8.098  0.4223E+01  0.1391E+03
      8.209  0.4617E+01  0.1396E+03
      8.320  0.4880E+01  0.1402E+03
      8.431  0.4824E+01  0.1407E+03
      8.542  0.4546E+01  0.1412E+03
      8.653  0.4272E+01  0.1417E+03
      8.764  0.4028E+01  0.1422E+03
      8.875  0.3926E+01  0.1426E+03
      8.986  0.3751E+01  0.1430E+03
      9.097  0.3631E+01  0.1435E+03
      9.208  0.3544E+01  0.1439E+03
      9.319  0.3434E+01  0.1442E+03
      9.430  0.3284E+01  0.1446E+03
      9.541  0.3203E+01  0.1450E+03
      9.652  0.3175E+01  0.1453E+03
      9.763  0.3193E+01  0.1457E+03
      9.874  0.3155E+01  0.1460E+03
      9.985  0.3087E+01  0.1464E+03
     10.096  0.3223E+01  0.1467E+03
     10.207  0.3429E+01  0.1471E+03
     10.318  0.3502E+01  0.1475E+03
     10.429  0.3573E+01  0.1479E+03
     10.541  0.3668E+01  0.1483E+03
     10.652  0.3728E+01  0.1487E+03
     10.763  0.3684E+01  0.1491E+03
     10.874  0.3644E+01  0.1495E+03
     10.985  0.4046E+01  0.1499E+03
     11.096  0.4285E+01  0.1504E+03
     11.207  0.4395E+01  0.1509E+03
     11.318  0.4260E+01  0.1514E+03
     11.429  0.4273E+01  0.1518E+03
     11.540  0.4238E+01  0.1523E+03
     11.651  0.5800E+01  0.1529E+03
     11.762  0.3995E+01  0.1534E+03
     11.873  0.3103E+01  0.1538E+03
     11.984  0.2710E+01  0.1541E+03
     12.095  0.4636E+01  0.1544E+03
     12.206  0.3409E+01  0.1548E+03
     12.317  0.4170E+01  0.1552E+03
     12.428  0.5292E+01  0.1557E+03
     12.539  0.8152E+01  0.1565E+03
     12.650  0.8882E+01  0.1574E+03
     12.761  0.1229E+02  0.1586E+03
     12.872  0.1221E+02  0.1599E+03
     12.983  0.1236E+02  0.1613E+03
     13.094  0.1044E+02  0.1625E+03
     13.205  0.1046E+02  0.1637E+03
     13.316  0.1012E+02  0.1648E+03
     13.427  0.8168E+01  0.1659E+03
     13.538  0.7265E+01  0.1667E+03
     13.649  0.4013E+01  0.1674E+03
     13.760  0.2361E+01  0.1677E+03
     13.871  0.9542E+00  0.1679E+03
     13.982  0.2759E+00  0.1680E+03
     14.093  0.1456E+00  0.1680E+03
     14.204  0.7014E-01  0.1680E+03
     14.315  0.4481E-01  0.1680E+03
     14.426  0.2514E-01  0.1680E+03
     14.537  0.1111E-01  0.1680E+03
     14.648  0.2730E-02  0.1680E+03
     14.759  0.0000E+00  0.1680E+03
     14.870  0.0000E+00  0.1680E+03
     14.981  0.0000E+00  0.1680E+03
     15.092  0.0000E+00  0.1680E+03
     15.203  0.0000E+00  0.1680E+03
     15.314  0.0000E+00  0.1680E+03
     15.425  0.0000E+00  0.1680E+03
     15.536  0.0000E+00  0.1680E+03
     15.647  0.0000E+00  0.1680E+03
     15.758  0.0000E+00  0.1680E+03
     15.869  0.0000E+00  0.1680E+03
     15.980  0.0000E+00  0.1680E+03
     16.091  0.0000E+00  0.1680E+03
     16.202  0.0000E+00  0.1680E+03
     16.313  0.0000E+00  0.1680E+03
     16.424  0.0000E+00  0.1680E+03
     16.535  0.0000E+00  0.1680E+03
     16.646  0.0000E+00  0.1680E+03
     16.757  0.0000E+00  0.1680E+03
