   32   32    1    1
  0.8863011E+01  0.4934311E-09  0.4934311E-09  0.1345148E-08  0.5000000E-15
  1.000000000000000E-004
  CAR 
 graphite                                
    128    163     84
 
  0.0000000E+00  0.0000000E+00  0.0000000E+00  0.3086420E-02
    1      -14.969308
    2      -14.826976
    3      -14.826583
    4      -14.674461
    5       -9.648610
    6       -9.646892
    7       -9.645166
    8       -9.590784
    9       -9.587341
   10       -9.586886
   11       -9.586517
   12       -9.586414
   13       -9.582812
   14       -9.538672
   15       -9.536859
   16       -9.534251
   17       -8.574097
   18       -8.570697
   19       -8.568691
   20       -8.543240
   21       -8.539825
   22       -8.538535
   23       -8.538339
   24       -8.538224
   25       -8.534313
   26       -8.490548
   27       -8.487649
   28       -8.485592
   29       -3.832881
   30       -2.956776
   31       -2.955132
   32       -1.889900
   33       -1.746726
   34       -1.744109
   35       -1.740105
   36       -1.720990
   37       -1.717277
   38       -1.717270
   39       -1.716663
   40       -1.714132
   41       -1.710875
   42       -1.691515
   43       -1.689444
   44       -1.684883
   45        1.639765
   46        1.650840
   47        1.653068
   48        1.655503
   49        1.660280
   50        1.662760
   51        1.664896
   52        1.675819
   53        1.895502
   54        1.897167
   55        1.898668
   56        2.293893
   57        2.298088
   58        2.298229
   59        2.298424
   60        2.298808
   61        2.302846
   62        2.573035
   63        2.575149
   64        2.577242
   65        6.159227
   66        6.163670
   67        6.166434
   68        6.299001
   69        6.304288
   70        6.305957
   71        6.306460
   72        6.306730
   73        6.312036
   74        6.824872
   75        6.829236
   76        6.831566
   77        8.938748
   78       11.555457
   79       11.559288
   80       11.843607
   81       11.847339
   82       11.851812
   83       12.036404
   84       12.039821
 
  0.1111111E+00 -0.2081668E-16  0.0000000E+00  0.6172840E-02
    1      -14.895759
    2      -14.753930
    3      -14.753538
    4      -14.602165
    5      -10.440949
    6      -10.339569
    7      -10.339200
    8      -10.233936
    9       -9.896326
   10       -9.894183
   11       -9.809402
   12       -9.807891
   13       -9.807151
   14       -9.804864
   15       -9.720309
   16       -9.717846
   17       -8.270731
   18       -8.267483
   19       -8.202161
   20       -8.199351
   21       -8.197810
   22       -8.197275
   23       -8.123012
   24       -8.120039
   25       -7.755979
   26       -7.677382
   27       -7.675339
   28       -7.592614
   29       -3.743586
   30       -2.869764
   31       -2.868123
   32       -1.971385
   33       -1.966821
   34       -1.941531
   35       -1.940901
   36       -1.937829
   37       -1.934668
   38       -1.910630
   39       -1.905607
   40       -1.806414
   41       -1.673519
   42       -1.647539
   43       -1.645091
   44       -1.619081
   45        1.304337
   46        1.349999
   47        1.361112
   48        1.365591
   49        1.378076
   50        1.484642
   51        1.496260
   52        1.500608
   53        1.510641
   54        1.780772
   55        1.782599
   56        1.870294
   57        1.872721
   58        2.245297
   59        2.246360
   60        2.246640
   61        2.250768
   62        2.428477
   63        2.626328
   64        2.628938
   65        6.234466
   66        6.239345
   67        6.430068
   68        6.435251
   69        6.436919
   70        6.438363
   71        6.530286
   72        6.845985
   73        6.849921
   74        6.958905
   75        6.963198
   76        7.429260
   77        9.027477
   78       11.632153
   79       11.635916
   80       11.886291
   81       12.072434
   82       12.073856
   83       12.179617
   84       12.187717
 
  0.2222222E+00 -0.1387779E-16  0.0000000E+00  0.6172840E-02
    1      -14.675315
    2      -14.535317
    3      -14.534929
    4      -14.385635
    5      -11.450599
    6      -11.337479
    7      -11.337149
    8      -11.218502
    9      -10.243731
   10      -10.241807
   11      -10.144908
   12      -10.143371
   13      -10.142814
   14      -10.140996
   15      -10.040404
   16      -10.038357
   17       -7.590460
   18       -7.587333
   19       -7.514667
   20       -7.512129
   21       -7.510446
   22       -7.509931
   23       -7.432118
   24       -7.429120
   25       -6.432527
   26       -6.358960
   27       -6.357061
   28       -6.280609
   29       -3.476557
   30       -2.610014
   31       -2.608379
   32       -2.577873
   33       -2.573612
   34       -2.541072
   35       -2.540660
   36       -2.537786
   37       -2.534693
   38       -2.502607
   39       -2.497975
   40       -1.557032
   41       -1.458792
   42       -1.433578
   43       -1.430988
   44       -1.405488
   45        0.286040
   46        0.523233
   47        0.542544
   48        0.546874
   49        0.566866
   50        0.982994
   51        0.984856
   52        1.066160
   53        1.081252
   54        1.085639
   55        1.099917
   56        1.560128
   57        1.561960
   58        1.773495
   59        2.123872
   60        2.125005
   61        2.125287
   62        2.129252
   63        2.682261
   64        2.684855
   65        6.478947
   66        6.483527
   67        6.763617
   68        6.768682
   69        6.770054
   70        6.771418
   71        7.264496
   72        7.268186
   73        7.655375
   74        8.066342
   75        8.069434
   76        8.639380
   77        9.294376
   78       11.860871
   79       11.864402
   80       12.002341
   81       12.181920
   82       12.183389
   83       12.346485
   84       13.016377
 
  0.3333333E+00 -0.2775558E-16  0.0000000E+00  0.6172840E-02
    1      -14.309173
    2      -14.172165
    3      -14.171783
    4      -14.025946
    5      -12.362549
    6      -12.241623
    7      -12.241262
    8      -12.113441
    9      -10.500647
   10      -10.498855
   11      -10.397240
   12      -10.395627
   13      -10.395285
   14      -10.393589
   15      -10.287630
   16      -10.285762
   17       -6.783380
   18       -6.780189
   19       -6.713814
   20       -6.711039
   21       -6.709291
   22       -6.708965
   23       -6.638792
   24       -6.635759
   25       -5.000090
   26       -4.936455
   27       -4.934361
   28       -4.868660
   29       -3.392893
   30       -3.389192
   31       -3.349334
   32       -3.349218
   33       -3.346797
   34       -3.343650
   35       -3.303908
   36       -3.299842
   37       -3.034378
   38       -2.180626
   39       -2.179015
   40       -1.145833
   41       -1.110445
   42       -1.086331
   43       -1.083515
   44       -1.058881
   45       -0.734051
   46       -0.662227
   47       -0.632328
   48       -0.628485
   49       -0.598317
   50        0.031242
   51        0.032925
   52        0.504824
   53        0.523216
   54        0.527152
   55        0.545483
   56        0.933045
   57        1.368661
   58        1.370510
   59        1.999533
   60        2.000752
   61        2.001034
   62        2.004857
   63        2.687363
   64        2.689880
   65        6.835032
   66        6.838863
   67        7.153687
   68        7.158685
   69        7.159596
   70        7.160819
   71        7.569142
   72        7.572244
   73        9.158437
   74        9.541836
   75        9.544401
   76        9.739721
   77       10.044850
   78       12.007149
   79       12.219246
   80       12.222112
   81       12.264342
   82       12.349177
   83       12.350948
   84       12.646085
 
  0.4444444E+00 -0.2775558E-16  0.0000000E+00  0.6172840E-02
    1      -13.799227
    2      -13.666469
    3      -13.666095
    4      -13.525029
    5      -13.148585
    6      -13.021184
    7      -13.020806
    8      -12.885788
    9      -10.633123
   10      -10.631397
   11      -10.528203
   12      -10.526496
   13      -10.526376
   14      -10.524658
   15      -10.416415
   16      -10.414625
   17       -6.036084
   18       -6.033264
   19       -5.986545
   20       -5.982819
   21       -5.982075
   22       -5.981622
   23       -5.933557
   24       -5.931188
   25       -4.140392
   26       -4.138232
   27       -4.105164
   28       -4.103965
   29       -4.103705
   30       -4.100101
   31       -4.064231
   32       -4.061456
   33       -3.520132
   34       -3.467751
   35       -3.465250
   36       -3.411254
   37       -2.422129
   38       -2.048411
   39       -2.007790
   40       -2.004797
   41       -1.962325
   42       -1.649366
   43       -1.587207
   44       -1.585495
   45       -0.842817
   46       -0.841168
   47       -0.645229
   48       -0.622229
   49       -0.619074
   50       -0.595937
   51       -0.580674
   52       -0.090934
   53       -0.069745
   54       -0.066343
   55       -0.045051
   56        0.122784
   57        1.262593
   58        1.264452
   59        1.924697
   60        1.925966
   61        1.926245
   62        1.929998
   63        2.674184
   64        2.676643
   65        7.119615
   66        7.122425
   67        7.419682
   68        7.424709
   69        7.425175
   70        7.426238
   71        7.737867
   72        7.740709
   73       10.360211
   74       10.779729
   75       11.077932
   76       11.081001
   77       11.148568
   78       11.498298
   79       12.370747
   80       12.402011
   81       12.411416
   82       12.458668
   83       12.541563
   84       12.544072
 
 -0.8470329E-21  0.1111111E+00  0.0000000E+00  0.6172840E-02
    1      -14.895761
    2      -14.753931
    3      -14.753540
    4      -14.602167
    5      -10.440873
    6      -10.339443
    7      -10.339146
    8      -10.233830
    9       -9.896560
   10       -9.894229
   11       -9.809745
   12       -9.807883
   13       -9.807148
   14       -9.805154
   15       -9.720346
   16       -9.718185
   17       -8.270857
   18       -8.266224
   19       -8.202516
   20       -8.199349
   21       -8.197797
   22       -8.194559
   23       -8.123209
   24       -8.118580
   25       -7.756919
   26       -7.677449
   27       -7.677187
   28       -7.593591
   29       -3.743582
   30       -2.869758
   31       -2.868117
   32       -1.972529
   33       -1.966943
   34       -1.943413
   35       -1.940902
   36       -1.937828
   37       -1.935294
   38       -1.911606
   39       -1.905982
   40       -1.806407
   41       -1.672076
   42       -1.645106
   43       -1.644941
   44       -1.617903
   45        1.304982
   46        1.348166
   47        1.360640
   48        1.361115
   49        1.373537
   50        1.489316
   51        1.500606
   52        1.501250
   53        1.512562
   54        1.779889
   55        1.782453
   56        1.871652
   57        1.873295
   58        2.243476
   59        2.246583
   60        2.246651
   61        2.249863
   62        2.429726
   63        2.625477
   64        2.628353
   65        6.234752
   66        6.241202
   67        6.430594
   68        6.435219
   69        6.437217
   70        6.441720
   71        6.528315
   72        6.845270
   73        6.847074
   74        6.959053
   75        6.965134
   76        7.427604
   77        9.027483
   78       11.632184
   79       11.635946
   80       11.886776
   81       12.073255
   82       12.073921
   83       12.179361
   84       12.185045
 
  0.1111111E+00  0.1111111E+00  0.0000000E+00  0.6172840E-02
    1      -14.748745
    2      -14.608134
    3      -14.607745
    4      -14.457743
    5      -10.904790
    6      -10.901786
    7      -10.798526
    8      -10.795505
    9      -10.795478
   10      -10.792469
   11      -10.684058
   12      -10.680985
   13       -9.457912
   14       -9.399593
   15       -9.398070
   16       -9.349648
   17       -8.390222
   18       -8.360686
   19       -8.357634
   20       -8.310549
   21       -7.075969
   22       -7.072822
   23       -6.999542
   24       -6.997211
   25       -6.997186
   26       -6.993028
   27       -6.917393
   28       -6.913991
   29       -3.565426
   30       -2.696448
   31       -2.694813
   32       -2.649386
   33       -2.612760
   34       -2.610416
   35       -2.573101
   36       -1.827873
   37       -1.824952
   38       -1.799686
   39       -1.795965
   40       -1.795958
   41       -1.794428
   42       -1.767493
   43       -1.765036
   44       -1.639959
   45        0.819233
   46        0.830633
   47        0.834481
   48        0.846016
   49        0.870772
   50        0.874485
   51        1.172388
   52        1.182752
   53        1.186808
   54        1.195948
   55        1.511507
   56        1.514800
   57        1.514971
   58        1.517064
   59        2.164733
   60        2.208273
   61        2.210834
   62        2.563722
   63        2.566882
   64        2.837045
   65        6.141381
   66        6.226143
   67        6.230624
   68        6.649869
   69        7.007356
   70        7.010099
   71        7.385740
   72        7.387291
   73        7.387534
   74        7.391719
   75        7.953010
   76        7.955468
   77        9.205469
   78       11.786244
   79       11.789869
   80       12.257788
   81       12.261788
   82       12.441792
   83       12.446525
   84       12.446887
 
  0.2222222E+00  0.1111111E+00  0.0000000E+00  0.6172840E-02
    1      -14.455429
    2      -14.317223
    3      -14.316838
    4      -14.169637
    5      -11.869087
    6      -11.752391
    7      -11.752053
    8      -11.629159
    9      -11.244389
   10      -11.133297
   11      -11.132978
   12      -11.016124
   13       -9.510116
   14       -9.426130
   15       -9.425277
   16       -9.340780
   17       -7.924887
   18       -7.860975
   19       -7.858433
   20       -7.787561
   21       -6.292880
   22       -6.221847
   23       -6.221493
   24       -6.147796
   25       -5.693634
   26       -5.625669
   27       -5.623744
   28       -5.553501
   29       -3.555789
   30       -3.511122
   31       -3.508818
   32       -3.462797
   33       -3.210757
   34       -2.352453
   35       -2.351585
   36       -2.350114
   37       -2.316637
   38       -2.316154
   39       -2.279669
   40       -1.540994
   41       -1.513297
   42       -1.510778
   43       -1.482759
   44       -1.309543
   45       -0.170199
   46       -0.133653
   47       -0.113786
   48       -0.108800
   49       -0.088871
   50        0.537302
   51        0.564119
   52        0.565827
   53        0.627824
   54        0.642226
   55        0.646875
   56        0.660930
   57        1.227690
   58        1.229335
   59        1.416794
   60        2.010825
   61        2.300835
   62        2.765319
   63        2.768327
   64        3.145986
   65        6.116046
   66        6.233622
   67        6.237915
   68        6.591422
   69        7.579559
   70        7.954979
   71        7.956906
   72        8.358749
   73        8.439187
   74        8.755633
   75        8.758236
   76        9.273416
   77        9.562493
   78       12.091719
   79       12.094993
   80       12.381482
   81       12.584115
   82       12.585632
   83       12.620501
   84       12.991526
 
  0.3333333E+00  0.1111111E+00  0.0000000E+00  0.6172840E-02
    1      -14.017375
    2      -13.882787
    3      -13.882407
    4      -13.739308
    5      -12.718690
    6      -12.594798
    7      -12.594437
    8      -12.463439
    9      -11.452312
   10      -11.339157
   11      -11.338831
   12      -11.219914
   13       -9.655309
   14       -9.561358
   15       -9.560927
   16       -9.463398
   17       -7.160549
   18       -7.096441
   19       -7.094048
   20       -7.027304
   21       -5.494822
   22       -5.436506
   23       -5.435497
   24       -5.375846
   25       -4.490459
   26       -4.444265
   27       -4.441812
   28       -4.392839
   29       -4.244985
   30       -4.187899
   31       -4.185764
   32       -4.127098
   33       -3.050592
   34       -3.012648
   35       -3.011349
   36       -2.971157
   37       -2.683277
   38       -1.840623
   39       -1.839070
   40       -1.379848
   41       -1.346650
   42       -1.342775
   43       -1.310306
   44       -1.143556
   45       -1.125128
   46       -1.098944
   47       -1.096256
   48       -1.069868
   49       -0.820923
   50       -0.357838
   51       -0.356200
   52        0.003991
   53        0.023651
   54        0.027908
   55        0.047651
   56        0.328753
   57        0.576636
   58        1.044836
   59        1.046528
   60        1.874872
   61        2.298833
   62        2.854440
   63        2.857016
   64        3.414994
   65        6.106369
   66        6.352128
   67        6.355805
   68        6.688791
   69        8.087058
   70        8.409001
   71        8.411246
   72        8.765766
   73        9.921692
   74       10.096957
   75       10.259727
   76       10.262432
   77       10.692359
   78       11.672988
   79       12.496578
   80       12.500125
   81       12.658117
   82       12.759823
   83       12.761691
   84       13.005214
 
  0.4444444E+00  0.1111111E+00  0.0000000E+00  0.6172840E-02
    1      -13.438610
    2      -13.435810
    3      -13.309934
    4      -13.307250
    5      -13.307125
    6      -13.304277
    7      -13.170660
    8      -13.167788
    9      -11.521971
   10      -11.408343
   11      -11.408014
   12      -11.288428
   13       -9.711339
   14       -9.615472
   15       -9.615156
   16       -9.515272
   17       -6.655207
   18       -6.614379
   19       -6.612140
   20       -6.573508
   21       -5.019289
   22       -5.005110
   23       -4.985819
   24       -4.982915
   25       -4.981412
   26       -4.978834
   27       -4.951009
   28       -4.947923
   29       -3.468022
   30       -3.446487
   31       -3.443362
   32       -3.416571
   33       -2.785212
   34       -2.782540
   35       -2.739124
   36       -2.738776
   37       -2.738721
   38       -2.732966
   39       -2.691394
   40       -2.687759
   41       -1.991090
   42       -1.988843
   43       -1.172469
   44       -1.169344
   45       -1.169184
   46       -1.166789
   47       -0.603012
   48       -0.596340
   49       -0.579457
   50       -0.572206
   51       -0.572142
   52       -0.570679
   53       -0.549698
   54       -0.546076
   55       -0.186364
   56       -0.183763
   57        0.257867
   58        0.982251
   59        0.984020
   60        1.827079
   61        2.286539
   62        2.876109
   63        2.878217
   64        3.512880
   65        6.115721
   66        6.419508
   67        6.422344
   68        6.743423
   69        8.307369
   70        8.586702
   71        8.589399
   72        8.867351
   73       10.804920
   74       10.805963
   75       11.512388
   76       11.515723
   77       11.748981
   78       11.752109
   79       11.753108
   80       11.757948
   81       12.105215
   82       12.108310
   83       12.873403
   84       12.878825
 
 -0.4444444E+00  0.1111111E+00  0.0000000E+00  0.6172840E-02
    1      -14.017483
    2      -13.882893
    3      -13.882517
    4      -13.739416
    5      -12.718522
    6      -12.594636
    7      -12.594263
    8      -12.463270
    9      -11.452536
   10      -11.339380
   11      -11.339052
   12      -11.220133
   13       -9.655182
   14       -9.561172
   15       -9.560888
   16       -9.463304
   17       -7.158033
   18       -7.093192
   19       -7.092504
   20       -7.025020
   21       -5.497454
   22       -5.439767
   23       -5.437288
   24       -5.378271
   25       -4.493169
   26       -4.446265
   27       -4.445475
   28       -4.395791
   29       -4.244975
   30       -4.188036
   31       -4.185545
   32       -4.127020
   33       -3.047583
   34       -3.010348
   35       -3.007292
   36       -2.967789
   37       -2.683310
   38       -1.840640
   39       -1.839094
   40       -1.380840
   41       -1.347133
   42       -1.344669
   43       -1.311796
   44       -1.143524
   45       -1.125308
   46       -1.099234
   47       -1.096161
   48       -1.069913
   49       -0.820920
   50       -0.357838
   51       -0.356166
   52        0.005760
   53        0.025569
   54        0.028403
   55        0.048597
   56        0.328856
   57        0.576611
   58        1.044907
   59        1.046798
   60        1.875169
   61        2.298319
   62        2.854121
   63        2.855912
   64        3.414001
   65        6.108962
   66        6.354833
   67        6.356963
   68        6.690049
   69        8.085106
   70        8.407100
   71        8.410227
   72        8.764821
   73        9.922012
   74       10.096899
   75       10.259954
   76       10.263017
   77       10.692905
   78       11.673008
   79       12.497060
   80       12.500540
   81       12.657151
   82       12.758426
   83       12.760977
   84       13.003901
 
 -0.3333333E+00  0.1111111E+00  0.0000000E+00  0.6172840E-02
    1      -14.455506
    2      -14.317299
    3      -14.316916
    4      -14.169714
    5      -11.868889
    6      -11.752199
    7      -11.751846
    8      -11.628956
    9      -11.244833
   10      -11.133735
   11      -11.133415
   12      -11.016555
   13       -9.509984
   14       -9.425738
   15       -9.425489
   16       -9.340738
   17       -7.921899
   18       -7.856964
   19       -7.856743
   20       -7.784784
   21       -6.295674
   22       -6.225403
   23       -6.223426
   24       -6.150495
   25       -5.693789
   26       -5.625880
   27       -5.623812
   28       -5.553625
   29       -3.559282
   30       -3.513681
   31       -3.513408
   32       -3.466461
   33       -3.210783
   34       -2.351799
   35       -2.350178
   36       -2.348323
   37       -2.313745
   38       -2.311029
   39       -2.275504
   40       -1.541029
   41       -1.513406
   42       -1.510653
   43       -1.482723
   44       -1.309543
   45       -0.170232
   46       -0.135881
   47       -0.115227
   48       -0.112806
   49       -0.092669
   50        0.537657
   51        0.564001
   52        0.565850
   53        0.632113
   54        0.646240
   55        0.648352
   56        0.663166
   57        1.227853
   58        1.229934
   59        1.416737
   60        2.011443
   61        2.299802
   62        2.764706
   63        2.766391
   64        3.144625
   65        6.119936
   66        6.238235
   67        6.240083
   68        6.594155
   69        7.576419
   70        7.951642
   71        7.955081
   72        8.358954
   73        8.437118
   74        8.755750
   75        8.758689
   76        9.273834
   77        9.562450
   78       12.091938
   79       12.095199
   80       12.380835
   81       12.583259
   82       12.585169
   83       12.620004
   84       12.991678
 
 -0.2222222E+00  0.1111111E+00  0.0000000E+00  0.6172840E-02
    1      -14.748792
    2      -14.608180
    3      -14.607792
    4      -14.457790
    5      -10.903844
    6      -10.903033
    7      -10.796264
    8      -10.795953
    9      -10.795436
   10      -10.795123
   11      -10.683156
   12      -10.682380
   13       -9.457864
   14       -9.398903
   15       -9.398736
   16       -9.349647
   17       -8.386994
   18       -8.356204
   19       -8.356080
   20       -8.307622
   21       -7.077437
   22       -7.074064
   23       -7.000735
   24       -6.998928
   25       -6.997432
   26       -6.995495
   27       -6.918839
   28       -6.915477
   29       -3.565443
   30       -2.696460
   31       -2.694824
   32       -2.653273
   33       -2.615634
   34       -2.615499
   35       -2.577187
   36       -1.826982
   37       -1.821388
   38       -1.798389
   39       -1.795867
   40       -1.792859
   41       -1.790238
   42       -1.766914
   43       -1.761273
   44       -1.639960
   45        0.814241
   46        0.826706
   47        0.827507
   48        0.839366
   49        0.871824
   50        0.873425
   51        1.180452
   52        1.189990
   53        1.190220
   54        1.200781
   55        1.512748
   56        1.514796
   57        1.514944
   58        1.517111
   59        2.163375
   60        2.209000
   61        2.211055
   62        2.562980
   63        2.564668
   64        2.835705
   65        6.145483
   66        6.231577
   67        6.233434
   68        6.653800
   69        7.003977
   70        7.009725
   71        7.381935
   72        7.385650
   73        7.387383
   74        7.390944
   75        7.950502
   76        7.955295
   77        9.205443
   78       11.786354
   79       11.789976
   80       12.259157
   81       12.265055
   82       12.445494
   83       12.447999
   84       12.451194
 
 -0.1111111E+00  0.1111111E+00  0.0000000E+00  0.6172840E-02
    1      -14.895777
    2      -14.753947
    3      -14.753555
    4      -14.602183
    5      -10.441572
    6      -10.340153
    7      -10.339791
    8      -10.234481
    9       -9.896088
   10       -9.893938
   11       -9.809588
   12       -9.806990
   13       -9.806950
   14       -9.805015
   15       -9.720156
   16       -9.717742
   17       -8.268181
   18       -8.266293
   19       -8.198630
   20       -8.197988
   21       -8.197948
   22       -8.194800
   23       -8.120721
   24       -8.118796
   25       -7.759481
   26       -7.680752
   27       -7.678894
   28       -7.596050
   29       -3.743587
   30       -2.869762
   31       -2.868121
   32       -1.973184
   33       -1.970555
   34       -1.944418
   35       -1.940873
   36       -1.940865
   37       -1.939693
   38       -1.912009
   39       -1.909821
   40       -1.806407
   41       -1.667846
   42       -1.641950
   43       -1.639356
   44       -1.613342
   45        1.305445
   46        1.340941
   47        1.353239
   48        1.357641
   49        1.368702
   50        1.494100
   51        1.504112
   52        1.508543
   53        1.520403
   54        1.779643
   55        1.781671
   56        1.872101
   57        1.874776
   58        2.242477
   59        2.246518
   60        2.246938
   61        2.247997
   62        2.431022
   63        2.624864
   64        2.627518
   65        6.238621
   66        6.241606
   67        6.435965
   68        6.437274
   69        6.437528
   70        6.442609
   71        6.524043
   72        6.840273
   73        6.844282
   74        6.962919
   75        6.965413
   76        7.423983
   77        9.027473
   78       11.632216
   79       11.635978
   80       11.891779
   81       12.078093
   82       12.079171
   83       12.177636
   84       12.181418
 
 -0.1694066E-20  0.2222222E+00  0.0000000E+00  0.6172840E-02
    1      -14.675322
    2      -14.535322
    3      -14.534936
    4      -14.385641
    5      -11.450635
    6      -11.337509
    7      -11.337187
    8      -11.218533
    9      -10.244180
   10      -10.241462
   11      -10.145737
   12      -10.143367
   13      -10.142808
   14      -10.140329
   15      -10.040763
   16      -10.038055
   17       -7.590786
   18       -7.586067
   19       -7.515342
   20       -7.512128
   21       -7.510432
   22       -7.507147
   23       -7.432391
   24       -7.427656
   25       -6.433401
   26       -6.359033
   27       -6.358796
   28       -6.281546
   29       -3.476539
   30       -2.609990
   31       -2.608358
   32       -2.579097
   33       -2.573743
   34       -2.543188
   35       -2.540664
   36       -2.537786
   37       -2.535178
   38       -2.503656
   39       -2.498236
   40       -1.557002
   41       -1.457279
   42       -1.431008
   43       -1.430884
   44       -1.404278
   45        0.286480
   46        0.521440
   47        0.542421
   48        0.542561
   49        0.563836
   50        0.983682
   51        0.985288
   52        1.069645
   53        1.085630
   54        1.085774
   55        1.101681
   56        1.559189
   57        1.561954
   58        1.774256
   59        2.121993
   60        2.125210
   61        2.125305
   62        2.128620
   63        2.681341
   64        2.684372
   65        6.479186
   66        6.485388
   67        6.764200
   68        6.768665
   69        6.770367
   70        6.774710
   71        7.264723
   72        7.270113
   73        7.653838
   74        8.065677
   75        8.067451
   76        8.638118
   77        9.294392
   78       11.860986
   79       11.864510
   80       12.002932
   81       12.182942
   82       12.183541
   83       12.347062
   84       13.020021
 
  0.1111111E+00  0.2222222E+00  0.0000000E+00  0.6172840E-02
    1      -14.455433
    2      -14.317227
    3      -14.316843
    4      -14.169641
    5      -11.869139
    6      -11.752440
    7      -11.752107
    8      -11.629209
    9      -11.244352
   10      -11.133267
   11      -11.132940
   12      -11.016094
   13       -9.510107
   14       -9.426129
   15       -9.425263
   16       -9.340775
   17       -7.924829
   18       -7.860852
   19       -7.858433
   20       -7.787495
   21       -6.291899
   22       -6.221536
   23       -6.219778
   24       -6.146749
   25       -5.694595
   26       -5.625820
   27       -5.625593
   28       -5.554544
   29       -3.555867
   30       -3.511122
   31       -3.508982
   32       -3.462885
   33       -3.210742
   34       -2.353763
   35       -2.351687
   36       -2.350101
   37       -2.318859
   38       -2.316628
   39       -2.280946
   40       -1.539434
   41       -1.510787
   42       -1.510466
   43       -1.481460
   44       -1.309519
   45       -0.169880
   46       -0.134377
   47       -0.113786
   48       -0.110805
   49       -0.090609