   32   32    1    1
  0.8381369E+01  0.4932875E-09  0.4932875E-09  0.1273296E-08  0.5000000E-15
  1.000000000000000E-004
  CAR 
 graphite                                
    128    163     84
 
  0.0000000E+00  0.0000000E+00  0.0000000E+00  0.3086420E-02
    1      -14.545139
    2      -14.333341
    3      -14.332699
    4      -14.099954
    5       -9.184855
    6       -9.177008
    7       -9.174524
    8       -9.089870
    9       -9.089405
   10       -9.081800
   11       -9.078113
   12       -9.078032
   13       -9.075826
   14       -9.018360
   15       -9.007109
   16       -9.003617
   17       -8.082532
   18       -8.079359
   19       -8.077146
   20       -8.044101
   21       -8.040329
   22       -8.038351
   23       -8.037805
   24       -8.037692
   25       -8.033826
   26       -7.958204
   27       -7.953025
   28       -7.951034
   29       -3.590917
   30       -2.456614
   31       -2.454523
   32       -1.258608
   33       -1.255855
   34       -1.236491
   35       -1.215360
   36       -1.211228
   37       -1.211216
   38       -1.210311
   39       -1.192558
   40       -1.189983
   41       -1.167104
   42       -1.164647
   43       -1.145210
   44       -1.045750
   45        2.145199
   46        2.160742
   47        2.166836
   48        2.169399
   49        2.180504
   50        2.182890
   51        2.188157
   52        2.202864
   53        2.232984
   54        2.234928
   55        2.236172
   56        2.792959
   57        2.795549
   58        2.797197
   59        2.801286
   60        2.801770
   61        2.803729
   62        3.113791
   63        3.130799
   64        3.133707
   65        6.709244
   66        6.712537
   67        6.715761
   68        6.791675
   69        6.797311
   70        6.801786
   71        6.802776
   72        6.803109
   73        6.808792
   74        7.493752
   75        7.507654
   76        7.510048
   77        9.954185
   78       12.266339
   79       12.269885
   80       12.302911
   81       12.544044
   82       12.549313
   83       12.554734
   84       12.560569
 
  0.1111111E+00  0.0000000E+00  0.0000000E+00  0.6172840E-02
    1      -14.471164
    2      -14.260237
    3      -14.259599
    4      -14.027797
    5       -9.990394
    6       -9.835753
    7       -9.835068
    8       -9.671145
    9       -9.445257
   10       -9.437225
   11       -9.310503
   12       -9.310128
   13       -9.301533
   14       -9.300947
   15       -9.174642
   16       -9.164891
   17       -7.805530
   18       -7.799298
   19       -7.702555
   20       -7.699518
   21       -7.694248
   22       -7.693954
   23       -7.578098
   24       -7.570933
   25       -7.293502
   26       -7.172191
   27       -7.170307
   28       -7.039404
   29       -3.500978
   30       -2.369779
   31       -2.367689
   32       -1.485361
   33       -1.465724
   34       -1.435691
   35       -1.435261
   36       -1.416977
   37       -1.414427
   38       -1.384484
   39       -1.364777
   40       -1.185447
   41       -1.141625
   42       -1.138762
   43       -1.094481
   44       -0.963135
   45        1.612939
   46        1.860423
   47        1.880221
   48        1.884691
   49        1.905025
   50        1.990774
   51        2.009279
   52        2.014433
   53        2.032518
   54        2.106675
   55        2.108058
   56        2.371998
   57        2.375064
   58        2.741594
   59        2.743901
   60        2.748149
   61        2.750979
   62        3.089010
   63        3.203305
   64        3.219368
   65        6.753166
   66        6.756869
   67        6.923253
   68        6.928869
   69        6.933623
   70        6.935575
   71        6.982204
   72        7.343372
   73        7.347519
   74        7.631328
   75        7.642940
   76        8.127448
   77       10.040422
   78       12.309613
   79       12.583260
   80       12.585920
   81       12.604025
   82       12.639543
   83       12.876368
   84       12.886573
 
  0.2222222E+00  0.0000000E+00  0.0000000E+00  0.6172840E-02
    1      -14.249564
    2      -14.041125
    3      -14.040496
    4      -13.811792
    5      -11.007503
    6      -10.836374
    7      -10.835843
    8      -10.651944
    9       -9.797854
   10       -9.792186
   11       -9.646346
   12       -9.645559
   13       -9.640014
   14       -9.639400
   15       -9.484879
   16       -9.478608
   17       -7.130968
   18       -7.121752
   19       -7.013948
   20       -7.011313
   21       -7.003361
   22       -7.003011
   23       -6.884735
   24       -6.875367
   25       -5.965556
   26       -5.850692
   27       -5.848957
   28       -5.727724
   29       -3.232311
   30       -2.110054
   31       -2.107965
   32       -2.096642
   33       -2.078219
   34       -2.036398
   35       -2.036109
   36       -2.018884
   37       -2.016366
   38       -1.973628
   39       -1.955138
   40       -0.970048
   41       -0.927211
   42       -0.924193
   43       -0.880868
   44       -0.716529
   45        0.567701
   46        1.028236
   47        1.061421
   48        1.065761
   49        1.099220
   50        1.483743
   51        1.486183
   52        1.567462
   53        1.593039
   54        1.598123
   55        1.623652
   56        1.866408
   57        1.868831
   58        2.529047
   59        2.620375
   60        2.622109
   61        2.625673
   62        2.628597
   63        3.333361
   64        3.344446
   65        6.934573
   66        6.937466
   67        7.258516
   68        7.263930
   69        7.268500
   70        7.270432
   71        7.931433
   72        7.938880
   73        8.037737
   74        8.565582
   75        8.568884
   76        9.336405
   77       10.300059
   78       12.431612
   79       12.696048
   80       12.697948
   81       12.952918
   82       13.227852
   83       13.231955
   84       13.513424
 
  0.3333333E+00  0.0000000E+00  0.0000000E+00  0.6172840E-02
    1      -13.881494
    2      -13.677238
    3      -13.676624
    4      -13.452980
    5      -11.924556
    6      -11.742477
    7      -11.741939
    8      -11.544832
    9      -10.056416
   10      -10.052790
   11       -9.898612
   12       -9.897466
   13       -9.894304
   14       -9.893554
   15       -9.728792
   16       -9.724921
   17       -6.320161
   18       -6.309403
   19       -6.211199
   20       -6.208432
   21       -6.199318
   22       -6.198768
   23       -6.093493
   24       -6.083013
   25       -4.525968
   26       -4.425570
   27       -4.423635
   28       -4.318327
   29       -2.915888
   30       -2.899907
   31       -2.846253
   32       -2.845966
   33       -2.831215
   34       -2.828598
   35       -2.787278
   36       -2.772533
   37       -2.756316
   38       -1.680879
   39       -1.678815
   40       -0.620634
   41       -0.579285
   42       -0.576023
   43       -0.534080
   44       -0.467167
   45       -0.310195
   46       -0.164427
   47       -0.114816
   48       -0.111131
   49       -0.060871
   50        0.531565
   51        0.533785
   52        1.002076
   53        1.033674
   54        1.038178
   55        1.069932
   56        1.661533
   57        1.663892
   58        1.728921
   59        2.496437
   60        2.497722
   61        2.500165
   62        2.503392
   63        3.399055
   64        3.405696
   65        7.241693
   66        7.246363
   67        7.651070
   68        7.656308
   69        7.659659
   70        7.661504
   71        8.213148
   72        8.217176
   73        9.532266
   74       10.042775
   75       10.045700
   76       10.719942
   77       10.735823
   78       12.596414
   79       12.871521
   80       12.873761
   81       12.928546
   82       13.315852
   83       13.319486
   84       13.394246
 
  0.4444444E+00  0.0000000E+00  0.0000000E+00  0.6172840E-02
    1      -13.368951
    2      -13.170394
    3      -13.169794
    4      -12.953177
    5      -12.714890
    6      -12.523683
    7      -12.523127
    8      -12.315398
    9      -10.189261
   10      -10.187192
   11      -10.029312
   12      -10.027626
   13      -10.026592
   14      -10.025415
   15       -9.856216
   16       -9.854043
   17       -5.559307
   18       -5.551107
   19       -5.479476
   20       -5.475943
   21       -5.470648
   22       -5.469182
   23       -5.396656
   24       -5.389858
   25       -3.657160
   26       -3.648724
   27       -3.602711
   28       -3.601241
   29       -3.594157
   30       -3.591053
   31       -3.536359
   32       -3.526469
   33       -3.038365
   34       -2.954281
   35       -2.951920
   36       -2.864706
   37       -2.170856
   38       -1.558551
   39       -1.493052
   40       -1.490288
   41       -1.420175
   42       -1.391417
   43       -1.086416
   44       -1.084154
   45       -0.342605
   46       -0.340447
   47       -0.153511
   48       -0.114118
   49       -0.110487
   50       -0.071008
   51        0.247055
   52        0.403175
   53        0.439530
   54        0.443423
   55        0.479800
   56        0.938585
   57        1.549240
   58        1.551225
   59        2.421930
   60        2.423321
   61        2.424322
   62        2.428112
   63        3.416422
   64        3.419734
   65        7.505758
   66        7.509244
   67        7.919314
   68        7.924695
   69        7.925882
   70        7.927410
   71        8.357400
   72        8.360453
   73       11.168082
   74       11.335632
   75       11.580687
   76       11.584085
   77       12.087394
   78       12.150405
   79       12.784188
   80       12.916177
   81       12.966673
   82       12.974673
   83       13.090758
   84       13.126671
 
 -0.1355253E-19  0.1111111E+00  0.0000000E+00  0.6172840E-02
    1      -14.471166
    2      -14.260239
    3      -14.259600
    4      -14.027799
    5       -9.990324
    6       -9.835597
    7       -9.835039
    8       -9.671028
    9       -9.445282
   10       -9.437465
   11       -9.310532
   12       -9.310098
   13       -9.301808
   14       -9.301319
   15       -9.174573
   16       -9.165386
   17       -7.805614
   18       -7.797951
   19       -7.702881
   20       -7.699519
   21       -7.694118
   22       -7.691265
   23       -7.578238
   24       -7.569538
   25       -7.294511
   26       -7.172451
   27       -7.172054
   28       -7.040407
   29       -3.500974
   30       -2.369773
   31       -2.367684
   32       -1.486683
   33       -1.465729
   34       -1.438133
   35       -1.435273
   36       -1.416977
   37       -1.414645
   38       -1.385739
   39       -1.364920
   40       -1.183975
   41       -1.138927
   42       -1.138729
   43       -1.093202
   44       -0.963128
   45        1.613676
   46        1.857879
   47        1.878699
   48        1.880224
   49        1.901176
   50        1.994958
   51        2.014428
   52        2.015206
   53        2.034905
   54        2.105966
   55        2.107805
   56        2.373454
   57        2.375623
   58        2.741325
   59        2.744024
   60        2.746916
   61        2.749756
   62        3.090395
   63        3.203386
   64        3.217775
   65        6.755799
   66        6.756467
   67        6.923612
   68        6.928832
   69        6.934278
   70        6.938904
   71        6.980093
   72        7.342427
   73        7.344743
   74        7.631454
   75        7.644963
   76        8.125754
   77       10.040431
   78       12.310320
   79       12.585442
   80       12.586166
   81       12.604273
   82       12.644143
   83       12.880820
   84       12.899901
 
  0.1111111E+00  0.1111111E+00  0.0000000E+00  0.6172840E-02
    1      -14.323278
    2      -14.113998
    3      -14.113367
    4      -13.883652
    5      -10.458966
    6      -10.455807
    7      -10.296928
    8      -10.293462
    9      -10.293430
   10      -10.290529
   11      -10.119970
   12      -10.116726
   13       -8.994868
   14       -8.901658
   15       -8.900314
   16       -8.831126
   17       -7.897037
   18       -7.860501
   19       -7.857004
   20       -7.778738
   21       -6.610688
   22       -6.607343
   23       -6.491927
   24       -6.489187
   25       -6.489153
   26       -6.485048
   27       -6.363128
   28       -6.359574
   29       -3.321671
   30       -2.196361
   31       -2.194275
   32       -2.154053
   33       -2.093812
   34       -2.091614
   35       -2.029811
   36       -1.341699
   37       -1.338721
   38       -1.294463
   39       -1.290237
   40       -1.290226
   41       -1.288894
   42       -1.242085
   43       -1.239443
   44       -0.798397
   45        1.163246
   46        1.165346
   47        1.330868
   48        1.351094
   49        1.355853
   50        1.374343
   51        1.677942
   52        1.693428
   53        1.698523
   54        1.715290
   55        2.011971
   56        2.015902
   57        2.016021
   58        2.018334
   59        2.501910
   60        2.925874
   61        2.928613
   62        3.059015
   63        3.062432
   64        3.371994
   65        6.711298
   66        6.721662
   67        6.725648
   68        7.284766
   69        7.414148
   70        7.417139
   71        7.884445
   72        7.886284
   73        7.886712
   74        7.891129
   75        8.647055
   76        8.649618
   77       10.213769
   78       12.684693
   79       12.688912
   80       12.954933
   81       12.959262
   82       12.959950
   83       12.967344
   84       13.216707
 
  0.2222222E+00  0.1111111E+00  0.0000000E+00  0.6172840E-02
    1      -14.028334
    2      -13.822382
    3      -13.821764
    4      -13.596107
    5      -11.428897
    6      -11.252799
    7      -11.252256
    8      -11.062298
    9      -10.801593
   10      -10.633151
   11      -10.632593
   12      -10.451684
   13       -9.057317
   14       -8.927549
   15       -8.926857
   16       -8.796686
   17       -7.456100
   18       -7.359773
   19       -7.356798
   20       -7.243941
   21       -5.822032
   22       -5.711504
   23       -5.710834
   24       -5.594493
   25       -5.221657
   26       -5.114943
   27       -5.113181
   28       -5.000886
   29       -3.067308
   30       -2.995412
   31       -2.993265
   32       -2.964592
   33       -2.917894
   34       -1.870566
   35       -1.851701
   36       -1.849623
   37       -1.812279
   38       -1.811994
   39       -1.751677
   40       -1.054092
   41       -1.007750
   42       -1.004812
   43       -0.957593
   44       -0.471686
   45        0.103284
   46        0.370256
   47        0.404344
   48        0.409301
   49        0.442150
   50        0.819590
   51        1.063896
   52        1.066191
   53        1.129551
   54        1.153184
   55        1.158710
   56        1.183502
   57        1.727296
   58        1.729378
   59        2.195421
   60        2.625434
   61        2.764346
   62        3.260899
   63        3.264146
   64        3.719659
   65        6.646503
   66        6.730364
   67        6.735251
   68        7.215879
   69        7.966799
   70        8.455326
   71        8.457800
   72        8.734401
   73        9.106984
   74        9.256339
   75        9.259200
   76        9.954565
   77       10.561671
   78       12.837609
   79       13.102273
   80       13.104221
   81       13.289798
   82       13.400532
   83       13.403943
   84       13.676021
 
  0.3333333E+00  0.1111111E+00  0.0000000E+00  0.6172840E-02
    1      -13.587897
    2      -13.386943
    3      -13.386342
    4      -13.166686
    5      -12.283208
    6      -12.097026
    7      -12.096472
    8      -11.894571
    9      -11.011526
   10      -10.840342
   11      -10.839758
   12      -10.655712
   13       -9.206129
   14       -9.061875
   15       -9.061450
   16       -8.909790
   17       -6.692591
   18       -6.592507
   19       -6.589691
   20       -6.483937
   21       -5.015677
   22       -4.923721
   23       -4.922358
   24       -4.827546
   25       -4.006039
   26       -3.933094
   27       -3.930791
   28       -3.850610
   29       -3.765375
   30       -3.674553
   31       -3.672574
   32       -3.578345
   33       -2.570210
   34       -2.509349
   35       -2.508255
   36       -2.442551
   37       -2.433484
   38       -1.340978
   39       -1.338990
   40       -0.886654
   41       -0.880827
   42       -0.830420
   43       -0.826214
   44       -0.773075
   45       -0.636762
   46       -0.592884
   47       -0.589766
   48       -0.544965
   49        0.010755
   50        0.141803
   51        0.143949
   52        0.500939
   53        0.534084
   54        0.539071
   55        0.573197
   56        0.604829
   57        1.382520
   58        1.543400
   59        1.545493
   60        2.606686
   61        2.646527
   62        3.350768
   63        3.353590
   64        4.070596
   65        6.539630
   66        6.851328
   67        6.855623
   68        7.319752
   69        8.473531
   70        8.909874
   71        8.912691
   72        9.394748
   73       10.303889
   74       10.761450
   75       10.764144
   76       11.082708
   77       11.349038
   78       12.586272
   79       13.119698
   80       13.295582
   81       13.298046
   82       13.411517
   83       13.424720
   84       13.466604
 
  0.4444444E+00  0.1111111E+00  0.0000000E+00  0.6172840E-02
    1      -13.006548
    2      -13.003445
    3      -12.813384
    4      -12.810628
    5      -12.809674
    6      -12.807319
    7      -12.599832
    8      -12.596652
    9      -11.082415
   10      -10.910571
   11      -10.909974
   12      -10.724802
   13       -9.262018
   14       -9.115049
   15       -9.114601
   16       -8.959108
   17       -6.170592
   18       -6.104480
   19       -6.101818
   20       -6.041032
   21       -4.530549
   22       -4.513070
   23       -4.477962
   24       -4.476564
   25       -4.474111
   26       -4.471792
   27       -4.423506
   28       -4.420711
   29       -2.973047
   30       -2.939693
   31       -2.936649
   32       -2.891370
   33       -2.298884
   34       -2.295527
   35       -2.225496
   36       -2.225149
   37       -2.223480
   38       -2.218593
   39       -2.148329
   40       -2.144426
   41       -1.736770
   42       -1.734229
   43       -0.672565
   44       -0.669101
   45       -0.668350
   46       -0.666056
   47       -0.110462
   48       -0.104037
   49       -0.071655
   50       -0.064381
   51       -0.062152
   52       -0.061932
   53       -0.024498
   54       -0.019968
   55        0.531122
   56        0.635167
   57        0.638080
   58        1.479842
   59        1.481974
   60        2.588551
   61        2.603420
   62        3.373705
   63        3.376112
   64        4.213646
   65        6.499994
   66        6.920250
   67        6.923684
   68        7.374320
   69        8.695797
   70        9.086478
   71        9.089762
   72        9.475669
   73       11.767135
   74       11.769568
   75       11.914924
   76       11.919120
   77       12.253037
   78       12.255483
   79       12.256573
   80       12.261605
   81       12.733833
   82       12.737281
   83       13.351652
   84       13.383101
 
 -0.4444444E+00  0.1111111E+00  0.0000000E+00  0.6172840E-02
    1      -13.588664
    2      -13.387703
    3      -13.387093
    4      -13.167449
    5      -12.282000
    6      -12.095825
    7      -12.095283
    8      -11.893366
    9      -11.013302
   10      -10.842205
   11      -10.841608
   12      -10.657525
   13       -9.203507
   14       -9.059068
   15       -9.058597
   16       -8.906661
   17       -6.684221
   18       -6.583294
   19       -6.582267
   20       -6.475771
   21       -5.027200
   22       -4.935656
   23       -4.932759
   24       -4.838225
   25       -4.018103
   26       -3.944680
   27       -3.944103
   28       -3.863297
   29       -3.767562
   30       -3.676979
   31       -3.674625
   32       -3.580564
   33       -2.555860
   34       -2.495560
   35       -2.492625
   36       -2.434331
   37       -2.427475
   38       -1.341687
   39       -1.339715
   40       -0.886409
   41       -0.879957
   42       -0.829769
   43       -0.827077
   44       -0.773424
   45       -0.634692
   46       -0.591009
   47       -0.587479
   48       -0.542877
   49        0.010061
   50        0.142817
   51        0.145008
   52        0.501208
   53        0.534693
   54        0.538097
   55        0.572644
   56        0.603548
   57        1.383478
   58        1.541693
   59        1.543911
   60        2.606906
   61        2.644065
   62        3.353480
   63        3.355673
   64        4.078601
   65        6.539363
   66        6.855112
   67        6.857840
   68        7.320687
   69        8.467922
   70        8.904722
   71        8.908435
   72        9.393283
   73       10.304662
   74       10.760864
   75       10.763810
   76       11.081673
   77       11.347511
   78       12.587356
   79       13.116657
   80       13.292119
   81       13.295161
   82       13.415194
   83       13.426926
   84       13.466975
 
 -0.3333333E+00  0.1111111E+00  0.0000000E+00  0.6172840E-02
    1      -14.028876
    2      -13.822931
    3      -13.822305
    4      -13.596660
    5      -11.427473
    6      -11.251363
    7      -11.250840
    8      -11.060866
    9      -10.805176
   10      -10.636785
   11      -10.636210
   12      -10.455371
   13       -9.051777
   14       -8.921133
   15       -8.920683
   16       -8.789327
   17       -7.449650
   18       -7.351330
   19       -7.350835
   20       -7.236310
   21       -5.833734
   22       -5.723891
   23       -5.721516
   24       -5.605839
   25       -5.223967
   26       -5.117344
   27       -5.115435
   28       -5.003254
   29       -3.083207
   30       -3.010418
   31       -3.010186
   32       -2.965134
   33       -2.933902
   34       -1.852533
   35       -1.851909
   36       -1.850136
   37       -1.794925
   38       -1.792337
   39       -1.733241
   40       -1.052366
   41       -1.006152
   42       -1.002961
   43       -0.955884
   44       -0.472197
   45        0.104476
   46        0.366234
   47        0.401461
   48        0.403453
   49        0.437097
   50        0.817171
   51        1.064942
   52        1.067345
   53        1.135102
   54        1.158786
   55        1.161308
   56        1.186823
   57        1.723940
   58        1.726312
   59        2.196293
   60        2.624790
   61        2.759238
   62        3.265937
   63        3.268136
   64        3.734529
   65        6.643509
   66        6.736638
   67        6.739074
   68        7.221220
   69        7.959938
   70        8.446951
   71        8.450976
   72        8.734573
   73        9.102177
   74        9.255379
   75        9.258546
   76        9.952887
   77       10.560905
   78       12.835182
   79       13.099800
   80       13.102125
   81       13.288263
   82       13.403235
   83       13.405101
   84       13.679355
 
 -0.2222222E+00  0.1111111E+00  0.0000000E+00  0.6172840E-02
    1      -14.323610
    2      -14.114327
    3      -14.113691
    4      -13.883998
    5      -10.462734
    6      -10.455751
    7      -10.299340
    8      -10.298816
    9      -10.292271
   10      -10.291724
   11      -10.123993
   12      -10.116816
   13       -8.985927
   14       -8.890537
   15       -8.890176
   16       -8.818496
   17       -7.894616
   18       -7.855206
   19       -7.854922
   20       -7.773925
   21       -6.619406
   22       -6.610625
   23       -6.500295
   24       -6.498094
   25       -6.491356
   26       -6.489582
   27       -6.371736
   28       -6.363122
   29       -3.322039
   30       -2.196681
   31       -2.194600
   32       -2.171918
   33       -2.110818
   34       -2.110522
   35       -2.047712
   36       -1.339734
   37       -1.319694
   38       -1.291975
   39       -1.289032
   40       -1.271800
   41       -1.269302
   42       -1.240379
   43       -1.220457
   44       -0.798709
   45        1.161414
   46        1.165188
   47        1.318335
   48        1.340710
   49        1.341266
   50        1.361234
   51        1.692154
   52        1.708281
   53        1.708449
   54        1.726936
   55        2.009824
   56        2.012443
   57        2.015016
   58        2.017745
   59        2.500372
   60        2.919726
   61        2.927228
   62        3.065503
   63        3.067760
   64        3.390650
   65        6.706844
   66        6.728254
   67        6.730658
   68        7.295297
   69        7.409436
   70        7.416771
   71        7.875461
   72        7.879763
   73        7.885317
   74        7.889084
   75        8.639901
   76        8.647455
   77       10.213288
   78       12.684882
   79       12.720914
   80       12.956157
   81       12.958320
   82       12.992908
   83       12.996613
   84       13.221956
 
 -0.1111111E+00  0.1111111E+00  0.0000000E+00  0.6172840E-02
    1      -14.471275
    2      -14.260349
    3      -14.259708
    4      -14.027908
    5       -9.997604
    6       -9.843052
    7       -9.842603
    8       -9.678832
    9       -9.437123
   10       -9.434945
   11       -9.303058
   12       -9.300049
   13       -9.299982
   14       -9.298255
   15       -9.165337
   16       -9.162708
   17       -7.801222
   18       -7.799151
   19       -7.696718
   20       -7.695759
   21       -7.695693
   22       -7.692682
   23       -7.573087
   24       -7.571125
   25       -7.302149
   26       -7.181128
   27       -7.178872
   28       -7.048141
   29       -3.501084
   30       -2.369880
   31       -2.367793
   32       -1.486975
   33       -1.484297
   34       -1.438915
   35       -1.434882
   36       -1.434869
   37       -1.433913
   38       -1.385873
   39       -1.383512
   40       -1.164162
   41       -1.120225
   42       -1.117750
   43       -1.073321
   44       -0.963232
   45        1.610623
   46        1.842181
   47        1.862627
   48        1.868157
   49        1.888053
   50        2.008683
   51        2.026527
   52        2.031368
   53        2.050039
   54        2.106802
   55        2.109130
   56        2.367361
   57        2.370269
   58        2.744798
   59        2.749536
   60        2.749993
   61        2.751166
   62        3.078751
   63        3.216991
   64        3.219847
   65        6.753643
   66        6.756829
   67        6.932109
   68        6.933854
   69        6.934179
   70        6.939552
   71        6.978122
   72        7.332953
   73        7.337567
   74        7.641574
   75        7.644120
   76        8.116411
   77       10.040266
   78       12.344666
   79       12.600513
   80       12.604424
   81       12.619398
   82       12.621461
   83       12.882278
   84       12.892221
 
 -0.1355253E-19  0.2222222E+00  0.0000000E+00  0.6172840E-02
    1      -14.249570
    2      -14.041134
    3      -14.040500
    4      -13.811799
    5      -11.007544
    6      -10.836428
    7      -10.835863
    8      -10.651977
    9       -9.798030
   10       -9.792092
   11       -9.646845
   12       -9.645573
   13       -9.639961
   14       -9.639092
   15       -9.484976
   16       -9.478596
   17       -7.131124
   18       -7.120554
   19       -7.014379
   20       -7.011316
   21       -7.003136
   22       -7.000577
   23       -6.884830
   24       -6.874078
   25       -5.966485
   26       -5.850973
   27       -5.850573
   28       -5.728695
   29       -3.232292
   30       -2.110026
   31       -2.107945
   32       -2.097973
   33       -2.078306
   34       -2.038872
   35       -2.036138
   36       -2.018884
   37       -2.016619
   38       -1.974864
   39       -1.955270
   40       -0.968514
   41       -0.924409
   42       -0.924169
   43       -0.879551
   44       -0.716496
   45        0.568136
   46        1.026125
   47        1.060908
   48        1.061434
   49        1.096341
   50        1.484503
   51        1.486589
   52        1.570725
   53        1.598014
   54        1.598151
   55        1.625735
   56        1.865756
   57        1.868560
   58        2.529907
   59        2.619705
   60        2.621763
   61        2.625436
   62        2.627478
   63        3.333316
   64        3.342958
   65        6.935020
   66        6.939209
   67        7.259033
   68        7.263898
   69        7.269240
   70        7.273569
   71        7.931737
   72        7.940852
   73        8.036049
   74        8.564718
   75        8.566970
   76        9.335100
   77       10.300083
   78       12.432233
   79       12.697152
   80       12.698078
   81       12.953538
   82       13.228830
   83       13.232235
   84       13.522052
 
  0.1111111E+00  0.2222222E+00  0.0000000E+00  0.6172840E-02
    1      -14.028339
    2      -13.822388
    3      -13.821766
    4      -13.596112
    5      -11.428953
    6      -11.252880
    7      -11.252285
    8      -11.062351
    9      -10.801551
   10      -10.633098
   11      -10.632574
   12      -10.451653
   13       -9.057306
   14       -8.927547
   15       -8.926841
   16       -8.796680
   17       -7.456048
   18       -7.359648
   19       -7.356797
   20       -7.243867
   21       -5.820991
   22       -5.710897
   23       -5.709314
   24       -5.593402
   25       -5.222678
   26       -5.115360
   27       -5.114865
   28       -5.001969
   29       -3.067396
   30       -2.995412
   31       -2.993437
   32       -2.964577
   33       -2.917979
   34       -1.872053
   35       -1.851679
   36       -1.849607
   37       -1.814875
   38       -1.812239
   39       -1.753039
   40       -1.052495
   41       -1.004874
   42       -1.004710
   43       -0.956191
   44       -0.471658
   45        0.103642
   46        0.369282
   47        0.404343
   48        0.407002
   49        0.440658