   4   4   0   0
  0.9341735E+01  0.2466437E-09  0.2466437E-09  0.7095973E-09  0.5000000E-15
  1.000000000000000E-004
  CAR 
 graphite                                
     17.72379683    -17.38711979  301      4.19891795      1.00000000
    -17.387  0.0000E+00  0.0000E+00
    -17.270  0.0000E+00  0.0000E+00
    -17.153  0.0000E+00  0.0000E+00
    -17.036  0.0000E+00  0.0000E+00
    -16.919  0.0000E+00  0.0000E+00
    -16.802  0.0000E+00  0.0000E+00
    -16.685  0.0000E+00  0.0000E+00
    -16.568  0.0000E+00  0.0000E+00
    -16.451  0.0000E+00  0.0000E+00
    -16.334  0.0000E+00  0.0000E+00
    -16.217  0.0000E+00  0.0000E+00
    -16.100  0.0000E+00  0.0000E+00
    -15.983  0.0000E+00  0.0000E+00
    -15.866  0.0000E+00  0.0000E+00
    -15.749  0.0000E+00  0.0000E+00
    -15.632  0.0000E+00  0.0000E+00
    -15.515  0.0000E+00  0.0000E+00
    -15.398  0.0000E+00  0.0000E+00
    -15.280  0.1114E-02  0.4604E-04
    -15.163  0.2610E-02  0.2791E-03
    -15.046  0.3134E-02  0.6351E-03
    -14.929  0.3062E-02  0.9791E-03
    -14.812  0.3232E-02  0.1351E-02
    -14.695  0.3090E-02  0.1724E-02
    -14.578  0.2961E-02  0.2076E-02
    -14.461  0.3046E-02  0.2426E-02
    -14.344  0.3155E-02  0.2789E-02
    -14.227  0.3225E-02  0.3164E-02
    -14.110  0.3157E-02  0.3538E-02
    -13.993  0.3066E-02  0.3900E-02
    -13.876  0.3052E-02  0.4258E-02
    -13.759  0.3074E-02  0.4616E-02
    -13.642  0.3129E-02  0.4979E-02
    -13.525  0.3187E-02  0.5349E-02
    -13.408  0.3239E-02  0.5725E-02
    -13.291  0.3208E-02  0.6103E-02
    -13.174  0.3128E-02  0.6473E-02
    -13.057  0.3119E-02  0.6838E-02
    -12.940  0.3135E-02  0.7204E-02
    -12.823  0.3151E-02  0.7572E-02
    -12.706  0.3171E-02  0.7942E-02
    -12.589  0.3205E-02  0.8315E-02
    -12.472  0.3242E-02  0.8692E-02
    -12.355  0.3280E-02  0.9074E-02
    -12.238  0.3272E-02  0.9458E-02
    -12.120  0.3235E-02  0.9838E-02
    -12.003  0.3225E-02  0.1022E-01
    -11.886  0.3230E-02  0.1059E-01
    -11.769  0.3256E-02  0.1097E-01
    -11.652  0.3285E-02  0.1136E-01
    -11.535  0.3314E-02  0.1174E-01
    -11.418  0.3342E-02  0.1213E-01
    -11.301  0.3380E-02  0.1252E-01
    -11.184  0.3442E-02  0.1292E-01
    -11.067  0.3509E-02  0.1333E-01
    -10.950  0.3560E-02  0.1374E-01
    -10.833  0.3631E-02  0.1416E-01
    -10.716  0.3776E-02  0.1460E-01
    -10.599  0.3932E-02  0.1505E-01
    -10.482  0.4910E-02  0.1553E-01
    -10.365  0.6431E-02  0.1620E-01
    -10.248  0.5125E-02  0.1688E-01
    -10.131  0.3820E-02  0.1740E-01
    -10.014  0.2827E-02  0.1778E-01
     -9.897  0.2550E-02  0.1810E-01
     -9.780  0.2274E-02  0.1838E-01
     -9.663  0.2492E-02  0.1863E-01
     -9.546  0.3821E-02  0.1919E-01
     -9.429  0.1212E-02  0.1937E-01
     -9.312  0.1075E-02  0.1950E-01
     -9.195  0.9389E-03  0.1962E-01
     -9.078  0.8025E-03  0.1972E-01
     -8.960  0.8303E-03  0.1981E-01
     -8.843  0.1113E-02  0.1993E-01
     -8.726  0.1397E-02  0.2007E-01
     -8.609  0.1815E-02  0.2026E-01
     -8.492  0.4181E-02  0.2060E-01
     -8.375  0.5301E-02  0.2122E-01
     -8.258  0.3439E-02  0.2171E-01
     -8.141  0.4152E-02  0.2215E-01
     -8.024  0.4865E-02  0.2268E-01
     -7.907  0.5577E-02  0.2329E-01
     -7.790  0.6290E-02  0.2399E-01
     -7.673  0.3627E-02  0.2460E-01
     -7.556  0.3515E-02  0.2502E-01
     -7.439  0.3419E-02  0.2543E-01
     -7.322  0.3335E-02  0.2582E-01
     -7.205  0.3251E-02  0.2621E-01
     -7.088  0.3162E-02  0.2658E-01
     -6.971  0.3068E-02  0.2695E-01
     -6.854  0.2975E-02  0.2730E-01
     -6.737  0.2881E-02  0.2764E-01
     -6.620  0.2788E-02  0.2798E-01
     -6.503  0.2694E-02  0.2830E-01
     -6.386  0.2600E-02  0.2861E-01
     -6.269  0.2640E-02  0.2891E-01
     -6.152  0.2867E-02  0.2923E-01
     -6.035  0.3094E-02  0.2958E-01
     -5.918  0.3321E-02  0.2995E-01
     -5.801  0.3548E-02  0.3036E-01
     -5.683  0.3775E-02  0.3079E-01
     -5.566  0.4003E-02  0.3124E-01
     -5.449  0.4178E-02  0.3172E-01
     -5.332  0.4152E-02  0.3221E-01
     -5.215  0.3826E-02  0.3268E-01
     -5.098  0.3824E-02  0.3313E-01
     -4.981  0.3823E-02  0.3357E-01
     -4.864  0.3821E-02  0.3402E-01
     -4.747  0.3820E-02  0.3447E-01
     -4.630  0.3881E-02  0.3492E-01
     -4.513  0.3960E-02  0.3538E-01
     -4.396  0.4039E-02  0.3584E-01
     -4.279  0.4118E-02  0.3632E-01
     -4.162  0.4180E-02  0.3681E-01
     -4.045  0.4290E-02  0.3730E-01
     -3.928  0.4870E-02  0.3783E-01
     -3.811  0.5274E-02  0.3843E-01
     -3.694  0.5490E-02  0.3906E-01
     -3.577  0.5733E-02  0.3972E-01
     -3.460  0.5982E-02  0.4041E-01
     -3.343  0.6198E-02  0.4112E-01
     -3.226  0.6955E-02  0.4187E-01
     -3.109  0.7454E-02  0.4272E-01
     -2.992  0.7540E-02  0.4360E-01
     -2.875  0.7516E-02  0.4448E-01
     -2.758  0.7454E-02  0.4536E-01
     -2.641  0.8458E-02  0.4625E-01
     -2.523  0.9161E-02  0.4728E-01
     -2.406  0.9642E-02  0.4838E-01
     -2.289  0.1019E-01  0.4955E-01
     -2.172  0.1332E-01  0.5106E-01
     -2.055  0.1045E-01  0.5247E-01
     -1.938  0.8692E-02  0.5357E-01
     -1.821  0.7936E-02  0.5453E-01
     -1.704  0.7497E-02  0.5543E-01
     -1.587  0.5662E-02  0.5622E-01
     -1.470  0.4442E-02  0.5679E-01
     -1.353  0.4555E-02  0.5731E-01
     -1.236  0.5140E-02  0.5788E-01
     -1.119  0.5808E-02  0.5852E-01
     -1.002  0.5870E-02  0.5920E-01
     -0.885  0.7182E-02  0.5995E-01
     -0.768  0.1011E-01  0.6103E-01
     -0.651  0.8125E-02  0.6206E-01
     -0.534  0.7293E-02  0.6296E-01
     -0.417  0.6676E-02  0.6378E-01
     -0.300  0.6205E-02  0.6453E-01
     -0.183  0.5991E-02  0.6524E-01
     -0.066  0.5829E-02  0.6594E-01
      0.051  0.5688E-02  0.6661E-01
      0.168  0.5987E-02  0.6729E-01
      0.285  0.5895E-02  0.6799E-01
      0.402  0.5770E-02  0.6867E-01
      0.519  0.5647E-02  0.6934E-01
      0.636  0.5848E-02  0.7003E-01
      0.754  0.5538E-02  0.7070E-01
      0.871  0.6366E-02  0.7134E-01
      0.988  0.5402E-02  0.7203E-01
      1.105  0.4463E-02  0.7261E-01
      1.222  0.3808E-02  0.7308E-01
      1.339  0.4023E-02  0.7354E-01
      1.456  0.5013E-02  0.7408E-01
      1.573  0.4812E-02  0.7466E-01
      1.690  0.4667E-02  0.7522E-01
      1.807  0.4609E-02  0.7576E-01
      1.924  0.4577E-02  0.7630E-01
      2.041  0.4575E-02  0.7683E-01
      2.158  0.3323E-02  0.7732E-01
      2.275  0.3019E-02  0.7768E-01
      2.392  0.2846E-02  0.7803E-01
      2.509  0.2485E-02  0.7835E-01
      2.626  0.2086E-02  0.7861E-01
      2.743  0.1883E-02  0.7885E-01
      2.860  0.1693E-02  0.7905E-01
      2.977  0.1499E-02  0.7924E-01
      3.094  0.1295E-02  0.7941E-01
      3.211  0.1030E-02  0.7954E-01
      3.328  0.8822E-03  0.7965E-01
      3.445  0.7441E-03  0.7975E-01
      3.562  0.6059E-03  0.7983E-01
      3.679  0.4676E-03  0.7989E-01
      3.796  0.3338E-03  0.7994E-01
      3.914  0.2218E-03  0.7997E-01
      4.031  0.1228E-03  0.7999E-01
      4.148  0.3374E-04  0.8000E-01
      4.265  0.3834E-04  0.8000E-01
      4.382  0.1179E-03  0.8001E-01
      4.499  0.2092E-03  0.8003E-01
      4.616  0.3149E-03  0.8006E-01
      4.733  0.4475E-03  0.8010E-01
      4.850  0.5958E-03  0.8017E-01
      4.967  0.7442E-03  0.8024E-01
      5.084  0.8928E-03  0.8034E-01
      5.201  0.1042E-02  0.8045E-01
      5.318  0.1190E-02  0.8058E-01
      5.435  0.2202E-02  0.8079E-01
      5.552  0.2474E-02  0.8107E-01
      5.669  0.2896E-02  0.8137E-01
      5.786  0.3869E-02  0.8178E-01
      5.903  0.5404E-02  0.8231E-01
      6.020  0.4777E-02  0.8290E-01
      6.137  0.4714E-02  0.8346E-01
      6.254  0.4786E-02  0.8401E-01
      6.371  0.4806E-02  0.8458E-01
      6.488  0.4364E-02  0.8512E-01
      6.605  0.3593E-02  0.8557E-01
      6.722  0.3337E-02  0.8597E-01
      6.839  0.3115E-02  0.8635E-01
      6.956  0.2940E-02  0.8670E-01
      7.073  0.2802E-02  0.8704E-01
      7.191  0.2692E-02  0.8736E-01
      7.308  0.2620E-02  0.8767E-01
      7.425  0.2561E-02  0.8797E-01
      7.542  0.2506E-02  0.8827E-01
      7.659  0.2452E-02  0.8856E-01
      7.776  0.2401E-02  0.8884E-01
      7.893  0.2352E-02  0.8912E-01
      8.010  0.2303E-02  0.8939E-01
      8.127  0.2265E-02  0.8966E-01
      8.244  0.2393E-02  0.8993E-01
      8.361  0.2532E-02  0.9022E-01
      8.478  0.2491E-02  0.9052E-01
      8.595  0.2528E-02  0.9081E-01
      8.712  0.2580E-02  0.9111E-01
      8.829  0.2604E-02  0.9141E-01
      8.946  0.2617E-02  0.9172E-01
      9.063  0.2664E-02  0.9203E-01
      9.180  0.2722E-02  0.9234E-01
      9.297  0.2780E-02  0.9266E-01
      9.414  0.2841E-02  0.9299E-01
      9.531  0.2907E-02  0.9333E-01
      9.648  0.3051E-02  0.9368E-01
      9.765  0.3368E-02  0.9405E-01
      9.882  0.3874E-02  0.9447E-01
      9.999  0.3495E-02  0.9491E-01
     10.116  0.3281E-02  0.9531E-01
     10.233  0.2991E-02  0.9567E-01
     10.351  0.2637E-02  0.9600E-01
     10.468  0.2294E-02  0.9629E-01
     10.585  0.2149E-02  0.9655E-01
     10.702  0.1964E-02  0.9679E-01
     10.819  0.2056E-02  0.9702E-01
     10.936  0.2193E-02  0.9727E-01
     11.053  0.2358E-02  0.9754E-01
     11.170  0.2572E-02  0.9782E-01
     11.287  0.2833E-02  0.9814E-01
     11.404  0.3190E-02  0.9849E-01
     11.521  0.3963E-02  0.9890E-01
     11.638  0.5249E-02  0.9944E-01
     11.755  0.6719E-02  0.1001E+00
     11.872  0.8397E-02  0.1010E+00
     11.989  0.9134E-02  0.1021E+00
     12.106  0.9680E-02  0.1032E+00
     12.223  0.9966E-02  0.1043E+00
     12.340  0.9743E-02  0.1055E+00
     12.457  0.9584E-02  0.1066E+00
     12.574  0.1371E-01  0.1078E+00
     12.691  0.1220E-01  0.1095E+00
     12.808  0.8613E-02  0.1107E+00
     12.925  0.5471E-02  0.1115E+00
     13.042  0.5068E-02  0.1121E+00
     13.159  0.4586E-02  0.1127E+00
     13.276  0.4370E-02  0.1132E+00
     13.393  0.4214E-02  0.1137E+00
     13.510  0.3751E-02  0.1142E+00
     13.628  0.3305E-02  0.1146E+00
     13.745  0.3020E-02  0.1150E+00
     13.862  0.2867E-02  0.1153E+00
     13.979  0.2857E-02  0.1157E+00
     14.096  0.3142E-02  0.1160E+00
     14.213  0.4377E-02  0.1164E+00
     14.330  0.3751E-02  0.1169E+00
     14.447  0.3517E-02  0.1174E+00
     14.564  0.3836E-02  0.1178E+00
     14.681  0.4812E-02  0.1183E+00
     14.798  0.3289E-02  0.1188E+00
     14.915  0.2374E-02  0.1191E+00
     15.032  0.2000E-02  0.1193E+00
     15.149  0.1896E-02  0.1196E+00
     15.266  0.1383E-02  0.1198E+00
     15.383  0.8754E-03  0.1199E+00
     15.500  0.3904E-03  0.1200E+00
     15.617  0.7854E-04  0.1200E+00
     15.734  0.0000E+00  0.1200E+00
     15.851  0.0000E+00  0.1200E+00
     15.968  0.0000E+00  0.1200E+00
     16.085  0.0000E+00  0.1200E+00
     16.202  0.0000E+00  0.1200E+00
     16.319  0.0000E+00  0.1200E+00
     16.436  0.0000E+00  0.1200E+00
     16.553  0.0000E+00  0.1200E+00
     16.670  0.0000E+00  0.1200E+00
     16.788  0.0000E+00  0.1200E+00
     16.905  0.0000E+00  0.1200E+00
     17.022  0.0000E+00  0.1200E+00
     17.139  0.0000E+00  0.1200E+00
     17.256  0.0000E+00  0.1200E+00
     17.373  0.0000E+00  0.1200E+00
     17.490  0.0000E+00  0.1200E+00
     17.607  0.0000E+00  0.1200E+00
     17.724  0.0000E+00  0.1200E+00
