    4    4  200    1
  0.9341735E+01  0.2466437E-09  0.2466437E-09  0.7095973E-09  0.5000000E-15
  1.000000000000000E-004
  CAR 
 graphite                                
     16    215     12
 
  0.0000000E+00  0.0000000E+00  0.0000000E+00  0.8680556E-03
    1      -15.387120
    2      -15.195259
    3       -4.088613
    4       -2.624029
    5        1.188273
    6        1.189600
    7        1.198387
    8        1.199426
    9        8.089783
   10       12.528700
   11       12.542457
   12       12.572343
 
  0.8333333E-01  0.0000000E+00  0.0000000E+00  0.3472222E-02
    1      -15.221974
    2      -15.032155
    3       -3.888459
    4       -2.434202
    5        0.533612
    6        0.552689
    7        0.846599
    8        0.862414
    9        8.294328
   10       12.586312
   11       12.642067
   12       13.221117
 
  0.1666667E+00  0.0000000E+00  0.0000000E+00  0.3472222E-02
    1      -14.728311
    2      -14.544592
    3       -3.292356
    4       -1.870908
    5       -1.114366
    6       -1.076595
    7        0.049536
    8        0.072430
    9        8.909104
   10       12.492764
   11       12.616429
   12       13.428581
 
  0.2500000E+00  0.0000000E+00  0.0000000E+00  0.3472222E-02
    1      -13.912032
    2      -13.738313
    3       -3.224846
    4       -3.165264
    5       -2.316636
    6       -0.956996
    7       -0.833279
    8       -0.805880
    9        9.929061
   10       11.230808
   11       11.671344
   12       12.172810
 
  0.3333333E+00  0.0000000E+00  0.0000000E+00  0.3472222E-02
    1      -12.785450
    2      -12.625381
    3       -5.440390
    4       -5.359011
    5       -1.568278
    6       -1.538368
    7       -1.002943
    8        0.245433
    9        8.819671
   10        9.466609
   11       11.304948
   12       11.827722
 
  0.4166667E+00 -0.2775558E-16  0.0000000E+00  0.3472222E-02
    1      -11.379358
    2      -11.237674
    3       -7.551274
    4       -7.450953
    5       -2.041906
    6       -2.010719
    7        0.519427
    8        1.521165
    9        6.658691
   10        7.394067
   11       11.545931
   12       11.787468
 
  0.5000000E+00  0.0000000E+00  0.0000000E+00  0.1736111E-02
    1      -10.082902
    2      -10.012623
    3       -9.031536
    4       -8.977747
    5       -2.204514
    6       -2.172931
    7        1.564545
    8        2.069836
    9        5.705024
   10        6.247388
   11       11.458162
   12       11.716819
 
  0.8333333E-01  0.8333333E-01  0.0000000E+00  0.1736111E-02
    1      -14.892346
    2      -14.706606
    3       -3.489899
    4       -2.057185
    5       -0.503345
    6       -0.484933
    7        0.172702
    8        0.186073
    9        8.705368
   10       12.872506
   11       12.956314
   12       13.945901
 
  0.1666667E+00  0.8333333E-01  0.0000000E+00  0.3472222E-02
    1      -14.237154
    2      -14.059475
    3       -2.702811
    4       -2.225548
    5       -2.185132
    6       -1.316723
    7       -0.832025
    8       -0.806566
    9        9.527067
   10       12.141056
   11       12.443750
   12       12.968841
 
  0.2500000E+00  0.8333333E-01  0.0000000E+00  0.3472222E-02
    1      -13.265329
    2      -13.099442
    3       -4.312163
    4       -4.245670
    5       -1.724466
    6       -1.690125
    7       -1.552920
    8       -0.249518
    9        9.903823
   10       10.392758
   11       10.748034
   12       12.684911
 
  0.3333333E+00  0.8333333E-01  0.0000000E+00  0.3472222E-02
    1      -11.995814
    2      -11.845553
    3       -6.447081
    4       -6.357889
    5       -2.362778
    6       -2.324294
    7       -0.109069
    8        1.037779
    9        7.619177
   10        8.281084
   11       12.239150
   12       12.426393
 
  0.4166667E+00  0.8333333E-01  0.0000000E+00  0.3472222E-02
    1      -10.502239
    2      -10.378699
    3       -8.393884
    4       -8.294302
    5       -2.693164
    6       -2.653003
    7        1.362299
    8        2.101906
    9        5.924777
   10        6.521476
   11       12.188807
   12       12.463508
 
  0.5000000E+00  0.8333333E-01  0.0000000E+00  0.3472222E-02
    1      -10.504548
    2      -10.380941
    3       -8.391067
    4       -8.291354
    5       -2.694155
    6       -2.653982
    7        1.360482
    8        2.101003
    9        5.925454
   10        6.524004
   11       12.189461
   12       12.464050
 
 -0.4166667E+00  0.8333333E-01  0.0000000E+00  0.3472222E-02
    1      -11.997894
    2      -11.847602
    3       -6.443180
    4       -6.353923
    5       -2.365754
    6       -2.327189
    7       -0.111381
    8        1.035631
    9        7.621046
   10        8.284772
   11       12.237249
   12       12.426618
 
 -0.3333333E+00  0.8333333E-01  0.0000000E+00  0.3472222E-02
    1      -13.266931
    2      -13.101035
    3       -4.307531
    4       -4.240907
    5       -1.729271
    6       -1.694784
    7       -1.554897
    8       -0.251504
    9        9.904946
   10       10.396289
   11       10.745529
   12       12.686707
 
 -0.2500000E+00  0.8333333E-01  0.0000000E+00  0.3472222E-02
    1      -14.238289
    2      -14.060601
    3       -2.704277
    4       -2.220808
    5       -2.180165
    6       -1.318224
    7       -0.837644
    8       -0.812022
    9        9.525278
   10       12.140323
   11       12.446583
   12       12.967459
 
 -0.1666667E+00  0.8333333E-01  0.0000000E+00  0.3472222E-02
    1      -14.893023
    2      -14.707277
    3       -3.490795
    4       -2.058108
    5       -0.501926
    6       -0.483046
    7        0.170362
    8        0.183762
    9        8.704258
   10       12.864018
   11       12.948849
   12       13.993674
 
 -0.8333333E-01  0.8333333E-01  0.0000000E+00  0.1736111E-02
    1      -15.222200
    2      -15.032378
    3       -3.888759
    4       -2.434513
    5        0.530646
    6        0.549955
    7        0.849327
    8        0.864977
    9        8.293946
   10       12.578448
   11       12.634320
   12       13.239552
 
  0.1666667E+00  0.1666667E+00  0.0000000E+00  0.1736111E-02
    1      -13.426371
    2      -13.258563
    3       -3.555964
    4       -3.523945
    5       -2.191165
    6       -2.167751
    7       -1.738501
    8       -0.417690
    9       10.413403
   10       10.553689
   11       10.741291
   12       14.144549
 
  0.2500000E+00  0.1666667E+00  0.0000000E+00  0.3472222E-02
    1      -12.310252
    2      -12.156001
    3       -5.299006
    4       -5.236173
    5       -3.259581
    6       -3.216728
    7       -0.439025
    8        0.770426
    9        8.413573
   10        8.853170
   11       11.967779
   12       14.282824
 
  0.3333333E+00  0.1666667E+00  0.0000000E+00  0.3472222E-02
    1      -10.923590
    2      -10.787787
    3       -7.223023
    4       -7.132768
    5       -3.844187
    6       -3.789889
    7        1.080246
    8        2.063368
    9        6.469444
   10        7.011514
   11       13.703275
   12       14.061498
 
  0.4166667E+00  0.1666667E+00  0.0000000E+00  0.3472222E-02
    1       -9.659304
    2       -9.592134
    3       -8.630579
    4       -8.583244
    5       -4.032488
    6       -3.975440
    7        2.163457
    8        2.658758
    9        5.592594
   10        5.859751
   11       13.939690
   12       14.330257
 
  0.5000000E+00  0.1666667E+00  0.0000000E+00  0.3472222E-02
    1      -10.928201
    2      -10.792374
    3       -7.215889
    4       -7.125427
    5       -3.847725
    6       -3.793290
    7        1.075572
    8        2.059351
    9        6.471541
   10        7.018892
   11       13.696004
   12       14.062456
 
 -0.4166667E+00  0.1666667E+00  0.0000000E+00  0.3472222E-02
    1      -12.313945
    2      -12.159683
    3       -5.290588
    4       -5.227380
    5       -3.266173
    6       -3.223039
    7       -0.443430
    8        0.765974
    9        8.414890
   10        8.860701
   11       11.962350
   12       14.283977
 
 -0.3333333E+00  0.1666667E+00  0.0000000E+00  0.3472222E-02
    1      -13.429109
    2      -13.261285
    3       -3.550629
    4       -3.517809
    5       -2.196257
    6       -2.172422
    7       -1.741990
    8       -0.421317
    9       10.411661
   10       10.549669
   11       10.747009
   12       14.148243
 
 -0.2500000E+00  0.1666667E+00  0.0000000E+00  0.3472222E-02
    1      -14.238962
    2      -14.061270
    3       -2.705197
    4       -2.227630
    5       -2.186660
    6       -1.319222
    7       -0.830042
    8       -0.804406
    9        9.524351
   10       12.137482
   11       12.445161
   12       12.983121
 
 -0.1666667E+00  0.1666667E+00  0.0000000E+00  0.1736111E-02
    1      -14.729210
    2      -14.545485
    3       -3.293563
    4       -1.872172
    5       -1.120388
    6       -1.082371
    7        0.055802
    8        0.078582
    9        8.907738
   10       12.503562
   11       12.626730
   12       13.417658
 
  0.2500000E+00  0.2500000E+00  0.0000000E+00  0.1736111E-02
    1      -11.072396
    2      -10.933883
    3       -6.330549
    4       -6.285151
    5       -4.736702
    6       -4.702727
    7        0.967356
    8        2.026468
    9        6.805597
   10        7.223799
   11       13.535434
   12       15.723797
 
  0.3333333E+00  0.2500000E+00  0.0000000E+00  0.3472222E-02
    1       -9.635660
    2       -9.523345
    3       -7.765195
    4       -7.690622
    5       -5.459742
    6       -5.401916
    7        2.478125
    8        3.219093
    9        5.330676
   10        5.711565
   11       15.314809
   12       15.486714
 
  0.4166667E+00  0.2500000E+00  0.0000000E+00  0.3472222E-02
    1       -9.643044
    2       -9.530648
    3       -7.756052
    4       -7.680696
    5       -5.462228
    6       -5.404204
    7        2.471719
    8        3.214712
    9        5.329780
   10        5.722884
   11       15.302402
   12       15.494998
 
  0.5000000E+00  0.2500000E+00  0.0000000E+00  0.3472222E-02
    1      -11.078796
    2      -10.940292
    3       -6.321813
    4       -6.275304
    5       -4.740490
    6       -4.705856
    7        0.960185
    8        2.018762
    9        6.806873
   10        7.235008
   11       13.526465
   12       15.708497
 
 -0.4166667E+00  0.2500000E+00  0.0000000E+00  0.3472222E-02
    1      -12.315118
    2      -12.160861
    3       -5.297730
    4       -5.234199
    5       -3.257274
    6       -3.214034
    7       -0.445072
    8        0.763823
    9        8.412771
   10        8.859983
   11       11.961049
   12       14.312487
 
 -0.3333333E+00  0.2500000E+00  0.0000000E+00  0.3472222E-02
    1      -13.268747
    2      -13.102845
    3       -4.316220
    4       -4.249391
    5       -1.717670
    6       -1.683276
    7       -1.557402
    8       -0.254395
    9        9.900767
   10       10.393867
   11       10.743316
   12       12.712423
 
 -0.2500000E+00  0.2500000E+00  0.0000000E+00  0.1736111E-02
    1      -13.914062
    2      -13.740331
    3       -3.232238
    4       -3.172437
    5       -2.319374
    6       -0.959962
    7       -0.823744
    8       -0.796440
    9        9.926272
   10       11.226281
   11       11.669007
   12       12.195725
 
  0.3333333E+00  0.3333333E+00  0.0000000E+00  0.1736111E-02
    1       -8.428222
    2       -8.369533
    3       -8.366720
    4       -8.309512
    5       -6.323233
    6       -6.322879
    7        3.746515
    8        4.188203
    9        4.194446
   10        4.705312
   11       15.152094
   12       15.169640
 
  0.4166667E+00  0.3333333E+00  0.0000000E+00  0.3472222E-02
    1       -9.646423
    2       -9.534487
    3       -7.758100
    4       -7.683074
    5       -5.456074
    6       -5.397816
    7        2.468654
    8        3.205204
    9        5.335908
   10        5.725127
   11       15.301584
   12       15.497942
 
  0.5000000E+00  0.3333333E+00  0.0000000E+00  0.3472222E-02
    1      -10.931500
    2      -10.795794
    3       -7.222325
    4       -7.131834
    5       -3.836584
    6       -3.782199
    7        1.071328
    8        2.051809
    9        6.472776
   10        7.018663
   11       13.695574
   12       14.094754
 
 -0.4166667E+00  0.3333333E+00  0.0000000E+00  0.3472222E-02
    1      -12.001474
    2      -11.851231
    3       -6.450729
    4       -6.361351
    5       -2.352651
    6       -2.314187
    7       -0.116241
    8        1.029078
    9        7.619103
   10        8.282336
   11       12.245160
   12       12.452378
 
 -0.3333333E+00  0.3333333E+00  0.0000000E+00  0.1736111E-02
    1      -12.789124
    2      -12.629055
    3       -5.447308
    4       -5.365758
    5       -1.556381
    6       -1.526558
    7       -1.007882
    8        0.239639
    9        8.816453
   10        9.464175
   11       11.302606
   12       11.856363
 
  0.4166667E+00  0.4166667E+00  0.0000000E+00  0.1736111E-02
    1       -9.671985
    2       -9.606377
    3       -8.625652
    4       -8.579328
    5       -4.022164
    6       -3.965147
    7        2.156501
    8        2.640044
    9        5.603547
   10        5.862790
   11       13.974362
   12       14.365741
 
  0.5000000E+00  0.4166667E+00  0.0000000E+00  0.3472222E-02
    1      -10.512033
    2      -10.388966
    3       -8.394009
    4       -8.294656
    5       -2.680957
    6       -2.640863
    7        1.353039
    8        2.085940
    9        5.931873
   10        6.522908
   11       12.222029
   12       12.496764
 
 -0.4166667E+00  0.4166667E+00  0.0000000E+00  0.1736111E-02
    1      -11.385620
    2      -11.244075
    3       -7.555938
    4       -7.455586
    5       -2.028631
    6       -1.997521
    7        0.511711
    8        1.509938
    9        6.660616
   10        7.392587
   11       11.577177
   12       11.818538
 
  0.5000000E+00  0.5000000E+00  0.0000000E+00  0.8680556E-03
    1      -10.096090
    2      -10.027438
    3       -9.028053
    4       -8.975377
    5       -2.190773
    6       -2.159274
    7        1.556857
    8        2.050117
    9        5.715031
   10        6.245668
   11       11.490565
   12       11.749230
 
  0.0000000E+00  0.0000000E+00  0.1250000E+00  0.1736111E-02
    1      -15.380137
    2      -15.202878
    3       -4.040825
    4       -2.690675
    5        1.188660
    6        1.189975
    7        1.197995
    8        1.199006
    9        8.248643
   10       12.518241
   11       12.546680
   12       12.560713
 
  0.8333333E-01  0.0000000E+00  0.1250000E+00  0.6944444E-02
    1      -15.215050
    2      -15.039691
    3       -3.840899
    4       -2.500281
    5        0.534360
    6        0.551974
    7        0.847231
    8        0.861818
    9        8.452080
   10       12.583783
   11       12.640302
   12       13.243218
 
  0.1666667E+00  0.0000000E+00  0.1250000E+00  0.6944444E-02
    1      -14.721592
    2      -14.551888
    3       -3.245750
    4       -1.935243
    5       -1.112918
    6       -1.078035
    7        0.050375
    8        0.071533
    9        9.063128
   10       12.490884
   11       12.611555
   12       13.427757
 
  0.2500000E+00  0.0000000E+00  0.1250000E+00  0.6944444E-02
    1      -13.905665
    2      -13.745184
    3       -3.222625
    4       -3.167634
    5       -2.271737
    6       -1.018023
    7       -0.832234
    8       -0.806927
    9       10.071289
   10       11.251708
   11       11.648468
   12       12.177502
 
  0.3333333E+00  0.0000000E+00  0.1250000E+00  0.6944444E-02
    1      -12.779564
    2      -12.631692
    3       -5.437348
    4       -5.362177
    5       -1.567164
    6       -1.539486
    7       -0.961198
    8        0.190471
    9        8.836835
   10        9.436152
   11       11.431745
   12       11.837859
 
  0.4166667E+00 -0.2775558E-16  0.1250000E+00  0.6944444E-02
    1      -11.374125
    2      -11.243245
    3       -7.547551
    4       -7.454880
    5       -2.040769
    6       -2.011917
    7        0.554830
    8        1.480124
    9        6.676701
   10        7.357035
   11       11.555461
   12       11.778719
 
  0.5000000E+00  0.0000000E+00  0.1250000E+00  0.3472222E-02
    1      -10.079943
    2      -10.014964
    3       -9.030027
    4       -8.980273
    5       -2.203299
    6       -2.174112
    7        1.587546
    8        2.056132
    9        5.707935
   10        6.210445
   11       11.467721
   12       11.706714
 
  0.8333333E-01  0.8333333E-01  0.1250000E+00  0.3472222E-02
    1      -14.885560
    2      -14.713978
    3       -3.442995
    4       -2.122125
    5       -0.502599
    6       -0.485602
    7        0.173159
    8        0.185534
    9        8.860811
   10       12.864840
   11       12.953783
   12       13.700400
 
  0.1666667E+00  0.8333333E-01  0.1250000E+00  0.6944444E-02
    1      -14.230647
    2      -14.066505
    3       -2.657195
    4       -2.224010
    5       -2.186644
    6       -1.379168
    7       -0.831064
    8       -0.807566
    9        9.676919
   10       12.151686
   11       12.427805
   12       12.969103
 
  0.2500000E+00  0.8333333E-01  0.1250000E+00  0.6944444E-02
    1      -13.259239
    2      -13.106002
    3       -4.309667
    4       -4.248234
    5       -1.723184
    6       -1.691436
    7       -1.509633
    8       -0.307520
    9        9.914437
   10       10.370770
   11       10.896950
   12       12.690705
 
  0.3333333E+00  0.8333333E-01  0.1250000E+00  0.6944444E-02
    1      -11.990272
    2      -11.851451
    3       -6.443752
    4       -6.361346
    5       -2.361301
    6       -2.325762
    7       -0.070049
    8        0.988342
    9        7.638284
   10        8.250705
   11       12.303131
   12       12.456647
 
  0.4166667E+00  0.8333333E-01  0.1250000E+00  0.6944444E-02
    1      -10.497619
    2      -10.383501
    3       -8.390291
    4       -8.298257
    5       -2.691638
    6       -2.654547
    7        1.391225
    8        2.075810
    9        5.934260
   10        6.487313
   11       12.198876
   12       12.452603
 
  0.5000000E+00  0.8333333E-01  0.1250000E+00  0.6944444E-02
    1      -10.499937
    2      -10.385754
    3       -8.387446
    4       -8.295316
    5       -2.692639
    6       -2.655524
    7        1.389429
    8        2.074852
    9        5.935027
   10        6.489784
   11       12.199510
   12       12.453146
 
 -0.4166667E+00  0.8333333E-01  0.1250000E+00  0.6944444E-02
    1      -11.992346
    2      -11.853509
    3       -6.439849
    4       -6.357380
    5       -2.364280
    6       -2.328663
    7       -0.072359
    8        0.986184
    9        7.640233
   10        8.254325
   11       12.302410
   12       12.456103
 
 -0.3333333E+00  0.8333333E-01  0.1250000E+00  0.6944444E-02
    1      -13.260842
    2      -13.107596
    3       -4.305030
    4       -4.243476
    5       -1.727964
    6       -1.696099
    7       -1.511609
    8       -0.309507
    9        9.915696
   10       10.374226
   11       10.894317
   12       12.692437
 
 -0.2500000E+00  0.8333333E-01  0.1250000E+00  0.6944444E-02
    1      -14.231783
    2      -14.067633
    3       -2.658661
    4       -2.219261
    5       -2.181685
    6       -1.380662
    7       -0.836679
    8       -0.813032
    9        9.675121
   10       12.151060
   11       12.430550
   12       12.967583
 
 -0.1666667E+00  0.8333333E-01  0.1250000E+00  0.6944444E-02
    1      -14.886236
    2      -14.714648
    3       -3.443890
    4       -2.123045
    5       -0.501156
    6       -0.483732
    7        0.170834
    8        0.183224
    9        8.859691
   10       12.856367
   11       12.946315
   12       13.690257
 
 -0.8333333E-01  0.8333333E-01  0.1250000E+00  0.3472222E-02
    1      -15.215275
    2      -15.039914
    3       -3.841200
    4       -2.500591
    5        0.531409
    6        0.549238
    7        0.849952
    8        0.864389
    9        8.451697
   10       12.575918
   11       12.632567
   12       13.239663
 
  0.1666667E+00  0.1666667E+00  0.1250000E+00  0.3472222E-02
    1      -13.420221
    2      -13.265195
    3       -3.554703
    4       -3.525126
    5       -2.190365
    6       -2.168737
    7       -1.694732
    8       -0.476660
    9       10.425571
   10       10.684218
   11       10.740085
   12       14.135303
 
  0.2500000E+00  0.1666667E+00  0.1250000E+00  0.6944444E-02
    1      -12.304564
    2      -12.162062
    3       -5.296651
    4       -5.238593
    5       -3.258009
    6       -3.218429
    7       -0.398387
    8        0.717408
    9        8.429066
   10        8.835536
   11       12.094915
   12       14.287420
 
  0.3333333E+00  0.1666667E+00  0.1250000E+00  0.6944444E-02
    1      -10.918563
    2      -10.793114
    3       -7.219682
    4       -7.136278
    5       -3.842143
    6       -3.792009
    7        1.114917
    8        2.022923
    9        6.485300
   10        6.987141
   11       13.789060
   12       14.071648
 
  0.4166667E+00  0.1666667E+00  0.1250000E+00  0.6944444E-02
    1       -9.656509
    2       -9.594401
    3       -8.629303
    4       -8.585541
    5       -4.030386
    6       -3.977656
    7        2.186432
    8        2.645992
    9        5.589021
   10        5.838775
   11       13.951110
   12       14.310734
 
  0.5000000E+00  0.1666667E+00  0.1250000E+00  0.6944444E-02
    1      -10.923176
    2      -10.797696
    3       -7.212539
    4       -7.128943
    5       -3.845676
    6       -3.795421
    7        1.110254
    8        2.018892
    9        6.487627
   10        6.994315
   11       13.781504
   12       14.072392
 
 -0.4166667E+00  0.1666667E+00  0.1250000E+00  0.6944444E-02
    1      -12.308257
    2      -12.165745
    3       -5.288203
    4       -5.229815
    5       -3.264590
    6       -3.224752
    7       -0.402791
    8        0.712957
    9        8.430621
   10        8.842809
   11       12.089334
   12       14.288309
 
 -0.3333333E+00  0.1666667E+00  0.1250000E+00  0.6944444E-02
    1      -13.422958
    2      -13.267919
    3       -3.549338
    4       -3.519021
    5       -2.195441
    6       -2.173423
    7       -1.698223
    8       -0.480278
    9       10.424083
   10       10.681971
   11       10.743680
   12       14.139458
 
 -0.2500000E+00  0.1666667E+00  0.1250000E+00  0.6944444E-02
    1      -14.232455
    2      -14.068301
    3       -2.659593
    4       -2.226064
    5       -2.188210
    6       -1.381653
    7       -0.829068
    8       -0.805401
    9        9.674161
   10       12.148385
   11       12.428944
   12       12.983085
 
 -0.1666667E+00  0.1666667E+00  0.1250000E+00  0.3472222E-02
    1      -14.722492
    2      -14.552781
    3       -3.246958
    4       -1.936503
    5       -1.118935
    6       -1.083821
    7        0.056641
    8        0.077691
    9        9.061743
   10       12.501533
   11       12.621845
   12       13.432233
 
  0.2500000E+00  0.2500000E+00  0.1250000E+00  0.3472222E-02
    1      -11.067284
    2      -10.939314
    3       -6.328760
    4       -6.286817
    5       -4.735585
    6       -4.704211
    7        1.003699
    8        1.981290
    9        6.821552
   10        7.207540
   11       13.618493
   12       15.534192
 
  0.3333333E+00  0.2500000E+00  0.1250000E+00  0.6944444E-02
    1       -9.631466
    2       -9.527706
    3       -7.762431
    4       -7.693519
    5       -5.457682
    6       -5.404235
    7        2.506649
    8        3.192484
    9        5.340821
   10        5.692932
   11       15.126291
   12       15.327583
 
  0.4166667E+00  0.2500000E+00  0.1250000E+00  0.6944444E-02
    1       -9.638848
    2       -9.535013
    3       -7.753257
    4       -7.683623
    5       -5.460160
    6       -5.406531
    7        2.500263
    8        3.187932
    9        5.340461
   10        5.703839
   11       15.113621
   12       15.334000
 
  0.5000000E+00  0.2500000E+00  0.1250000E+00  0.6944444E-02
    1      -11.073676
    2      -10.945722
    3       -6.319984
    4       -6.277013
    5       -4.739347
    6       -4.707359
    7        0.996513
    8        1.973647
    9        6.823160
   10        7.218334
   11       13.609323
   12       15.535986
 
 -0.4166667E+00  0.2500000E+00  0.1250000E+00  0.6944444E-02
    1      -12.309429
    2      -12.166923
    3       -5.295351
    4       -5.236648
    5       -3.255686
    6       -3.215750
    7       -0.404447
    8        0.710837
    9        8.428469
   10        8.841986
   11       12.088204
   12       14.316623
 
 -0.3333333E+00  0.2500000E+00  0.1250000E+00  0.6944444E-02
    1      -13.262658
    2      -13.109406
    3       -4.313711
    4       -4.251969
    5       -1.716367
    6       -1.684589
    7       -1.514123
    8       -0.312374
    9        9.911258
   10       10.371634
   11       10.892555
   12       12.718101
 
 -0.2500000E+00  0.2500000E+00  0.1250000E+00  0.3472222E-02
    1      -13.907694
    2      -13.747202
    3       -3.230010
    4       -3.174814
    5       -2.274481
    6       -1.020975
    7       -0.822704
    8       -0.797483
    9       10.068306
   10       11.247582
   11       11.645966
   12       12.200309
 
  0.3333333E+00  0.3333333E+00  0.1250000E+00  0.3472222E-02
    1       -8.423965
    2       -8.369472
    3       -8.366544
    4       -8.313971
    5       -6.323492
    6       -6.323165
    7        3.779420
    8        4.190889
    9        4.196691
   10        4.664437
   11       14.993426
   12       15.008351
 
  0.4166667E+00  0.3333333E+00  0.1250000E+00  0.6944444E-02
    1       -9.642238
    2       -9.538832
    3       -7.755321
    4       -7.685989
    5       -5.453997
    6       -5.400182
    7        2.497057
    8        3.178825
    9        5.346240
   10        5.706076
   11       15.113445
   12       15.338008
 
  0.5000000E+00  0.3333333E+00  0.1250000E+00  0.6944444E-02
    1      -10.926479
    2      -10.801109
    3       -7.218971
    4       -7.135353
    5       -3.834535
    6       -3.784324
    7        1.105935
    8        2.011549
    9        6.488650
   10        6.994021
   11       13.782631
   12       14.104279
 
 -0.4166667E+00  0.3333333E+00  0.1250000E+00  0.6944444E-02
    1      -11.995932
    2      -11.857130
    3       -6.447393
    4       -6.364812
    5       -2.351176
    6       -2.315657
    7       -0.077258
    8        0.979734
    9        7.638122
   10        8.251798
   11       12.317885
   12       12.479484
 
 -0.3333333E+00  0.3333333E+00  0.1250000E+00  0.3472222E-02
    1      -12.783241
    2      -12.635367
    3       -5.444256
    4       -5.368931
    5       -1.555275
    6       -1.527674
    7       -0.966155
    8        0.184730
    9        8.833462
   10        9.433592
   11       11.431129
   12       11.866232
 
  0.4166667E+00  0.4166667E+00  0.1250000E+00  0.3472222E-02
    1       -9.669248
    2       -9.608585
    3       -8.624414
    4       -8.581591
    5       -4.020063
    6       -3.967362
    7        2.179145
    8        2.627812
    9        5.599506
   10        5.841911
   11       13.985812
   12       14.345997
 
  0.5000000E+00  0.4166667E+00  0.1250000E+00  0.6944444E-02
    1      -10.507442
    2      -10.393749
    3       -8.390403
    4       -8.298607
    5       -2.679433
    6       -2.642402
    7        1.381794
    8        2.060196
    9        5.940954
   10        6.488792
   11       12.232109
   12       12.485838
 
 -0.4166667E+00  0.4166667E+00  0.1250000E+00  0.3472222E-02
    1      -11.380389
    2      -11.249618
    3       -7.552210
    4       -7.459524
    5       -2.027493
    6       -1.998714
    7        0.547031
    8        1.469103
    9        6.678332
   10        7.355557
   11       11.586778
   12       11.809846
 
  0.5000000E+00  0.5000000E+00  0.1250000E+00  0.1736111E-02
    1      -10.093191
    2      -10.029717
    3       -9.026586
    4       -8.977863
    5       -2.189561
    6       -2.160451
    7        1.579518
    8        2.036969
    9        5.717315
   10        6.208971
   11       11.500124
   12       11.739117
 
  0.0000000E+00  0.0000000E+00  0.2500000E+00  0.1736111E-02
    1      -15.360076
    2      -15.224458
    3       -3.902017
    4       -2.874035
    5        1.189752
    6        1.191030
    7        1.196909
    8        1.197956
    9        8.706953
   10       12.342061
   11       12.524626
   12       12.546177
 
  0.8333333E-01  0.0000000E+00  0.2500000E+00  0.6944444E-02
    1      -15.195202
    2      -15.061024
    3       -3.702956
    4       -2.682211
    5        0.536439
    6        0.549899
    7        0.848953
    8        0.860102
    9        8.907141
   10       12.461412
   11       12.634606
   12       12.929154
 
  0.1666667E+00  0.0000000E+00  0.2500000E+00  0.6944444E-02
    1      -14.702361
    2      -14.572500
    3       -3.110533
    4       -2.112531
    5       -1.108814
    6       -1.082111
    7        0.052834
    8        0.069035
    9        9.507214
   10       12.464213
   11       12.597454
   12       13.066252
 
  0.2500000E+00  0.0000000E+00  0.2500000E+00  0.6944444E-02
    1      -13.887440
    2      -13.764629
    3       -3.216210
    4       -3.174179
    5       -2.141706
    6       -1.186481
    7       -0.829303
    8       -0.809921
    9       10.472866
   10       11.318380
   11       11.585016
   12       12.187692
 
  0.3333333E+00  0.0000000E+00  0.2500000E+00  0.6944444E-02
    1      -12.762704
    2      -12.649560
    3       -5.428671
    4       -5.371118
    5       -1.563943
    6       -1.542759
    7       -0.840262
    8        0.038026
    9        8.890765
   10        9.352178
   11       11.714371
   12       11.872206
 