graphite                                
           1
     2.466437   -0.000960    0.000000
    -1.234050    2.135517    0.000000
     0.000000    0.000000    7.095973
   C 
   4
Direct configuration=     1
   0.99927624  0.00072380  0.25000000
   0.00072380  0.99927624  0.75000000
   0.33263748  0.66736250  0.25000000
   0.66736250  0.33263748  0.75000000
