   32   32    1    1
  0.9040271E+01  0.4934311E-09  0.4934311E-09  0.1372051E-08  0.5000000E-15
  1.000000000000000E-004
  CAR 
 graphite                                
    128    163     84
 
  0.0000000E+00  0.0000000E+00  0.0000000E+00  0.3086420E-02
    1      -15.122805
    2      -15.000367
    3      -15.000029
    4      -14.870317
    5       -9.813417
    6       -9.811663
    7       -9.809945
    8       -9.765203
    9       -9.761785
   10       -9.761371
   11       -9.760961
   12       -9.760884
   13       -9.757386
   14       -9.719953
   15       -9.718235
   16       -9.715676
   17       -8.744915
   18       -8.741530
   19       -8.739607
   20       -8.717710
   21       -8.714316
   22       -8.713055
   23       -8.712835
   24       -8.712756
   25       -8.708956
   26       -8.673577
   27       -8.670731
   28       -8.668650
   29       -3.924235
   30       -3.129476
   31       -3.127978
   32       -2.169906
   33       -1.917689
   34       -1.915036
   35       -1.911091
   36       -1.896681
   37       -1.893011
   38       -1.893005
   39       -1.892458
   40       -1.889868
   41       -1.886770
   42       -1.872225
   43       -1.870231
   44       -1.865649
   45        1.465001
   46        1.475581
   47        1.478533
   48        1.479613
   49        1.484387
   50        1.485450
   51        1.488315
   52        1.498618
   53        1.771899
   54        1.773564
   55        1.775085
   56        2.122465
   57        2.126517
   58        2.126667
   59        2.126847
   60        2.127175
   61        2.131064
   62        2.380489
   63        2.382563
   64        2.384622
   65        5.982398
   66        5.986821
   67        5.989534
   68        6.130428
   69        6.135601
   70        6.137303
   71        6.137793
   72        6.138020
   73        6.143139
   74        6.600873
   75        6.605226
   76        6.607549
   77        8.610188
   78       11.075803
   79       11.079312
   80       11.695888
   81       11.699533
   82       11.703960
   83       11.862077
   84       11.865570
 
  0.1111111E+00  0.6938894E-17  0.0000000E+00  0.6172840E-02
    1      -15.049239
    2      -14.927377
    3      -14.927040
    4      -14.797951
    5      -10.600181
    6      -10.513805
    7      -10.513436
    8      -10.424223
    9      -10.057429
   10      -10.055301
   11       -9.983817
   12       -9.982282
   13       -9.981538
   14       -9.979359
   15       -9.908041
   16       -9.905637
   17       -8.435180
   18       -8.431970
   19       -8.376638
   20       -8.373832
   21       -8.372292
   22       -8.371826
   23       -8.309779
   24       -8.306840
   25       -7.918579
   26       -7.851951
   27       -7.850007
   28       -7.780331
   29       -3.835090
   30       -3.042480
   31       -3.040984
   32       -2.141909
   33       -2.137405
   34       -2.117326
   35       -2.116659
   36       -2.113587
   37       -2.110567
   38       -2.091580
   39       -2.086613
   40       -2.085843
   41       -1.844470
   42       -1.823337
   43       -1.820890
   44       -1.799558
   45        1.175950
   46        1.185125
   47        1.186802
   48        1.192459
   49        1.202174
   50        1.310487
   51        1.320602
   52        1.324634
   53        1.332553
   54        1.661379
   55        1.663226
   56        1.698900
   57        1.701193
   58        2.073802
   59        2.074824
   60        2.075089
   61        2.079028
   62        2.204476
   63        2.422753
   64        2.425309
   65        6.066801
   66        6.071627
   67        6.261322
   68        6.266394
   69        6.268106
   70        6.269415
   71        6.380622
   72        6.677136
   73        6.680889
   74        6.734299
   75        6.738600
   76        7.198610
   77        8.699711
   78       11.155380
   79       11.158842
   80       11.738133
   81       11.898889
   82       11.900296
   83       12.031812
   84       12.038115
 
  0.2222222E+00 -0.1387779E-16  0.0000000E+00  0.6172840E-02
    1      -14.829073
    2      -14.708784
    3      -14.708452
    4      -14.581176
    5      -11.608137
    6      -11.511488
    7      -11.511212
    8      -11.410533
    9      -10.403246
   10      -10.401342
   11      -10.319253
   12      -10.317693
   13      -10.317133
   14      -10.315411
   15      -10.230500
   16      -10.228494
   17       -7.753454
   18       -7.750352
   19       -7.689314
   20       -7.686775
   21       -7.685093
   22       -7.684647
   23       -7.619516
   24       -7.616555
   25       -6.595854
   26       -6.533675
   27       -6.531871
   28       -6.467601
   29       -3.568459
   30       -2.782609
   31       -2.781117
   32       -2.747232
   33       -2.743020
   34       -2.716605
   35       -2.716153
   36       -2.713279
   37       -2.710315
   38       -2.684651
   39       -2.680031
   40       -1.835579
   41       -1.630048
   42       -1.609268
   43       -1.606680
   44       -1.585880
   45        0.182737
   46        0.351061
   47        0.366771
   48        0.370922
   49        0.387440
   50        0.811588
   51        0.813334
   52        0.892978
   53        0.905556
   54        0.909767
   55        0.921246
   56        1.447528
   57        1.449361
   58        1.522007
   59        1.952463
   60        1.953549
   61        1.953814
   62        1.957592
   63        2.457971
   64        2.460493
   65        6.328002
   66        6.332502
   67        6.594455
   68        6.599407
   69        6.600811
   70        6.602040
   71        7.042321
   72        7.046012
   73        7.524430
   74        7.897243
   75        7.900167
   76        8.409038
   77        8.968924
   78       11.393285
   79       11.396592
   80       11.852132
   81       12.007526
   82       12.008993
   83       12.145337
   84       12.848967
 
  0.3333333E+00 -0.2775558E-16  0.0000000E+00  0.6172840E-02
    1      -14.463351
    2      -14.345733
    3      -14.345407
    4      -14.221134
    5      -12.518968
    6      -12.415495
    7      -12.415196
    8      -12.306786
    9      -10.659492
   10      -10.657722
   11      -10.571553
   12      -10.569917
   13      -10.569574
   14      -10.567969
   15      -10.478484
   16      -10.476651
   17       -6.947332
   18       -6.944162
   19       -6.888564
   20       -6.885795
   21       -6.884046
   22       -6.883785
   23       -6.825092
   24       -6.822098
   25       -5.165130
   26       -5.111410
   27       -5.109414
   28       -5.054425
   29       -3.561109
   30       -3.557447
   31       -3.524591
   32       -3.524510
   33       -3.522047
   34       -3.519026
   35       -3.486769
   36       -3.482717
   37       -3.127043
   38       -2.352975
   39       -2.351505
   40       -1.422664
   41       -1.281683
   42       -1.262021
   43       -1.259218
   44       -1.239159
   45       -0.835416
   46       -0.830407
   47       -0.807924
   48       -0.803808
   49       -0.779220
   50       -0.140371
   51       -0.138818
   52        0.332421
   53        0.347455
   54        0.351303
   55        0.366010
   56        0.669234
   57        1.260750
   58        1.262588
   59        1.828230
   60        1.829397
   61        1.829662
   62        1.833301
   63        2.446902
   64        2.449343
   65        6.695220
   66        6.698976
   67        6.984012
   68        6.988903
   69        6.989824
   70        6.990918
   71        7.355003
   72        7.358080
   73        9.029248
   74        9.372072
   75        9.374061
   76        9.419043
   77        9.820828
   78       11.745629
   79       11.775844
   80       11.778791
   81       12.089355
   82       12.171990
   83       12.173759
   84       12.427973
 
  0.4444444E+00 -0.2775558E-16  0.0000000E+00  0.6172840E-02
    1      -13.954045
    2      -13.840076
    3      -13.839759
    4      -13.719648
    5      -13.304138
    6      -13.194930
    7      -13.194616
    8      -13.079697
    9      -10.791768
   10      -10.790064
   11      -10.702472
   12      -10.700741
   13      -10.700623
   14      -10.698994
   15      -10.607485
   16      -10.605730
   17       -6.202873
   18       -6.200059
   19       -6.161522
   20       -6.157827
   21       -6.157128
   22       -6.156636
   23       -6.116444
   24       -6.114124
   25       -4.309952
   26       -4.307817
   27       -4.280215
   28       -4.279083
   29       -4.278767
   30       -4.275294
   31       -4.246044
   32       -4.243275
   33       -3.686860
   34       -3.642920
   35       -3.640525
   36       -3.595508
   37       -2.516054
   38       -2.217116
   39       -2.183028
   40       -2.180145
   41       -2.144995
   42       -1.759583
   43       -1.757959
   44       -1.744777
   45       -1.014642
   46       -1.013129
   47       -0.855055
   48       -0.816704
   49       -0.797939
   50       -0.794811
   51       -0.776021
   52       -0.262781
   53       -0.245594
   54       -0.242235
   55       -0.224895
   56       -0.147571
   57        1.156947
   58        1.158791
   59        1.753473
   60        1.754688
   61        1.754950
   62        1.758521
   63        2.425926
   64        2.428313
   65        6.983349
   66        6.986123
   67        7.249623
   68        7.254553
   69        7.255002
   70        7.255937
   71        7.532344
   72        7.535116
   73       10.044188
   74       10.645683
   75       10.839638
   76       10.907277
   77       10.911023
   78       11.282840
   79       12.121883
   80       12.130582
   81       12.230651
   82       12.301586
   83       12.349595
   84       12.352244
 
 -0.8470329E-21  0.1111111E+00  0.0000000E+00  0.6172840E-02
    1      -15.049240
    2      -14.927379
    3      -14.927042
    4      -14.797953
    5      -10.600105
    6      -10.513667
    7      -10.513398
    8      -10.424122
    9      -10.057647
   10      -10.055364
   11       -9.984147
   12       -9.982276
   13       -9.981537
   14       -9.979645
   15       -9.908089
   16       -9.905947
   17       -8.435317
   18       -8.430746
   19       -8.376985
   20       -8.373830
   21       -8.372281
   22       -8.369164
   23       -8.309961
   24       -8.305397
   25       -7.919495
   26       -7.852022
   27       -7.851814
   28       -7.781295
   29       -3.835085
   30       -3.042475
   31       -3.040979
   32       -2.143057
   33       -2.137506
   34       -2.119170
   35       -2.116660
   36       -2.113587
   37       -2.111162
   38       -2.092529
   39       -2.086974
   40       -2.085866
   41       -1.843019
   42       -1.820906
   43       -1.820798
   44       -1.798428
   45        1.173710
   46        1.182779
   47        1.185126
   48        1.192768
   49        1.197681
   50        1.315496
   51        1.324633
   52        1.325202
   53        1.334303
   54        1.660510
   55        1.663055
   56        1.700262
   57        1.701737
   58        2.072009
   59        2.075034
   60        2.075091
   61        2.078152
   62        2.205680
   63        2.421909
   64        2.424753
   65        6.067077
   66        6.073455
   67        6.261835
   68        6.266367
   69        6.268397
   70        6.272725
   71        6.378705
   72        6.676427
   73        6.678077
   74        6.734463
   75        6.740512
   76        7.196970
   77        8.699716
   78       11.155401
   79       11.158863
   80       11.738608
   81       11.899723
   82       11.900353
   83       12.033759
   84       12.041226
 
  0.1111111E+00  0.1111111E+00  0.0000000E+00  0.6172840E-02
    1      -14.902433
    2      -14.781565
    3      -14.781231
    4      -14.653354
    5      -11.063172
    6      -11.060214
    7      -10.972650
    8      -10.969630
    9      -10.969605
   10      -10.966705
   11      -10.875291
   12      -10.872278
   13       -9.622804
   14       -9.574149
   15       -9.572716
   16       -9.530989
   17       -8.561261
   18       -8.535090
   19       -8.532052
   20       -8.493243
   21       -7.238797
   22       -7.235712
   23       -7.174303
   24       -7.171960
   25       -7.171937
   26       -7.167912
   27       -7.104750
   28       -7.101400
   29       -3.657152
   30       -2.868984
   31       -2.867493
   32       -2.818570
   33       -2.788313
   34       -2.786071
   35       -2.755122
   36       -1.998398
   37       -1.995460
   38       -1.975301
   39       -1.971617
   40       -1.971611
   41       -1.970165
   42       -1.948338
   43       -1.945967
   44       -1.918869
   45        0.645745
   46        0.654786
   47        0.658624
   48        0.668994
   49        0.763624
   50        0.766307
   51        0.997860
   52        1.007219
   53        1.010932
   54        1.018204
   55        1.340145
   56        1.343347
   57        1.343485
   58        1.345470
   59        1.967687
   60        1.970155
   61        2.041321
   62        2.392221
   63        2.395207
   64        2.645245
   65        5.959590
   66        6.057092
   67        6.061504
   68        6.436523
   69        6.869774
   70        6.872439
   71        7.216682
   72        7.218198
   73        7.218425
   74        7.222426
   75        7.723664
   76        7.726084
   77        8.879237
   78       11.315010
   79       11.318377
   80       12.108880
   81       12.112825
   82       12.269537
   83       12.272803
   84       12.275727
 
  0.2222222E+00  0.1111111E+00  0.0000000E+00  0.6172840E-02
    1      -14.609492
    2      -14.490748
    3      -14.490420
    4      -14.364946
    5      -12.026141
    6      -11.926342
    7      -11.926058
    8      -11.821731
    9      -11.402256
   10      -11.307396
   11      -11.307117
   12      -11.207972
   13       -9.671761
   14       -9.600529
   15       -9.599756
   16       -9.528136
   17       -8.089909
   18       -8.035476
   19       -8.032933
   20       -7.973556
   21       -6.456780
   22       -6.396659
   23       -6.396283
   24       -6.334532
   25       -5.857886
   26       -5.800530
   27       -5.798700
   28       -5.739927
   29       -3.723673
   30       -3.686400
   31       -3.684197
   32       -3.645975
   33       -3.303091
   34       -2.524240
   35       -2.522747
   36       -2.521750
   37       -2.492195
   38       -2.491779
   39       -2.461500
   40       -1.711692
   41       -1.688982
   42       -1.686464
   43       -1.663490
   44       -1.587133
   45       -0.305923
   46       -0.289558
   47       -0.285910
   48       -0.272634
   49       -0.264951
   50        0.392472
   51        0.394143
   52        0.433201
   53        0.454866
   54        0.466725
   55        0.470997
   56        0.482383
   57        1.056306
   58        1.057786
   59        1.158177
   60        1.759694
   61        2.181737
   62        2.593979
   63        2.596817
   64        2.942861
   65        5.943738
   66        6.064058
   67        6.068273
   68        6.383199
   69        7.446281
   70        7.785556
   71        7.787376
   72        8.217887
   73        8.229245
   74        8.586303
   75        8.588736
   76        9.048289
   77        9.239269
   78       11.632379
   79       11.635516
   80       12.205742
   81       12.395718
   82       12.408683
   83       12.410138
   84       12.743013
 
  0.3333333E+00  0.1111111E+00  0.0000000E+00  0.6172840E-02
    1      -14.171933
    2      -14.056368
    3      -14.056046
    4      -13.934172
    5      -12.874739
    6      -12.768634
    7      -12.768332
    8      -12.656971
    9      -11.609876
   10      -11.513305
   11      -11.513013
   12      -11.411972
   13       -9.815594
   14       -9.735718
   15       -9.735360
   16       -9.652808
   17       -7.325332
   18       -7.271156
   19       -7.268759
   20       -7.212746
   21       -5.660653
   22       -5.611489
   23       -5.610451
   24       -5.560460
   25       -4.658112
   26       -4.619249
   27       -4.616900
   28       -4.576137
   29       -4.411020
   30       -4.363048
   31       -4.361011
   32       -4.311887
   33       -3.219697
   34       -3.187944
   35       -3.186729
   36       -3.153534
   37       -2.776663
   38       -2.012687
   39       -2.011263
   40       -1.549689
   41       -1.522289
   42       -1.518541
   43       -1.491671
   44       -1.296083
   45       -1.274733
   46       -1.272051
   47       -1.250486
   48       -1.240675
   49       -1.096358
   50       -0.529593
   51       -0.528092
   52       -0.168184
   53       -0.151996
   54       -0.147841
   55       -0.131885
   56        0.226925
   57        0.309370
   58        0.873431
   59        0.874960
   60        1.618252
   61        2.185763
   62        2.683261
   63        2.685672
   64        3.189600
   65        5.958687
   66        6.181949
   67        6.185552
   68        6.480336
   69        7.952152
   70        8.239253
   71        8.241414
   72        8.556927
   73        9.775989
   74        9.791933
   75       10.089832
   76       10.092319
   77       10.475310
   78       11.371897
   79       12.075941
   80       12.079092
   81       12.501896
   82       12.575757
   83       12.577643
   84       12.803782
 
  0.4444444E+00  0.1111111E+00  0.0000000E+00  0.6172840E-02
    1      -13.593750
    2      -13.590997
    3      -13.483590
    4      -13.480907
    5      -13.480782
    6      -13.478041
    7      -13.364850
    8      -13.362034
    9      -11.679680
   10      -11.582482
   11      -11.582183
   12      -11.480618
   13       -9.871353
   14       -9.789815
   15       -9.789560
   16       -9.704996
   17       -6.823345
   18       -6.789268
   19       -6.787023
   20       -6.754657
   21       -5.188655
   22       -5.176619
   23       -5.160923
   24       -5.158037
   25       -5.156350
   26       -5.153889
   27       -5.131340
   28       -5.128363
   29       -3.640015
   30       -3.621632
   31       -3.618638
   32       -3.596600
   33       -2.953039
   34       -2.950464
   35       -2.914455
   36       -2.914058
   37       -2.914006
   38       -2.908436
   39       -2.874562
   40       -2.870904
   41       -2.085948
   42       -2.083740
   43       -1.344348
   44       -1.341317
   45       -1.341184
   46       -1.338894
   47       -0.774714
   48       -0.767729
   49       -0.754803
   50       -0.747897
   51       -0.747834
   52       -0.746454
   53       -0.729682
   54       -0.726289
   55       -0.458541
   56       -0.456001
   57        0.156591
   58        0.810749
   59        0.812355
   60        1.568700
   61        2.175724
   62        2.705000
   63        2.706943
   64        3.276950
   65        5.979688
   66        6.249078
   67        6.251840
   68        6.535339
   69        8.170247
   70        8.416818
   71        8.419447
   72        8.665472
   73       10.492638
   74       10.493588
   75       11.373973
   76       11.377223
   77       11.574214
   78       11.577744
   79       11.578782
   80       11.583713
   81       11.897056
   82       11.900085
   83       12.599901
   84       12.604111
 
 -0.4444444E+00  0.1111111E+00  0.0000000E+00  0.6172840E-02
    1      -14.172041
    2      -14.056476
    3      -14.056154
    4      -13.934280
    5      -12.874571
    6      -12.768470
    7      -12.768161
    8      -12.656803
    9      -11.610099
   10      -11.513530
   11      -11.513232
   12      -11.412192
   13       -9.815466
   14       -9.735542
   15       -9.735306
   16       -9.652707
   17       -7.322837
   18       -7.267940
   19       -7.267221
   20       -7.210476
   21       -5.663270
   22       -5.614722
   23       -5.612240
   24       -5.562871
   25       -4.660807
   26       -4.621246
   27       -4.620529
   28       -4.579074
   29       -4.411013
   30       -4.363185
   31       -4.360800
   32       -4.311813
   33       -3.216709
   34       -3.185646
   35       -3.182710
   36       -3.150173
   37       -2.776696
   38       -2.012703
   39       -2.011288
   40       -1.550660
   41       -1.522770
   42       -1.520394
   43       -1.493164
   44       -1.296270
   45       -1.275011
   46       -1.271954
   47       -1.250524
   48       -1.240637
   49       -1.096358
   50       -0.529594
   51       -0.528055
   52       -0.166361
   53       -0.150157
   54       -0.147348
   55       -0.130976
   56        0.227041
   57        0.309339
   58        0.873498
   59        0.875227
   60        1.618531
   61        2.185241
   62        2.682955
   63        2.684573
   64        3.188648
   65        5.961206
   66        6.184652
   67        6.186680
   68        6.481642
   69        7.950253
   70        8.237353
   71        8.240415
   72        8.555941
   73        9.775984
   74        9.792196
   75       10.090074
   76       10.092887
   77       10.475838
   78       11.371945
   79       12.076182
   80       12.079324
   81       12.500919
   82       12.574377
   83       12.576928
   84       12.804366
 
 -0.3333333E+00  0.1111111E+00  0.0000000E+00  0.6172840E-02
    1      -14.609569
    2      -14.490826
    3      -14.490497
    4      -14.365024
    5      -12.025944
    6      -11.926147
    7      -11.925856
    8      -11.821530
    9      -11.402698
   10      -11.307836
   11      -11.307551
   12      -11.208404
   13       -9.671626
   14       -9.600148
   15       -9.599937
   16       -9.528077
   17       -8.086958
   18       -8.031493
   19       -8.031269
   20       -7.970833
   21       -6.459560
   22       -6.400194
   23       -6.398204
   24       -6.337211
   25       -5.858041
   26       -5.800741
   27       -5.798772
   28       -5.740053
   29       -3.727141
   30       -3.688956
   31       -3.688747
   32       -3.649626
   33       -3.303117
   34       -2.524213
   35       -2.522730
   36       -2.517975
   37       -2.489305
   38       -2.486700
   39       -2.457341
   40       -1.711729
   41       -1.689084
   42       -1.686338
   43       -1.663449
   44       -1.587135
   45       -0.308190
   46       -0.290998
   47       -0.289778
   48       -0.274215
   49       -0.267183
   50        0.392493
   51        0.394215
   52        0.433547
   53        0.459119
   54        0.470546
   55        0.472472
   56        0.484555
   57        1.056467
   58        1.058386
   59        1.158115
   60        1.760277
   61        2.180695
   62        2.593389
   63        2.594893
   64        2.941496
   65        5.947557
   66        6.068681
   67        6.070380
   68        6.385983
   69        7.443214
   70        7.782216
   71        7.785588
   72        8.215873
   73        8.229362
   74        8.586418
   75        8.589187
   76        9.048690
   77        9.239222
   78       11.632501
   79       11.635634
   80       12.205144
   81       12.395244
   82       12.407883
   83       12.409676
   84       12.743067
 
 -0.2222222E+00  0.1111111E+00  0.0000000E+00  0.6172840E-02
    1      -14.902479
    2      -14.781612
    3      -14.781277
    4      -14.653400
    5      -11.062242
    6      -11.061432
    7      -10.970390
    8      -10.970128
    9      -10.969573
   10      -10.969301
   11      -10.874430
   12      -10.873648
   13       -9.622739
   14       -9.573473
   15       -9.573329
   16       -9.530977
   17       -8.558041
   18       -8.530637
   19       -8.530545
   20       -8.490368
   21       -7.240257
   22       -7.236923
   23       -7.175500
   24       -7.173678
   25       -7.172181
   26       -7.170339
   27       -7.106205
   28       -7.102880
   29       -3.657168
   30       -2.868996
   31       -2.867505
   32       -2.822426
   33       -2.791198
   34       -2.791096
   35       -2.759197
   36       -1.997477
   37       -1.991919
   38       -1.974042
   39       -1.971520
   40       -1.968512
   41       -1.966004
   42       -1.947792
   43       -1.942200
   44       -1.918871
   45        0.640957
   46        0.651149
   47        0.651663
   48        0.661641
   49        0.764580
   50        0.765747
   51        1.006287
   52        1.014113
   53        1.014285
   54        1.022872
   55        1.341392
   56        1.343333
   57        1.343464
   58        1.345493
   59        1.968364
   60        1.970324
   61        2.040020
   62        2.391502
   63        2.393011
   64        2.643887
   65        5.963679
   66        6.062553
   67        6.064238
   68        6.440458
   69        6.866461
   70        6.872082
   71        7.212890
   72        7.216531
   73        7.218294
   74        7.221689
   75        7.721125
   76        7.725905
   77        8.879208
   78       11.315072
   79       11.318437
   80       12.110233
   81       12.116101
   82       12.271096
   83       12.273513
   84       12.278026
 
 -0.1111111E+00  0.1111111E+00  0.0000000E+00  0.6172840E-02
    1      -15.049256
    2      -14.927395
    3      -14.927057
    4      -14.797968
    5      -10.600805
    6      -10.514361
    7      -10.514067
    8      -10.424782
    9      -10.057193
   10      -10.055053
   11       -9.983982
   12       -9.981378
   13       -9.981345
   14       -9.979490
   15       -9.907862
   16       -9.905518
   17       -8.432656
   18       -8.430824
   19       -8.373151
   20       -8.372471
   21       -8.372441
   22       -8.369402
   23       -8.307514
   24       -8.305607
   25       -7.922034
   26       -7.855337
   27       -7.853465
   28       -7.783732
   29       -3.835091
   30       -3.042479
   31       -3.040983
   32       -2.143734
   33       -2.141088
   34       -2.120145
   35       -2.116630
   36       -2.116623
   37       -2.115527
   38       -2.092909
   39       -2.090797
   40       -2.085886
   41       -1.838830
   42       -1.817749
   43       -1.815267
   44       -1.793866
   45        1.165529
   46        1.176888
   47        1.181656
   48        1.189986
   49        1.195701
   50        1.320145
   51        1.328136
   52        1.332144
   53        1.342474
   54        1.660263
   55        1.662280
   56        1.700675
   57        1.703208
   58        2.071042
   59        2.074978
   60        2.075332
   61        2.076337
   62        2.206927
   63        2.421323
   64        2.423905
   65        6.070939
   66        6.073849
   67        6.267209
   68        6.268442
   69        6.268655
   70        6.273570
   71        6.374504
   72        6.671426
   73        6.675368
   74        6.738309
   75        6.740779
   76        7.193340
   77        8.699706
   78       11.155419
   79       11.158880
   80       11.743597
   81       11.904572
   82       11.905563
   83       12.030081
   84       12.034785
 
 -0.1694066E-20  0.2222222E+00  0.0000000E+00  0.6172840E-02
    1      -14.829079
    2      -14.708791
    3      -14.708458
    4      -14.581182
    5      -11.608172
    6      -11.511524
    7      -11.511243
    8      -11.410564
    9      -10.403687
   10      -10.401013
   11      -10.320064
   12      -10.317689
   13      -10.317128
   14      -10.314754
   15      -10.230852
   16      -10.228187
   17       -7.753783
   18       -7.749123
   19       -7.689976
   20       -7.686775
   21       -7.685080
   22       -7.681917
   23       -7.619775
   24       -7.615106
   25       -6.596708
   26       -6.533755
   27       -6.533564
   28       -6.468524
   29       -3.568440
   30       -2.782586
   31       -2.781097
   32       -2.748456
   33       -2.743139
   34       -2.718680
   35       -2.716155
   36       -2.713278
   37       -2.710782
   38       -2.685666
   39       -2.680300
   40       -1.835551
   41       -1.628524
   42       -1.606707
   43       -1.606628
   44       -1.584722
   45        0.183174
   46        0.349376
   47        0.366630
   48        0.366781
   49        0.384325
   50        0.812288
   51        0.813736
   52        0.896653
   53        0.909758
   54        0.909845
   55        0.922871
   56        1.446607
   57        1.449330
   58        1.522738
   59        1.950609
   60        1.953747
   61        1.953822
   62        1.956990
   63        2.457064
   64        2.460045
   65        6.328242
   66        6.334324
   67        6.595017
   68        6.599393
   69        6.601121
   70        6.605285
   71        7.042540
   72        7.047904
   73        7.522943
   74        7.896586
   75        7.898221
   76        8.407793
   77        8.968939
   78       11.393364
   79       11.396667
   80       11.852713
   81       12.008558
   82       12.009115
   83       12.145898
   84       12.850933
 
  0.1111111E+00  0.2222222E+00  0.0000000E+00  0.6172840E-02
    1      -14.609497
    2      -14.490753
    3      -14.490424
    4      -14.364951
    5      -12.026192
    6      -11.926399
    7      -11.926103
    8      -11.821781
    9      -11.402220
   10      -11.307359
   11      -11.307086
   12      -11.207941
   13       -9.671753
   14       -9.600529
   15       -9.599742
   16       -9.528131
   17       -8.089849
   18       -8.035355
   19       -8.032933
   20       -7.973494
   21       -6.455820
   22       -6.396311
   23       -6.394644
   24       -6.333503
   25       -5.858826
   26       -5.800709
   27       -5.800483
   28       -5.740952
   29       -3.723747
   30       -3.686400
   31       -3.684357
   32       -3.646063
   33       -3.303077
   34       -2.524290
   35       -2.523259
   36       -2.522578
   37       -2.494427
   38       -2.492189
   39       -2.462737
   40       -1.710128
   41       -1.686471
   42       -1.686215
   43       -1.662240
   44       -1.587110
   45       -0.306654
   46       -0.289559
   47       -0.287837
   48       -0.272901
   49       -0.266089