 running on    6 total cores
 distrk:  each k-point on    6 cores,    1 groups
 distr:  one band on    1 cores,    6 groups
 using from now: INCAR     
 vasp.5.3.5 31Mar14 (build Nov 02 2014 15:17:37) complex                        
  
 POSCAR found :  1 types and      32 ions
 scaLAPACK will be used

 ----------------------------------------------------------------------------- 
|                                                                             |
|           W    W    AA    RRRRR   N    N  II  N    N   GGGG   !!!           |
|           W    W   A  A   R    R  NN   N  II  NN   N  G    G  !!!           |
|           W    W  A    A  R    R  N N  N  II  N N  N  G       !!!           |
|           W WW W  AAAAAA  RRRRR   N  N N  II  N  N N  G  GGG   !            |
|           WW  WW  A    A  R   R   N   NN  II  N   NN  G    G                |
|           W    W  A    A  R    R  N    N  II  N    N   GGGG   !!!           |
|                                                                             |
|      For optimal performance we recommend to set                            |
|        NCORE= 4 - approx SQRT( number of cores)                             |
|      NCORE specifies how many cores store one orbital (NPAR=cpu/NCORE).     |
|      This setting can  greatly improve the performance of VASP for DFT.     |
|      The default, NPAR=number of cores might be grossly inefficient         |
|      on modern multi-core architectures or massively parallel machines.     |
|      Do your own testing !!!!                                               |
|      Unfortunately you need to use the default for GW and RPA calculations. |
|      (for HF NCORE is supported but not extensively tested yet)             |
|                                                                             |
 ----------------------------------------------------------------------------- 


 ----------------------------------------------------------------------------- 
|                                                                             |
|  ADVICE TO THIS USER RUNNING 'VASP/VAMP'   (HEAR YOUR MASTER'S VOICE ...):  |
|                                                                             |
|      You have a (more or less) 'large supercell' and for larger cells       |
|      it might be more efficient to use real space projection operators      |
|      So try LREAL= Auto  in the INCAR   file.                               |
|      Mind: If you want to do a very accurate calculations keep the          |
|      reciprocal projection scheme          (i.e. LREAL=.FALSE.)             |
|                                                                             |
 ----------------------------------------------------------------------------- 

 LDA part: xc-table for Pade appr. of Perdew
 POSCAR, INCAR and KPOINTS ok, starting setup
 WARNING: small aliasing (wrap around) errors must be expected
 FFT: planning ...
 WAVECAR not read
 WARNING: random wavefunctions but no delay for mixing, default for NELMDL
 entering main loop
       N       E                     dE             d eps       ncg     rms          rms(c)
DAV:   1     0.600298192847E+03    0.60030E+03   -0.71493E+04 27384   0.159E+03
DAV:   2    -0.262159526868E+03   -0.86246E+03   -0.83162E+03 34164   0.312E+02
DAV:   3    -0.312817818637E+03   -0.50658E+02   -0.50185E+02 33372   0.760E+01
DAV:   4    -0.313788051359E+03   -0.97023E+00   -0.96839E+00 35064   0.114E+01
DAV:   5    -0.313816292001E+03   -0.28241E-01   -0.28228E-01 35160   0.181E+00    0.220E+01
DAV:   6    -0.299336655145E+03    0.14480E+02   -0.14917E+01 31296   0.107E+01    0.116E+01
DAV:   7    -0.294725665020E+03    0.46110E+01   -0.15834E+01 30792   0.110E+01    0.196E+00
DAV:   8    -0.294788803585E+03   -0.63139E-01   -0.46919E-01 31680   0.200E+00    0.560E-01
DAV:   9    -0.294792743082E+03   -0.39395E-02   -0.36841E-02 31680   0.651E-01    0.227E-01
DAV:  10    -0.294791615446E+03    0.11276E-02   -0.13318E-02 40908   0.365E-01    0.121E-01
DAV:  11    -0.294792458680E+03   -0.84323E-03   -0.94092E-03 31236   0.229E-01    0.107E-01
DAV:  12    -0.294792702018E+03   -0.24334E-03   -0.69898E-03 31152   0.185E-01    0.912E-02
DAV:  13    -0.294792594764E+03    0.10725E-03   -0.21881E-03 31356   0.114E-01    0.477E-02
DAV:  14    -0.294792571945E+03    0.22819E-04   -0.22551E-04 32112   0.419E-02    0.285E-02
DAV:  15    -0.294792575582E+03   -0.36370E-05   -0.13421E-04 32544   0.142E-02    0.265E-02
DAV:  16    -0.294792574713E+03    0.86904E-06   -0.57992E-05 23244   0.909E-03    0.281E-02
DAV:  17    -0.294792574609E+03    0.10393E-06   -0.14942E-05 19548   0.450E-03    0.276E-02
DAV:  18    -0.294792633670E+03   -0.59061E-04   -0.10510E-03 29088   0.361E-02    0.567E-02
DAV:  19    -0.294792574851E+03    0.58819E-04   -0.35285E-04 27624   0.363E-02    0.331E-02
DAV:  20    -0.294792586205E+03   -0.11354E-04   -0.35641E-04 19896   0.162E-02    0.408E-02
DAV:  21    -0.294792571734E+03    0.14471E-04   -0.91829E-05 19500   0.131E-02    0.133E-02
DAV:  22    -0.294792572763E+03   -0.10290E-05   -0.33085E-05 19128   0.500E-03    0.214E-02
DAV:  23    -0.294792572807E+03   -0.43901E-07   -0.52781E-05 19248   0.541E-03    0.234E-02
DAV:  24    -0.294792574431E+03   -0.16247E-05   -0.88814E-05 19236   0.681E-03    0.305E-02
DAV:  25    -0.294792572012E+03    0.24194E-05   -0.56654E-05 19140   0.596E-03    0.147E-02
DAV:  26    -0.294792571753E+03    0.25941E-06   -0.13338E-05 18756   0.294E-03    0.617E-03
DAV:  27    -0.294792571663E+03    0.89074E-07   -0.11283E-06 18516   0.120E-03
   1 F= -.29776791E+03 E0= -.29776791E+03  d E =0.000000E+00
