mesh: [     9,     9,     4 ]
nqpoint: 50     
reciprocal_lattice:
- [   0.40553429,   0.23434576,   0.00000000 ] # a*
- [   0.00018224,   0.46837588,   0.00000000 ] # b*
- [   0.00000000,   0.00000000,   0.14856132 ] # c*
natom:   4      
lattice:
- [     2.466437248995937,    -0.000959642981403,     0.000000000000000 ] # a
- [    -1.234049699648306,     2.135517492938035,     0.000000000000000 ] # b
- [     0.000000000000000,     0.000000000000000,     6.731226989067880 ] # c
points:
- symbol: C  # 1
  coordinates: [  0.999346608899160,  0.000653437440448,  0.250000000000000 ]
  mass: 12.010700
- symbol: C  # 2
  coordinates: [  0.000653437440448,  0.999346608899160,  0.750000000000000 ]
  mass: 12.010700
- symbol: C  # 3
  coordinates: [  0.332584924946424,  0.667415057713967,  0.250000000000000 ]
  mass: 12.010700
- symbol: C  # 4
  coordinates: [  0.667415057713967,  0.332584924946424,  0.750000000000000 ]
  mass: 12.010700
phonon:
- q-position: [    0.0000000,    0.0000000,    0.1250000 ]
  weight: 2    
  band:
  - # 1
    frequency:    -1.2096706605
  - # 2
    frequency:    -0.7959087173
  - # 3
    frequency:    -0.3569878259
  - # 4
    frequency:     1.0024357077
  - # 5
    frequency:     1.0578739391
  - # 6
    frequency:     1.1223429055
  - # 7
    frequency:    24.9133663197
  - # 8
    frequency:    26.1163252171
  - # 9
    frequency:    45.5741221701
  - # 10
    frequency:    45.5810517535
  - # 11
    frequency:    45.6063915049
  - # 12
    frequency:    45.6708618315

- q-position: [    0.1111111,    0.0000000,    0.1250000 ]
  weight: 8    
  band:
  - # 1
    frequency:     3.8496728289
  - # 2
    frequency:     4.5726000339
  - # 3
    frequency:     5.8706867334
  - # 4
    frequency:     6.0926470958
  - # 5
    frequency:    11.4613581413
  - # 6
    frequency:    11.5192325840
  - # 7
    frequency:    24.4075977005
  - # 8
    frequency:    25.5195308775
  - # 9
    frequency:    45.2414499572
  - # 10
    frequency:    45.2429341999
  - # 11
    frequency:    45.6388327149
  - # 12
    frequency:    45.7040824489

- q-position: [    0.2222222,    0.0000000,    0.1250000 ]
  weight: 8    
  band:
  - # 1
    frequency:     7.6317055945
  - # 2
    frequency:     8.3194171994
  - # 3
    frequency:    11.3857275985
  - # 4
    frequency:    11.5705739076
  - # 5
    frequency:    22.0744454910
  - # 6
    frequency:    22.1415037694
  - # 7
    frequency:    23.0059775554
  - # 8
    frequency:    23.8644171300
  - # 9
    frequency:    44.2631870579
  - # 10
    frequency:    44.2709334929
  - # 11
    frequency:    45.5487777941
  - # 12
    frequency:    45.6053062486

- q-position: [    0.3333333,    0.0000000,    0.1250000 ]
  weight: 8    
  band:
  - # 1
    frequency:    11.0105904612
  - # 2
    frequency:    11.5797633484
  - # 3
    frequency:    15.8327427448
  - # 4
    frequency:    15.9643020564
  - # 5
    frequency:    21.0378261730
  - # 6
    frequency:    21.5431452527
  - # 7
    frequency:    31.0120586054
  - # 8
    frequency:    31.0851297323
  - # 9
    frequency:    42.9844659678
  - # 10
    frequency:    42.9996069071
  - # 11
    frequency:    44.6714237648
  - # 12
    frequency:    44.7266665326

- q-position: [    0.4444444,    0.0000000,    0.1250000 ]
  weight: 8    
  band:
  - # 1
    frequency:    13.6158040354
  - # 2
    frequency:    13.9607133730
  - # 3
    frequency:    18.4515397015
  - # 4
    frequency:    18.5007964712
  - # 5
    frequency:    19.1435503055
  - # 6
    frequency:    19.3220444524
  - # 7
    frequency:    37.7828536694
  - # 8
    frequency:    37.8507346876
  - # 9
    frequency:    42.0164463716
  - # 10
    frequency:    42.0315817065
  - # 11
    frequency:    42.2808634724
  - # 12
    frequency:    42.3461770169

- q-position: [    0.1111111,    0.1111111,    0.1250000 ]
  weight: 4    
  band:
  - # 1
    frequency:     7.1356937178
  - # 2
    frequency:     7.4162032144
  - # 3
    frequency:    10.7074066662
  - # 4
    frequency:    10.7519478862
  - # 5
    frequency:    19.0529588491
  - # 6
    frequency:    19.1275904227
  - # 7
    frequency:    23.3828357305
  - # 8
    frequency:    24.2999545828
  - # 9
    frequency:    44.6316320731
  - # 10
    frequency:    44.6537509705
  - # 11
    frequency:    45.5389147935
  - # 12
    frequency:    45.6125204860

- q-position: [    0.2222222,    0.1111111,    0.1250000 ]
  weight: 8    
  band:
  - # 1
    frequency:    10.3236876551
  - # 2
    frequency:    10.7069930202
  - # 3
    frequency:    15.8859343504
  - # 4
    frequency:    16.0005598050
  - # 5
    frequency:    21.6276859267
  - # 6
    frequency:    22.2218027078
  - # 7
    frequency:    27.3297057057
  - # 8
    frequency:    27.4052397235
  - # 9
    frequency:    43.6893104743
  - # 10
    frequency:    43.7038268309
  - # 11
    frequency:    44.9014832905
  - # 12
    frequency:    44.9529840792

- q-position: [    0.3333333,    0.1111111,    0.1250000 ]
  weight: 8    
  band:
  - # 1
    frequency:    13.1131003108
  - # 2
    frequency:    13.4479135314
  - # 3
    frequency:    19.5931352997
  - # 4
    frequency:    19.6915441927
  - # 5
    frequency:    19.7831915892
  - # 6
    frequency:    19.8275884920
  - # 7
    frequency:    34.3736292962
  - # 8
    frequency:    34.4440110884
  - # 9
    frequency:    42.5061842477
  - # 10
    frequency:    42.5235560353
  - # 11
    frequency:    43.3945022659
  - # 12
    frequency:    43.4404996133

- q-position: [   -0.5555556,    0.1111111,    0.1250000 ]
  weight: 8    
  band:
  - # 1
    frequency:    14.3495349965
  - # 2
    frequency:    14.6555603483
  - # 3
    frequency:    18.5072547280
  - # 4
    frequency:    18.5969566661
  - # 5
    frequency:    21.1257797841
  - # 6
    frequency:    21.1384105255
  - # 7
    frequency:    39.4168202913
  - # 8
    frequency:    39.4426405179
  - # 9
    frequency:    39.7032934860
  - # 10
    frequency:    39.7719746170
  - # 11
    frequency:    42.6306948464
  - # 12
    frequency:    42.6421833714

- q-position: [   -0.4444444,    0.1111111,    0.1250000 ]
  weight: 8    
  band:
  - # 1
    frequency:    12.3971222877
  - # 2
    frequency:    13.0050889316
  - # 3
    frequency:    19.6439486351
  - # 4
    frequency:    19.7178513199
  - # 5
    frequency:    19.9223350270
  - # 6
    frequency:    20.2605551952
  - # 7
    frequency:    34.3491601659
  - # 8
    frequency:    34.4082537663
  - # 9
    frequency:    42.5011286002
  - # 10
    frequency:    42.5256269687
  - # 11
    frequency:    43.4319143835
  - # 12
    frequency:    43.4898947513

- q-position: [   -0.3333333,    0.1111111,    0.1250000 ]
  weight: 8    
  band:
  - # 1
    frequency:     9.3436000135
  - # 2
    frequency:    10.2238187731
  - # 3
    frequency:    15.7891261875
  - # 4
    frequency:    15.9166333460
  - # 5
    frequency:    21.9201436346
  - # 6
    frequency:    22.6064849246
  - # 7
    frequency:    27.2951769222
  - # 8
    frequency:    27.3509758522
  - # 9
    frequency:    43.7299679311
  - # 10
    frequency:    43.7417777279
  - # 11
    frequency:    44.9144284602
  - # 12
    frequency:    44.9592496351

- q-position: [   -0.2222222,    0.1111111,    0.1250000 ]
  weight: 8    
  band:
  - # 1
    frequency:     5.9026683257
  - # 2
    frequency:     7.1051267814
  - # 3
    frequency:    10.5638226923
  - # 4
    frequency:    10.6809735769
  - # 5
    frequency:    19.0029965313
  - # 6
    frequency:    19.0856116102
  - # 7
    frequency:    23.5707249944
  - # 8
    frequency:    24.5516015355
  - # 9
    frequency:    44.6585147876
  - # 10
    frequency:    44.7072003647
  - # 11
    frequency:    45.5634410887
  - # 12
    frequency:    45.5785989887

- q-position: [   -0.1111111,    0.1111111,    0.1250000 ]
  weight: 4    
  band:
  - # 1
    frequency:     2.8903222919
  - # 2
    frequency:     4.4696912377
  - # 3
    frequency:     5.8415234471
  - # 4
    frequency:     5.9478665781
  - # 5
    frequency:    11.3763994420
  - # 6
    frequency:    11.5651011169
  - # 7
    frequency:    24.4719420139
  - # 8
    frequency:    25.6067110046
  - # 9
    frequency:    45.2208628569
  - # 10
    frequency:    45.3129123122
  - # 11
    frequency:    45.6457634011
  - # 12
    frequency:    45.6730337107

- q-position: [    0.2222222,    0.2222222,    0.1250000 ]
  weight: 4    
  band:
  - # 1
    frequency:    12.9397511223
  - # 2
    frequency:    13.2583339449
  - # 3
    frequency:    19.7534129061
  - # 4
    frequency:    20.0060248184
  - # 5
    frequency:    21.6250440710
  - # 6
    frequency:    21.7211426361
  - # 7
    frequency:    32.0524978765
  - # 8
    frequency:    32.1072287554
  - # 9
    frequency:    43.0537780649
  - # 10
    frequency:    43.0897545030
  - # 11
    frequency:    43.4436283896
  - # 12
    frequency:    43.4516939587

- q-position: [    0.3333333,    0.2222222,    0.1250000 ]
  weight: 8    
  band:
  - # 1
    frequency:    15.0212814225
  - # 2
    frequency:    15.2648409232
  - # 3
    frequency:    17.9057007281
  - # 4
    frequency:    17.9605137555
  - # 5
    frequency:    25.4735645798
  - # 6
    frequency:    25.5307645575
  - # 7
    frequency:    36.0964323156
  - # 8
    frequency:    36.1303323055
  - # 9
    frequency:    39.9979919655
  - # 10
    frequency:    40.0249792040
  - # 11
    frequency:    43.4554517931
  - # 12
    frequency:    43.4613512619

- q-position: [   -0.5555556,    0.2222222,    0.1250000 ]
  weight: 8    
  band:
  - # 1
    frequency:    14.2615397660
  - # 2
    frequency:    14.7291794877
  - # 3
    frequency:    18.3906343601
  - # 4
    frequency:    18.5385927413
  - # 5
    frequency:    25.4505254913
  - # 6
    frequency:    25.4664759700
  - # 7
    frequency:    36.0819518848
  - # 8
    frequency:    36.1141785662
  - # 9
    frequency:    40.0089540603
  - # 10
    frequency:    40.0350513987
  - # 11
    frequency:    43.4711757250
  - # 12
    frequency:    43.4878665046

- q-position: [   -0.4444444,    0.2222222,    0.1250000 ]
  weight: 8    
  band:
  - # 1
    frequency:    11.7969962826
  - # 2
    frequency:    12.5221352681
  - # 3
    frequency:    20.2683779616
  - # 4
    frequency:    20.6847264680
  - # 5
    frequency:    21.5573832866
  - # 6
    frequency:    21.6077038439
  - # 7
    frequency:    32.0003720590
  - # 8
    frequency:    32.0585497591
  - # 9
    frequency:    43.0796645643
  - # 10
    frequency:    43.0951227623
  - # 11
    frequency:    43.4865093079
  - # 12
    frequency:    43.5042103218

- q-position: [   -0.3333333,    0.2222222,    0.1250000 ]
  weight: 8    
  band:
  - # 1
    frequency:     9.0514681461
  - # 2
    frequency:    10.0613246213
  - # 3
    frequency:    15.8287675495
  - # 4
    frequency:    15.8701935173
  - # 5
    frequency:    22.0030783925
  - # 6
    frequency:    22.7288559617
  - # 7
    frequency:    27.2362139910
  - # 8
    frequency:    27.3450181910
  - # 9
    frequency:    43.7114909463
  - # 10
    frequency:    43.7682558297
  - # 11
    frequency:    44.9334592255
  - # 12
    frequency:    44.9546956124

- q-position: [   -0.2222222,    0.2222222,    0.1250000 ]
  weight: 4    
  band:
  - # 1
    frequency:     6.6125670694
  - # 2
    frequency:     7.9035949245
  - # 3
    frequency:    11.3956942683
  - # 4
    frequency:    11.4391179264
  - # 5
    frequency:    21.9656498209
  - # 6
    frequency:    22.1206390588
  - # 7
    frequency:    23.2013830680
  - # 8
    frequency:    24.1344514396
  - # 9
    frequency:    44.2514831042
  - # 10
    frequency:    44.3295456349
  - # 11
    frequency:    45.5734239835
  - # 12
    frequency:    45.6014681178

- q-position: [   -0.6666667,    0.3333333,    0.1250000 ]
  weight: 4    
  band:
  - # 1
    frequency:    16.0127709749
  - # 2
    frequency:    16.2031883898
  - # 3
    frequency:    16.8164355410
  - # 4
    frequency:    17.0130102125
  - # 5
    frequency:    28.9656779917
  - # 6
    frequency:    28.9795186988
  - # 7
    frequency:    37.0957680024
  - # 8
    frequency:    37.1129831085
  - # 9
    frequency:    37.1358548264
  - # 10
    frequency:    37.1633142313
  - # 11
    frequency:    43.7843693900
  - # 12
    frequency:    43.7937049796

- q-position: [   -0.5555556,    0.3333333,    0.1250000 ]
  weight: 8    
  band:
  - # 1
    frequency:    14.2779900479
  - # 2
    frequency:    14.6828981010
  - # 3
    frequency:    18.4307102881
  - # 4
    frequency:    18.5388169787
  - # 5
    frequency:    25.4466902199
  - # 6
    frequency:    25.4580952513
  - # 7
    frequency:    36.0828363093
  - # 8
    frequency:    36.1157338838
  - # 9
    frequency:    40.0160744126
  - # 10
    frequency:    40.0206330140
  - # 11
    frequency:    43.4714387265
  - # 12
    frequency:    43.4764050119

- q-position: [   -0.4444444,    0.3333333,    0.1250000 ]
  weight: 8    
  band:
  - # 1
    frequency:    12.3127099924
  - # 2
    frequency:    12.9168216178
  - # 3
    frequency:    19.6782808343
  - # 4
    frequency:    19.6915357416
  - # 5
    frequency:    19.9749623863
  - # 6
    frequency:    20.3439723935
  - # 7
    frequency:    34.3070693638
  - # 8
    frequency:    34.3927861719
  - # 9
    frequency:    42.5072879024
  - # 10
    frequency:    42.5447115836
  - # 11
    frequency:    43.4321099247
  - # 12
    frequency:    43.4635634041

- q-position: [   -0.3333333,    0.3333333,    0.1250000 ]
  weight: 4    
  band:
  - # 1
    frequency:    10.3210415226
  - # 2
    frequency:    11.1717645246
  - # 3
    frequency:    15.8563541587
  - # 4
    frequency:    15.8744985884
  - # 5
    frequency:    21.2801968228
  - # 6
    frequency:    21.8897376945
  - # 7
    frequency:    30.9242786978
  - # 8
    frequency:    31.0434374213
  - # 9
    frequency:    42.9792849745
  - # 10
    frequency:    43.0342372984
  - # 11
    frequency:    44.7017477742
  - # 12
    frequency:    44.7314909040

- q-position: [   -0.5555556,    0.4444444,    0.1250000 ]
  weight: 4    
  band:
  - # 1
    frequency:    14.2893123149
  - # 2
    frequency:    14.5666063032
  - # 3
    frequency:    18.6006150990
  - # 4
    frequency:    18.6602834286
  - # 5
    frequency:    21.1199900065
  - # 6
    frequency:    21.1232336125
  - # 7
    frequency:    39.4395076939
  - # 8
    frequency:    39.4597788022
  - # 9
    frequency:    39.6651173411
  - # 10
    frequency:    39.7281383357
  - # 11
    frequency:    42.6307967534
  - # 12
    frequency:    42.6325222023

- q-position: [   -0.4444444,    0.4444444,    0.1250000 ]
  weight: 4    
  band:
  - # 1
    frequency:    13.4815454504
  - # 2
    frequency:    13.8582591320
  - # 3
    frequency:    18.4680913429
  - # 4
    frequency:    18.4725711895
  - # 5
    frequency:    19.2335362044
  - # 6
    frequency:    19.4443144631
  - # 7
    frequency:    37.7443914532
  - # 8
    frequency:    37.8231532479
  - # 9
    frequency:    42.0135809338
  - # 10
    frequency:    42.0388152506
  - # 11
    frequency:    42.2841982136
  - # 12
    frequency:    42.3344223801

- q-position: [    0.0000000,    0.0000000,    0.3750000 ]
  weight: 2    
  band:
  - # 1
    frequency:    -1.7625500447
  - # 2
    frequency:    -1.6371945727
  - # 3
    frequency:    -1.4172754943
  - # 4
    frequency:    -1.1771081362
  - # 5
    frequency:     2.4564995180
  - # 6
    frequency:     2.5725012008
  - # 7
    frequency:    25.6827097165
  - # 8
    frequency:    26.1822224014
  - # 9
    frequency:    43.6309887028
  - # 10
    frequency:    43.6736670746
  - # 11
    frequency:    43.8119457165
  - # 12
    frequency:    43.8194718804

- q-position: [    0.1111111,    0.0000000,    0.3750000 ]
  weight: 8    
  band:
  - # 1
    frequency:     4.5833557437
  - # 2
    frequency:     4.8611663326
  - # 3
    frequency:     5.8331819815
  - # 4
    frequency:     5.9257873646
  - # 5
    frequency:    11.4202303609
  - # 6
    frequency:    11.4493706966
  - # 7
    frequency:    25.1129569724
  - # 8
    frequency:    25.5745238737
  - # 9
    frequency:    43.5948907126
  - # 10
    frequency:    43.6050447488
  - # 11
    frequency:    43.9777698047
  - # 12
    frequency:    43.9992530225

- q-position: [    0.2222222,    0.0000000,    0.3750000 ]
  weight: 8    
  band:
  - # 1
    frequency:     8.0027701809
  - # 2
    frequency:     8.2847074855
  - # 3
    frequency:    11.5020260654
  - # 4
    frequency:    11.5798143651
  - # 5
    frequency:    22.1068800204
  - # 6
    frequency:    22.1358374107
  - # 7
    frequency:    23.5359612096
  - # 8
    frequency:    23.8919082712
  - # 9
    frequency:    43.1355737252
  - # 10
    frequency:    43.1381189693
  - # 11
    frequency:    44.4293039970
  - # 12
    frequency:    44.4530249345

- q-position: [    0.3333333,    0.0000000,    0.3750000 ]
  weight: 8    
  band:
  - # 1
    frequency:    11.2111731654
  - # 2
    frequency:    11.4458204474
  - # 3
    frequency:    15.9416919070
  - # 4
    frequency:    15.9967182326
  - # 5
    frequency:    21.3302193283
  - # 6
    frequency:    21.5394548513
  - # 7
    frequency:    31.1073911546
  - # 8
    frequency:    31.1375274841
  - # 9
    frequency:    42.4778128166
  - # 10
    frequency:    42.4838386985
  - # 11
    frequency:    44.1460525938
  - # 12
    frequency:    44.1694802269

- q-position: [    0.4444444,    0.0000000,    0.3750000 ]
  weight: 8    
  band:
  - # 1
    frequency:    13.7204570228
  - # 2
    frequency:    13.8631926080
  - # 3
    frequency:    18.4785096194
  - # 4
    frequency:    18.4989305678
  - # 5
    frequency:    19.2216887385
  - # 6
    frequency:    19.2957226774
  - # 7
    frequency:    37.8654150921
  - # 8
    frequency:    37.8932931536
  - # 9
    frequency:    41.9560745383
  - # 10
    frequency:    41.9622992418
  - # 11
    frequency:    42.1783296021
  - # 12
    frequency:    42.2057010247

- q-position: [    0.1111111,    0.1111111,    0.3750000 ]
  weight: 4    
  band:
  - # 1
    frequency:     7.4477650842
  - # 2
    frequency:     7.5775369656
  - # 3
    frequency:    10.5643220202
  - # 4
    frequency:    10.5914828178
  - # 5
    frequency:    19.0122875759
  - # 6
    frequency:    19.0439599245
  - # 7
    frequency:    23.9558339965
  - # 8
    frequency:    24.3362859201
  - # 9
    frequency:    43.4360379905
  - # 10
    frequency:    43.4434652234
  - # 11
    frequency:    44.2488595779
  - # 12
    frequency:    44.2804654888

- q-position: [    0.2222222,    0.1111111,    0.3750000 ]
  weight: 8    
  band:
  - # 1
    frequency:    10.5214049787
  - # 2
    frequency:    10.6819424306
  - # 3
    frequency:    15.8507913193
  - # 4
    frequency:    15.9004980264
  - # 5
    frequency:    21.9821926296
  - # 6
    frequency:    22.2282378632
  - # 7
    frequency:    27.3082718188
  - # 8
    frequency:    27.3395701236
  - # 9
    frequency:    43.0518182226
  - # 10
    frequency:    43.0570530304
  - # 11
    frequency:    44.2218029311
  - # 12
    frequency:    44.2433091268

- q-position: [    0.3333333,    0.1111111,    0.3750000 ]
  weight: 8    
  band:
  - # 1
    frequency:    13.2298034109
  - # 2
    frequency:    13.3681418422
  - # 3
    frequency:    19.6893176986
  - # 4
    frequency:    19.7085663993
  - # 5
    frequency:    19.7307648263
  - # 6
    frequency:    19.8085876934
  - # 7
    frequency:    34.3942256878
  - # 8
    frequency:    34.4232265080
  - # 9
    frequency:    42.3592148263
  - # 10
    frequency:    42.3666266484
  - # 11
    frequency:    43.2476112341
  - # 12
    frequency:    43.2665430106

- q-position: [   -0.5555556,    0.1111111,    0.3750000 ]
  weight: 8    
  band:
  - # 1
    frequency:    14.4323975330
  - # 2
    frequency:    14.5599485142
  - # 3
    frequency:    18.5262128211
  - # 4
    frequency:    18.5641262473
  - # 5
    frequency:    21.1840448752
  - # 6
    frequency:    21.1893006826
  - # 7
    frequency:    39.4413326545
  - # 8
    frequency:    39.4530183758
  - # 9
    frequency:    39.7696328495
  - # 10
    frequency:    39.7958482215
  - # 11
    frequency:    42.6579980678
  - # 12
    frequency:    42.6623822472

- q-position: [   -0.4444444,    0.1111111,    0.3750000 ]
  weight: 8    
  band:
  - # 1
    frequency:    12.5442150084
  - # 2
    frequency:    12.7957324365
  - # 3
    frequency:    19.8947992978
  - # 4
    frequency:    19.9250904592
  - # 5
    frequency:    20.1033737498
  - # 6
    frequency:    20.2434451386
  - # 7
    frequency:    34.5252916268
  - # 8
    frequency:    34.5492691052
  - # 9
    frequency:    42.2545837713
  - # 10
    frequency:    42.2646530632
  - # 11
    frequency:    43.1441606420
  - # 12
    frequency:    43.1682254981

- q-position: [   -0.3333333,    0.1111111,    0.3750000 ]
  weight: 8    
  band:
  - # 1
    frequency:     9.6379193680
  - # 2
    frequency:    10.0002710418
  - # 3
    frequency:    16.1782851234
  - # 4
    frequency:    16.2300700466
  - # 5
    frequency:    22.3275872044
  - # 6
    frequency:    22.6118992471
  - # 7
    frequency:    27.4354005547
  - # 8
    frequency:    27.4586189584
  - # 9
    frequency:    42.9239634367
  - # 10
    frequency:    42.9299871791
  - # 11
    frequency:    44.1404762146
  - # 12
    frequency:    44.1598286550

- q-position: [   -0.2222222,    0.1111111,    0.3750000 ]
  weight: 8    
  band:
  - # 1
    frequency:     6.4823129381
  - # 2
    frequency:     6.9638958718
  - # 3
    frequency:    10.9011512997
  - # 4
    frequency:    10.9475578893
  - # 5
    frequency:    19.1406943949
  - # 6
    frequency:    19.1740185291
  - # 7
    frequency:    24.1785558713
  - # 8
    frequency:    24.5853841090
  - # 9
    frequency:    43.2748092254
  - # 10
    frequency:    43.2977970556
  - # 11
    frequency:    44.2617826661
  - # 12
    frequency:    44.2692110129

- q-position: [   -0.1111111,    0.1111111,    0.3750000 ]
  weight: 4    
  band:
  - # 1
    frequency:     3.9862200076
  - # 2
    frequency:     4.5505199994
  - # 3
    frequency:     6.0147509414
  - # 4
    frequency:     6.0618360788
  - # 5
    frequency:    11.5095628133
  - # 6
    frequency:    11.5818558947
  - # 7
    frequency:    25.1894532747
  - # 8
    frequency:    25.6604541947
  - # 9
    frequency:    43.4685370628
  - # 10
    frequency:    43.5089399617
  - # 11
    frequency:    44.0395464305
  - # 12
    frequency:    44.0490458721

- q-position: [    0.2222222,    0.2222222,    0.3750000 ]
  weight: 4    
  band:
  - # 1
    frequency:    13.0584973179
  - # 2
    frequency:    13.1902166490
  - # 3
    frequency:    19.8853549871
  - # 4
    frequency:    19.9896917036
  - # 5
    frequency:    21.6264333535
  - # 6
    frequency:    21.6666031629
  - # 7
    frequency:    32.0271700189
  - # 8
    frequency:    32.0495481567
  - # 9
    frequency:    42.8646087338
  - # 10
    frequency:    42.8800457201
  - # 11
    frequency:    43.2866672874
  - # 12
    frequency:    43.2891618568

- q-position: [    0.3333333,    0.2222222,    0.3750000 ]
  weight: 8    
  band:
  - # 1
    frequency:    15.0897719485
  - # 2
    frequency:    15.1925541744
  - # 3
    frequency:    17.8835862143
  - # 4
    frequency:    17.9050497083
  - # 5
    frequency:    25.5341955036
  - # 6
    frequency:    25.5578664537
  - # 7
    frequency:    36.1397823601
  - # 8
    frequency:    36.1541244993
  - # 9
    frequency:    40.1372539448
  - # 10
    frequency:    40.1482067747
  - # 11
    frequency:    43.5383463858
  - # 12
    frequency:    43.5404090363

- q-position: [   -0.5555556,    0.2222222,    0.3750000 ]
  weight: 8    
  band:
  - # 1
    frequency:    14.3337177121
  - # 2
    frequency:    14.5293621587
  - # 3
    frequency:    18.4460429504
  - # 4
    frequency:    18.5069562303
  - # 5
    frequency:    25.7011902804
  - # 6
    frequency:    25.7075566033
  - # 7
    frequency:    36.2757554243
  - # 8
    frequency:    36.2886725004
  - # 9
    frequency:    39.9606682658
  - # 10
    frequency:    39.9720231346
  - # 11
    frequency:    43.4856121299
  - # 12
    frequency:    43.4917843671

- q-position: [   -0.4444444,    0.2222222,    0.3750000 ]
  weight: 8    
  band:
  - # 1
    frequency:    11.9552465543
  - # 2
    frequency:    12.2566029738
  - # 3
    frequency:    20.4973593111
  - # 4
    frequency:    20.6694047782
  - # 5
    frequency:    21.9772871995
  - # 6
    frequency:    21.9975428810
  - # 7
    frequency:    32.1776832292
  - # 8
    frequency:    32.2013315730
  - # 9
    frequency:    42.6962902020
  - # 10
    frequency:    42.7018206921
  - # 11
    frequency:    43.1529755161
  - # 12
    frequency:    43.1603110145

- q-position: [   -0.3333333,    0.2222222,    0.3750000 ]
  weight: 8    
  band:
  - # 1
    frequency:     9.3656003100
  - # 2
    frequency:     9.7828860589
  - # 3
    frequency:    16.1869410670
  - # 4
    frequency:    16.2027946105
  - # 5
    frequency:    22.4304620484
  - # 6
    frequency:    22.7309590115
  - # 7
    frequency:    27.5109337246
  - # 8
    frequency:    27.5551360623
  - # 9
    frequency:    42.8967925216
  - # 10
    frequency:    42.9207377443
  - # 11
    frequency:    44.1037828970
  - # 12
    frequency:    44.1124372926

- q-position: [   -0.2222222,    0.2222222,    0.3750000 ]
  weight: 4    
  band:
  - # 1
    frequency:     7.1338160785
  - # 2
    frequency:     7.6578934804
  - # 3
    frequency:    11.6747754402
  - # 4
    frequency:    11.6927960044
  - # 5
    frequency:    22.2898281281
  - # 6
    frequency:    22.3513954558
  - # 7
    frequency:    23.7710308107
  - # 8
    frequency:    24.1577806483
  - # 9
    frequency:    43.0150398453
  - # 10
    frequency:    43.0488042767
  - # 11
    frequency:    44.3870462984
  - # 12
    frequency:    44.3980617158

- q-position: [   -0.6666667,    0.3333333,    0.3750000 ]
  weight: 4    
  band:
  - # 1
    frequency:    16.0073031345
  - # 2
    frequency:    16.1011740200
  - # 3
    frequency:    16.8442763914
  - # 4
    frequency:    16.9118625549
  - # 5
    frequency:    29.1583962847
  - # 6
    frequency:    29.1643510021
  - # 7
    frequency:    37.1809657334
  - # 8
    frequency:    37.1876401261
  - # 9
    frequency:    37.3482978566
  - # 10
    frequency:    37.3588038791
  - # 11
    frequency:    43.9010956143
  - # 12
    frequency:    43.9040651046

- q-position: [   -0.5555556,    0.3333333,    0.3750000 ]
  weight: 8    
  band:
  - # 1
    frequency:    14.3323663839
  - # 2
    frequency:    14.5024741488
  - # 3
    frequency:    18.4739100587
  - # 4
    frequency:    18.5175404448
  - # 5
    frequency:    25.7534116238
  - # 6
    frequency:    25.7581186190
  - # 7
    frequency:    36.2131903910
  - # 8
    frequency:    36.2263245018
  - # 9
    frequency:    39.9798568706
  - # 10
    frequency:    39.9818170758
  - # 11
    frequency:    43.4852171356
  - # 12
    frequency:    43.4867168636

- q-position: [   -0.4444444,    0.3333333,    0.3750000 ]
  weight: 8    
  band:
  - # 1
    frequency:    12.4482852141
  - # 2
    frequency:    12.7003658871
  - # 3
    frequency:    19.8950345431
  - # 4
    frequency:    19.9001642685
  - # 5
    frequency:    20.1710960313
  - # 6
    frequency:    20.3230872862
  - # 7
    frequency:    34.5478641884
  - # 8
    frequency:    34.5827852903
  - # 9
    frequency:    42.2600136232
  - # 10
    frequency:    42.2749998852
  - # 11
    frequency:    43.1044457938
  - # 12
    frequency:    43.1170164052

- q-position: [   -0.3333333,    0.3333333,    0.3750000 ]
  weight: 4    
  band:
  - # 1
    frequency:    10.5570386442
  - # 2
    frequency:    10.9107798821
  - # 3
    frequency:    16.0476234174
  - # 4
    frequency:    16.0547995293
  - # 5
    frequency:    21.6275136722
  - # 6
    frequency:    21.8795657221
  - # 7
    frequency:    31.2632446701
  - # 8
    frequency:    31.3114333748
  - # 9
    frequency:    42.4082112579
  - # 10
    frequency:    42.4314661298
  - # 11
    frequency:    44.0396294012
  - # 12
    frequency:    44.0518661975

- q-position: [   -0.5555556,    0.4444444,    0.3750000 ]
  weight: 4    
  band:
  - # 1
    frequency:    14.3572477787
  - # 2
    frequency:    14.4728402731
  - # 3
    frequency:    18.6161764816
  - # 4
    frequency:    18.6413827373
  - # 5
    frequency:    21.2375948975
  - # 6
    frequency:    21.2389461158
  - # 7
    frequency:    39.4482654998
  - # 8
    frequency:    39.4557423447
  - # 9
    frequency:    39.7233937523
  - # 10
    frequency:    39.7482903575
  - # 11
    frequency:    42.6447170315
  - # 12
    frequency:    42.6456900385

- q-position: [   -0.4444444,    0.4444444,    0.3750000 ]
  weight: 4    
  band:
  - # 1
    frequency:    13.5819657788
  - # 2
    frequency:    13.7391943755
  - # 3
    frequency:    18.4985147933
  - # 4
    frequency:    18.5002898098
  - # 5
    frequency:    19.3311559256
  - # 6
    frequency:    19.4175048696
  - # 7
    frequency:    37.9138221496
  - # 8
    frequency:    37.9461466972
  - # 9
    frequency:    41.9444925470
  - # 10
    frequency:    41.9549661120
  - # 11
    frequency:    42.1078478457
  - # 12
    frequency:    42.1288397688

