  80  80   0   0
  0.9024016E+01  0.1138697E-08  0.7964821E-09  0.7959862E-09  0.5000000E-15
  1.000000000000000E-004
  CAR 
 diamond                                 
      9.24785861    -16.65095892  301     -5.75187321      1.00000000
    -16.651  0.0000E+00  0.0000E+00
    -16.565  0.0000E+00  0.0000E+00
    -16.478  0.0000E+00  0.0000E+00
    -16.392  0.0000E+00  0.0000E+00
    -16.306  0.0000E+00  0.0000E+00
    -16.219  0.0000E+00  0.0000E+00
    -16.133  0.0000E+00  0.0000E+00
    -16.047  0.0000E+00  0.0000E+00
    -15.960  0.0000E+00  0.0000E+00
    -15.874  0.0000E+00  0.0000E+00
    -15.788  0.0000E+00  0.0000E+00
    -15.701  0.0000E+00  0.0000E+00
    -15.615  0.0000E+00  0.0000E+00
    -15.529  0.0000E+00  0.0000E+00
    -15.442  0.0000E+00  0.0000E+00
    -15.356  0.0000E+00  0.0000E+00
    -15.270  0.0000E+00  0.0000E+00
    -15.183  0.0000E+00  0.0000E+00
    -15.097  0.0000E+00  0.0000E+00
    -15.011  0.0000E+00  0.0000E+00
    -14.924  0.0000E+00  0.0000E+00
    -14.838  0.0000E+00  0.0000E+00
    -14.752  0.0000E+00  0.0000E+00
    -14.665  0.0000E+00  0.0000E+00
    -14.579  0.4078E-01  0.1427E-02
    -14.493  0.8076E-01  0.6357E-02
    -14.406  0.1264E+00  0.1631E-01
    -14.320  0.2343E+00  0.2803E-01
    -14.234  0.2893E+00  0.4443E-01
    -14.147  0.3146E+00  0.6849E-01
    -14.061  0.3708E+00  0.9602E-01
    -13.975  0.2683E+00  0.1248E+00
    -13.888  0.2328E+00  0.1502E+00
    -13.802  0.9758E-04  0.1600E+00
    -13.716  0.0000E+00  0.1600E+00
    -13.629  0.0000E+00  0.1600E+00
    -13.543  0.0000E+00  0.1600E+00
    -13.457  0.0000E+00  0.1600E+00
    -13.370  0.0000E+00  0.1600E+00
    -13.284  0.0000E+00  0.1600E+00
    -13.198  0.0000E+00  0.1600E+00
    -13.111  0.0000E+00  0.1600E+00
    -13.025  0.0000E+00  0.1600E+00
    -12.939  0.0000E+00  0.1600E+00
    -12.852  0.0000E+00  0.1600E+00
    -12.766  0.0000E+00  0.1600E+00
    -12.680  0.0000E+00  0.1600E+00
    -12.593  0.0000E+00  0.1600E+00
    -12.507  0.0000E+00  0.1600E+00
    -12.421  0.0000E+00  0.1600E+00
    -12.334  0.0000E+00  0.1600E+00
    -12.248  0.0000E+00  0.1600E+00
    -12.162  0.0000E+00  0.1600E+00
    -12.076  0.0000E+00  0.1600E+00
    -11.989  0.0000E+00  0.1600E+00
    -11.903  0.0000E+00  0.1600E+00
    -11.817  0.0000E+00  0.1600E+00
    -11.730  0.0000E+00  0.1600E+00
    -11.644  0.0000E+00  0.1600E+00
    -11.558  0.0000E+00  0.1600E+00
    -11.471  0.0000E+00  0.1600E+00
    -11.385  0.0000E+00  0.1600E+00
    -11.299  0.0000E+00  0.1600E+00
    -11.212  0.0000E+00  0.1600E+00
    -11.126  0.0000E+00  0.1600E+00
    -11.040  0.0000E+00  0.1600E+00
    -10.953  0.0000E+00  0.1600E+00
    -10.867  0.0000E+00  0.1600E+00
    -10.781  0.0000E+00  0.1600E+00
    -10.694  0.0000E+00  0.1600E+00
    -10.608  0.0000E+00  0.1600E+00
    -10.522  0.0000E+00  0.1600E+00
    -10.435  0.0000E+00  0.1600E+00
    -10.349  0.0000E+00  0.1600E+00
    -10.263  0.0000E+00  0.1600E+00
    -10.176  0.0000E+00  0.1600E+00
    -10.090  0.0000E+00  0.1600E+00
    -10.004  0.0000E+00  0.1600E+00
     -9.917  0.0000E+00  0.1600E+00
     -9.831  0.0000E+00  0.1600E+00
     -9.745  0.0000E+00  0.1600E+00
     -9.658  0.0000E+00  0.1600E+00
     -9.572  0.0000E+00  0.1600E+00
     -9.486  0.0000E+00  0.1600E+00
     -9.399  0.0000E+00  0.1600E+00
     -9.313  0.0000E+00  0.1600E+00
     -9.227  0.0000E+00  0.1600E+00
     -9.140  0.0000E+00  0.1600E+00
     -9.054  0.0000E+00  0.1600E+00
     -8.968  0.0000E+00  0.1600E+00
     -8.881  0.0000E+00  0.1600E+00
     -8.795  0.0000E+00  0.1600E+00
     -8.709  0.0000E+00  0.1600E+00
     -8.622  0.0000E+00  0.1600E+00
     -8.536  0.0000E+00  0.1600E+00
     -8.450  0.0000E+00  0.1600E+00
     -8.363  0.0000E+00  0.1600E+00
     -8.277  0.0000E+00  0.1600E+00
     -8.191  0.0000E+00  0.1600E+00
     -8.104  0.0000E+00  0.1600E+00
     -8.018  0.0000E+00  0.1600E+00
     -7.932  0.0000E+00  0.1600E+00
     -7.845  0.0000E+00  0.1600E+00
     -7.759  0.0000E+00  0.1600E+00
     -7.673  0.0000E+00  0.1600E+00
     -7.586  0.0000E+00  0.1600E+00
     -7.500  0.0000E+00  0.1600E+00
     -7.414  0.5328E-01  0.1616E+00
     -7.327  0.1689E+00  0.1710E+00
     -7.241  0.2458E+00  0.1896E+00
     -7.155  0.2153E+00  0.2115E+00
     -7.068  0.2514E+00  0.2315E+00
     -6.982  0.2233E+00  0.2526E+00
     -6.896  0.2449E+00  0.2793E+00
     -6.809  0.2179E+00  0.2971E+00
     -6.723  0.9566E-01  0.3201E+00
     -6.637  0.2006E+00  0.3401E+00
     -6.550  0.2550E+00  0.3609E+00
     -6.464  0.2824E+00  0.3978E+00
     -6.378  0.2615E+00  0.4229E+00
     -6.291  0.4950E+00  0.4546E+00
     -6.205  0.4951E+00  0.4941E+00
     -6.119  0.7065E+00  0.5399E+00
     -6.032  0.4724E+00  0.5888E+00
     -5.946  0.3728E+00  0.6150E+00
     -5.860  0.7837E-01  0.6385E+00
     -5.773  0.0000E+00  0.6400E+00
     -5.687  0.0000E+00  0.6400E+00
     -5.601  0.0000E+00  0.6400E+00
     -5.514  0.0000E+00  0.6400E+00
     -5.428  0.0000E+00  0.6400E+00
     -5.342  0.0000E+00  0.6400E+00
     -5.255  0.0000E+00  0.6400E+00
     -5.169  0.0000E+00  0.6400E+00
     -5.083  0.0000E+00  0.6400E+00
     -4.996  0.0000E+00  0.6400E+00
     -4.910  0.0000E+00  0.6400E+00
     -4.824  0.0000E+00  0.6400E+00
     -4.738  0.0000E+00  0.6400E+00
     -4.651  0.0000E+00  0.6400E+00
     -4.565  0.0000E+00  0.6400E+00
     -4.479  0.0000E+00  0.6400E+00
     -4.392  0.0000E+00  0.6400E+00
     -4.306  0.0000E+00  0.6400E+00
     -4.220  0.0000E+00  0.6400E+00
     -4.133  0.0000E+00  0.6400E+00
     -4.047  0.0000E+00  0.6400E+00
     -3.961  0.0000E+00  0.6400E+00
     -3.874  0.0000E+00  0.6400E+00
     -3.788  0.0000E+00  0.6400E+00
     -3.702  0.0000E+00  0.6400E+00
     -3.615  0.0000E+00  0.6400E+00
     -3.529  0.0000E+00  0.6400E+00
     -3.443  0.0000E+00  0.6400E+00
     -3.356  0.0000E+00  0.6400E+00
     -3.270  0.0000E+00  0.6400E+00
     -3.184  0.0000E+00  0.6400E+00
     -3.097  0.0000E+00  0.6400E+00
     -3.011  0.0000E+00  0.6400E+00
     -2.925  0.0000E+00  0.6400E+00
     -2.838  0.0000E+00  0.6400E+00
     -2.752  0.0000E+00  0.6400E+00
     -2.666  0.0000E+00  0.6400E+00
     -2.579  0.0000E+00  0.6400E+00
     -2.493  0.0000E+00  0.6400E+00
     -2.407  0.0000E+00  0.6400E+00
     -2.320  0.0000E+00  0.6400E+00
     -2.234  0.0000E+00  0.6400E+00
     -2.148  0.0000E+00  0.6400E+00
     -2.061  0.0000E+00  0.6400E+00
     -1.975  0.0000E+00  0.6400E+00
     -1.889  0.0000E+00  0.6400E+00
     -1.802  0.0000E+00  0.6400E+00
     -1.716  0.0000E+00  0.6400E+00
     -1.630  0.0000E+00  0.6400E+00
     -1.543  0.0000E+00  0.6400E+00
     -1.457  0.0000E+00  0.6400E+00
     -1.371  0.0000E+00  0.6400E+00
     -1.284  0.0000E+00  0.6400E+00
     -1.198  0.0000E+00  0.6400E+00
     -1.112  0.0000E+00  0.6400E+00
     -1.025  0.0000E+00  0.6400E+00
     -0.939  0.0000E+00  0.6400E+00
     -0.853  0.0000E+00  0.6400E+00
     -0.766  0.0000E+00  0.6400E+00
     -0.680  0.0000E+00  0.6400E+00
     -0.594  0.0000E+00  0.6400E+00
     -0.507  0.0000E+00  0.6400E+00
     -0.421  0.0000E+00  0.6400E+00
     -0.335  0.0000E+00  0.6400E+00
     -0.248  0.0000E+00  0.6400E+00
     -0.162  0.0000E+00  0.6400E+00
     -0.076  0.0000E+00  0.6400E+00
      0.011  0.0000E+00  0.6400E+00
      0.097  0.0000E+00  0.6400E+00
      0.183  0.0000E+00  0.6400E+00
      0.270  0.0000E+00  0.6400E+00
      0.356  0.0000E+00  0.6400E+00
      0.442  0.0000E+00  0.6400E+00
      0.529  0.0000E+00  0.6400E+00
      0.615  0.0000E+00  0.6400E+00
      0.701  0.0000E+00  0.6400E+00
      0.788  0.0000E+00  0.6400E+00
      0.874  0.0000E+00  0.6400E+00
      0.960  0.0000E+00  0.6400E+00
      1.047  0.0000E+00  0.6400E+00
      1.133  0.0000E+00  0.6400E+00
      1.219  0.0000E+00  0.6400E+00
      1.306  0.0000E+00  0.6400E+00
      1.392  0.0000E+00  0.6400E+00
      1.478  0.0000E+00  0.6400E+00
      1.565  0.0000E+00  0.6400E+00
      1.651  0.0000E+00  0.6400E+00
      1.737  0.1695E-03  0.6400E+00
      1.824  0.1732E-02  0.6401E+00
      1.910  0.4278E-02  0.6403E+00
      1.996  0.6910E-02  0.6408E+00
      2.083  0.8302E-02  0.6415E+00
      2.169  0.9395E-02  0.6422E+00
      2.255  0.1065E-01  0.6431E+00
      2.342  0.1204E-01  0.6441E+00
      2.428  0.1401E-01  0.6452E+00
      2.514  0.1678E-01  0.6465E+00
      2.600  0.2063E-01  0.6481E+00
      2.687  0.2527E-01  0.6501E+00
      2.773  0.2921E-01  0.6525E+00
      2.859  0.2650E-01  0.6550E+00
      2.946  0.2017E-01  0.6569E+00
      3.032  0.1968E-01  0.6586E+00
      3.118  0.2153E-01  0.6604E+00
      3.205  0.2946E-01  0.6625E+00
      3.291  0.5557E-01  0.6661E+00
      3.377  0.7671E-01  0.6720E+00
      3.464  0.5763E-01  0.6783E+00
      3.550  0.6954E-01  0.6824E+00
      3.636  0.1632E+00  0.6926E+00
      3.723  0.1166E+00  0.7045E+00
      3.809  0.1092E+00  0.7158E+00
      3.895  0.6414E-01  0.7226E+00
      3.982  0.8320E-01  0.7282E+00
      4.068  0.9358E-01  0.7372E+00
      4.154  0.1561E+00  0.7473E+00
      4.241  0.9882E-01  0.7581E+00
      4.327  0.6798E-01  0.7655E+00
      4.413  0.7071E-01  0.7712E+00
      4.500  0.8667E-01  0.7780E+00
      4.586  0.1425E+00  0.7874E+00
      4.672  0.1284E+00  0.8015E+00
      4.759  0.6981E-01  0.8066E+00
      4.845  0.9799E-01  0.8154E+00
      4.931  0.7766E-01  0.8239E+00
      5.018  0.1342E+00  0.8324E+00
      5.104  0.1489E+00  0.8452E+00
      5.190  0.1264E+00  0.8574E+00
      5.277  0.1075E+00  0.8669E+00
      5.363  0.1084E+00  0.8762E+00
      5.449  0.1190E+00  0.8859E+00
      5.536  0.1271E+00  0.8972E+00
      5.622  0.1015E+00  0.9065E+00
      5.708  0.9358E-01  0.9158E+00
      5.795  0.1096E+00  0.9236E+00
      5.881  0.1306E+00  0.9360E+00
      5.967  0.1201E+00  0.9483E+00
      6.054  0.7141E-01  0.9563E+00
      6.140  0.4716E-01  0.9609E+00
      6.226  0.9769E-01  0.9688E+00
      6.313  0.1047E+00  0.9775E+00
      6.399  0.8179E-01  0.9854E+00
      6.485  0.1037E+00  0.9927E+00
      6.572  0.1335E+00  0.1003E+01
      6.658  0.1259E+00  0.1014E+01
      6.744  0.1355E+00  0.1026E+01
      6.831  0.6857E-01  0.1034E+01
      6.917  0.1113E+00  0.1042E+01
      7.003  0.1027E+00  0.1051E+01
      7.090  0.5416E-01  0.1057E+01
      7.176  0.1075E-01  0.1060E+01
      7.262  0.0000E+00  0.1060E+01
      7.349  0.0000E+00  0.1060E+01
      7.435  0.0000E+00  0.1060E+01
      7.521  0.0000E+00  0.1060E+01
      7.608  0.0000E+00  0.1060E+01
      7.694  0.0000E+00  0.1060E+01
      7.780  0.0000E+00  0.1060E+01
      7.867  0.0000E+00  0.1060E+01
      7.953  0.0000E+00  0.1060E+01
      8.039  0.0000E+00  0.1060E+01
      8.126  0.0000E+00  0.1060E+01
      8.212  0.0000E+00  0.1060E+01
      8.298  0.0000E+00  0.1060E+01
      8.385  0.0000E+00  0.1060E+01
      8.471  0.0000E+00  0.1060E+01
      8.557  0.0000E+00  0.1060E+01
      8.644  0.0000E+00  0.1060E+01
      8.730  0.0000E+00  0.1060E+01
      8.816  0.0000E+00  0.1060E+01
      8.903  0.0000E+00  0.1060E+01
      8.989  0.0000E+00  0.1060E+01
      9.075  0.0000E+00  0.1060E+01
      9.162  0.0000E+00  0.1060E+01
      9.248  0.0000E+00  0.1060E+01
