  80  80   0   0
  0.9024016E+01  0.1138697E-08  0.7964821E-09  0.7959862E-09  0.5000000E-15
  1.000000000000000E-004
  CAR 
 diamond                                 
      9.26032181    -16.65073758  301     -5.74650009      1.00000000
    -16.651  0.0000E+00  0.0000E+00
    -16.564  0.0000E+00  0.0000E+00
    -16.478  0.0000E+00  0.0000E+00
    -16.392  0.0000E+00  0.0000E+00
    -16.305  0.0000E+00  0.0000E+00
    -16.219  0.0000E+00  0.0000E+00
    -16.133  0.0000E+00  0.0000E+00
    -16.046  0.0000E+00  0.0000E+00
    -15.960  0.0000E+00  0.0000E+00
    -15.873  0.0000E+00  0.0000E+00
    -15.787  0.0000E+00  0.0000E+00
    -15.701  0.0000E+00  0.0000E+00
    -15.614  0.0000E+00  0.0000E+00
    -15.528  0.0000E+00  0.0000E+00
    -15.442  0.0000E+00  0.0000E+00
    -15.355  0.0000E+00  0.0000E+00
    -15.269  0.0000E+00  0.0000E+00
    -15.182  0.0000E+00  0.0000E+00
    -15.096  0.0000E+00  0.0000E+00
    -15.010  0.0000E+00  0.0000E+00
    -14.923  0.0000E+00  0.0000E+00
    -14.837  0.0000E+00  0.0000E+00
    -14.751  0.0000E+00  0.0000E+00
    -14.664  0.0000E+00  0.0000E+00
    -14.578  0.4100E-01  0.1467E-02
    -14.491  0.8169E-01  0.6440E-02
    -14.405  0.1253E+00  0.1644E-01
    -14.319  0.2364E+00  0.2829E-01
    -14.232  0.2962E+00  0.4476E-01
    -14.146  0.3191E+00  0.6886E-01
    -14.060  0.3674E+00  0.9647E-01
    -13.973  0.2737E+00  0.1251E+00
    -13.887  0.2280E+00  0.1505E+00
    -13.801  0.0000E+00  0.1600E+00
    -13.714  0.0000E+00  0.1600E+00
    -13.628  0.0000E+00  0.1600E+00
    -13.541  0.0000E+00  0.1600E+00
    -13.455  0.0000E+00  0.1600E+00
    -13.369  0.0000E+00  0.1600E+00
    -13.282  0.0000E+00  0.1600E+00
    -13.196  0.0000E+00  0.1600E+00
    -13.110  0.0000E+00  0.1600E+00
    -13.023  0.0000E+00  0.1600E+00
    -12.937  0.0000E+00  0.1600E+00
    -12.850  0.0000E+00  0.1600E+00
    -12.764  0.0000E+00  0.1600E+00
    -12.678  0.0000E+00  0.1600E+00
    -12.591  0.0000E+00  0.1600E+00
    -12.505  0.0000E+00  0.1600E+00
    -12.419  0.0000E+00  0.1600E+00
    -12.332  0.0000E+00  0.1600E+00
    -12.246  0.0000E+00  0.1600E+00
    -12.159  0.0000E+00  0.1600E+00
    -12.073  0.0000E+00  0.1600E+00
    -11.987  0.0000E+00  0.1600E+00
    -11.900  0.0000E+00  0.1600E+00
    -11.814  0.0000E+00  0.1600E+00
    -11.728  0.0000E+00  0.1600E+00
    -11.641  0.0000E+00  0.1600E+00
    -11.555  0.0000E+00  0.1600E+00
    -11.469  0.0000E+00  0.1600E+00
    -11.382  0.0000E+00  0.1600E+00
    -11.296  0.0000E+00  0.1600E+00
    -11.209  0.0000E+00  0.1600E+00
    -11.123  0.0000E+00  0.1600E+00
    -11.037  0.0000E+00  0.1600E+00
    -10.950  0.0000E+00  0.1600E+00
    -10.864  0.0000E+00  0.1600E+00
    -10.778  0.0000E+00  0.1600E+00
    -10.691  0.0000E+00  0.1600E+00
    -10.605  0.0000E+00  0.1600E+00
    -10.518  0.0000E+00  0.1600E+00
    -10.432  0.0000E+00  0.1600E+00
    -10.346  0.0000E+00  0.1600E+00
    -10.259  0.0000E+00  0.1600E+00
    -10.173  0.0000E+00  0.1600E+00
    -10.087  0.0000E+00  0.1600E+00
    -10.000  0.0000E+00  0.1600E+00
     -9.914  0.0000E+00  0.1600E+00
     -9.827  0.0000E+00  0.1600E+00
     -9.741  0.0000E+00  0.1600E+00
     -9.655  0.0000E+00  0.1600E+00
     -9.568  0.0000E+00  0.1600E+00
     -9.482  0.0000E+00  0.1600E+00
     -9.396  0.0000E+00  0.1600E+00
     -9.309  0.0000E+00  0.1600E+00
     -9.223  0.0000E+00  0.1600E+00
     -9.137  0.0000E+00  0.1600E+00
     -9.050  0.0000E+00  0.1600E+00
     -8.964  0.0000E+00  0.1600E+00
     -8.877  0.0000E+00  0.1600E+00
     -8.791  0.0000E+00  0.1600E+00
     -8.705  0.0000E+00  0.1600E+00
     -8.618  0.0000E+00  0.1600E+00
     -8.532  0.0000E+00  0.1600E+00
     -8.446  0.0000E+00  0.1600E+00
     -8.359  0.0000E+00  0.1600E+00
     -8.273  0.0000E+00  0.1600E+00
     -8.186  0.0000E+00  0.1600E+00
     -8.100  0.0000E+00  0.1600E+00
     -8.014  0.0000E+00  0.1600E+00
     -7.927  0.0000E+00  0.1600E+00
     -7.841  0.0000E+00  0.1600E+00
     -7.755  0.0000E+00  0.1600E+00
     -7.668  0.0000E+00  0.1600E+00
     -7.582  0.0000E+00  0.1600E+00
     -7.495  0.0000E+00  0.1600E+00
     -7.409  0.5853E-01  0.1620E+00
     -7.323  0.1711E+00  0.1719E+00
     -7.236  0.2428E+00  0.1906E+00
     -7.150  0.2160E+00  0.2123E+00
     -7.064  0.2336E+00  0.2327E+00
     -6.977  0.2211E+00  0.2535E+00
     -6.891  0.2169E+00  0.2800E+00
     -6.805  0.2318E+00  0.2983E+00
     -6.718  0.7548E-01  0.3204E+00
     -6.632  0.2113E+00  0.3411E+00
     -6.545  0.2681E+00  0.3623E+00
     -6.459  0.2840E+00  0.3988E+00
     -6.373  0.2767E+00  0.4241E+00
     -6.286  0.4942E+00  0.4571E+00
     -6.200  0.5165E+00  0.4973E+00
     -6.114  0.5755E+00  0.5437E+00
     -6.027  0.4319E+00  0.5915E+00
     -5.941  0.3585E+00  0.6163E+00
     -5.854  0.7294E-01  0.6387E+00
     -5.768  0.0000E+00  0.6400E+00
     -5.682  0.0000E+00  0.6400E+00
     -5.595  0.0000E+00  0.6400E+00
     -5.509  0.0000E+00  0.6400E+00
     -5.423  0.0000E+00  0.6400E+00
     -5.336  0.0000E+00  0.6400E+00
     -5.250  0.0000E+00  0.6400E+00
     -5.164  0.0000E+00  0.6400E+00
     -5.077  0.0000E+00  0.6400E+00
     -4.991  0.0000E+00  0.6400E+00
     -4.904  0.0000E+00  0.6400E+00
     -4.818  0.0000E+00  0.6400E+00
     -4.732  0.0000E+00  0.6400E+00
     -4.645  0.0000E+00  0.6400E+00
     -4.559  0.0000E+00  0.6400E+00
     -4.473  0.0000E+00  0.6400E+00
     -4.386  0.0000E+00  0.6400E+00
     -4.300  0.0000E+00  0.6400E+00
     -4.213  0.0000E+00  0.6400E+00
     -4.127  0.0000E+00  0.6400E+00
     -4.041  0.0000E+00  0.6400E+00
     -3.954  0.0000E+00  0.6400E+00
     -3.868  0.0000E+00  0.6400E+00
     -3.782  0.0000E+00  0.6400E+00
     -3.695  0.0000E+00  0.6400E+00
     -3.609  0.0000E+00  0.6400E+00
     -3.522  0.0000E+00  0.6400E+00
     -3.436  0.0000E+00  0.6400E+00
     -3.350  0.0000E+00  0.6400E+00
     -3.263  0.0000E+00  0.6400E+00
     -3.177  0.0000E+00  0.6400E+00
     -3.091  0.0000E+00  0.6400E+00
     -3.004  0.0000E+00  0.6400E+00
     -2.918  0.0000E+00  0.6400E+00
     -2.832  0.0000E+00  0.6400E+00
     -2.745  0.0000E+00  0.6400E+00
     -2.659  0.0000E+00  0.6400E+00
     -2.572  0.0000E+00  0.6400E+00
     -2.486  0.0000E+00  0.6400E+00
     -2.400  0.0000E+00  0.6400E+00
     -2.313  0.0000E+00  0.6400E+00
     -2.227  0.0000E+00  0.6400E+00
     -2.141  0.0000E+00  0.6400E+00
     -2.054  0.0000E+00  0.6400E+00
     -1.968  0.0000E+00  0.6400E+00
     -1.881  0.0000E+00  0.6400E+00
     -1.795  0.0000E+00  0.6400E+00
     -1.709  0.0000E+00  0.6400E+00
     -1.622  0.0000E+00  0.6400E+00
     -1.536  0.0000E+00  0.6400E+00
     -1.450  0.0000E+00  0.6400E+00
     -1.363  0.0000E+00  0.6400E+00
     -1.277  0.0000E+00  0.6400E+00
     -1.190  0.0000E+00  0.6400E+00
     -1.104  0.0000E+00  0.6400E+00
     -1.018  0.0000E+00  0.6400E+00
     -0.931  0.0000E+00  0.6400E+00
     -0.845  0.0000E+00  0.6400E+00
     -0.759  0.0000E+00  0.6400E+00
     -0.672  0.0000E+00  0.6400E+00
     -0.586  0.0000E+00  0.6400E+00
     -0.500  0.0000E+00  0.6400E+00
     -0.413  0.0000E+00  0.6400E+00
     -0.327  0.0000E+00  0.6400E+00
     -0.240  0.0000E+00  0.6400E+00
     -0.154  0.0000E+00  0.6400E+00
     -0.068  0.0000E+00  0.6400E+00
      0.019  0.0000E+00  0.6400E+00
      0.105  0.0000E+00  0.6400E+00
      0.191  0.0000E+00  0.6400E+00
      0.278  0.0000E+00  0.6400E+00
      0.364  0.0000E+00  0.6400E+00
      0.451  0.0000E+00  0.6400E+00
      0.537  0.0000E+00  0.6400E+00
      0.623  0.0000E+00  0.6400E+00
      0.710  0.0000E+00  0.6400E+00
      0.796  0.0000E+00  0.6400E+00
      0.882  0.0000E+00  0.6400E+00
      0.969  0.0000E+00  0.6400E+00
      1.055  0.0000E+00  0.6400E+00
      1.142  0.0000E+00  0.6400E+00
      1.228  0.0000E+00  0.6400E+00
      1.314  0.0000E+00  0.6400E+00
      1.401  0.0000E+00  0.6400E+00
      1.487  0.0000E+00  0.6400E+00
      1.573  0.0000E+00  0.6400E+00
      1.660  0.0000E+00  0.6400E+00
      1.746  0.2536E-03  0.6400E+00
      1.832  0.1959E-02  0.6401E+00
      1.919  0.4576E-02  0.6404E+00
      2.005  0.7102E-02  0.6409E+00
      2.092  0.8426E-02  0.6416E+00
      2.178  0.9502E-02  0.6423E+00
      2.264  0.1080E-01  0.6432E+00
      2.351  0.1221E-01  0.6442E+00
      2.437  0.1426E-01  0.6453E+00
      2.523  0.1714E-01  0.6467E+00
      2.610  0.2106E-01  0.6483E+00
      2.696  0.2578E-01  0.6503E+00
      2.783  0.2959E-01  0.6527E+00
      2.869  0.2570E-01  0.6552E+00
      2.955  0.1983E-01  0.6571E+00
      3.042  0.1984E-01  0.6588E+00
      3.128  0.2194E-01  0.6606E+00
      3.214  0.3137E-01  0.6628E+00
      3.301  0.5871E-01  0.6666E+00
      3.387  0.7763E-01  0.6727E+00
      3.474  0.4676E-01  0.6789E+00
      3.560  0.7792E-01  0.6831E+00
      3.646  0.1773E+00  0.6944E+00
      3.733  0.1225E+00  0.7057E+00
      3.819  0.1007E+00  0.7169E+00
      3.905  0.6317E-01  0.7233E+00
      3.992  0.9178E-01  0.7291E+00
      4.078  0.8685E-01  0.7382E+00
      4.164  0.1502E+00  0.7489E+00
      4.251  0.9676E-01  0.7592E+00
      4.337  0.6437E-01  0.7662E+00
      4.424  0.7244E-01  0.7720E+00
      4.510  0.9035E-01  0.7790E+00
      4.596  0.1542E+00  0.7891E+00
      4.683  0.7163E-01  0.8025E+00
      4.769  0.7984E-01  0.8074E+00
      4.855  0.9683E-01  0.8165E+00
      4.942  0.7801E-01  0.8247E+00
      5.028  0.1435E+00  0.8339E+00
      5.115  0.1477E+00  0.8468E+00
      5.201  0.1173E+00  0.8587E+00
      5.287  0.1091E+00  0.8680E+00
      5.374  0.1095E+00  0.8773E+00
      5.460  0.1236E+00  0.8872E+00
      5.546  0.1216E+00  0.8985E+00
      5.633  0.1040E+00  0.9076E+00
      5.719  0.8813E-01  0.9168E+00
      5.806  0.1244E+00  0.9249E+00
      5.892  0.1233E+00  0.9374E+00
      5.978  0.1114E+00  0.9495E+00
      6.065  0.6747E-01  0.9571E+00
      6.151  0.5398E-01  0.9615E+00
      6.237  0.9693E-01  0.9698E+00
      6.324  0.1021E+00  0.9786E+00
      6.410  0.8034E-01  0.9862E+00
      6.496  0.1161E+00  0.9938E+00
      6.583  0.1314E+00  0.1005E+01
      6.669  0.1341E+00  0.1015E+01
      6.756  0.1288E+00  0.1028E+01
      6.842  0.7186E-01  0.1035E+01
      6.928  0.1053E+00  0.1043E+01
      7.015  0.9857E-01  0.1052E+01
      7.101  0.4806E-01  0.1058E+01
      7.187  0.9279E-02  0.1060E+01
      7.274  0.0000E+00  0.1060E+01
      7.360  0.0000E+00  0.1060E+01
      7.447  0.0000E+00  0.1060E+01
      7.533  0.0000E+00  0.1060E+01
      7.619  0.0000E+00  0.1060E+01
      7.706  0.0000E+00  0.1060E+01
      7.792  0.0000E+00  0.1060E+01
      7.878  0.0000E+00  0.1060E+01
      7.965  0.0000E+00  0.1060E+01
      8.051  0.0000E+00  0.1060E+01
      8.138  0.0000E+00  0.1060E+01
      8.224  0.0000E+00  0.1060E+01
      8.310  0.0000E+00  0.1060E+01
      8.397  0.0000E+00  0.1060E+01
      8.483  0.0000E+00  0.1060E+01
      8.569  0.0000E+00  0.1060E+01
      8.656  0.0000E+00  0.1060E+01
      8.742  0.0000E+00  0.1060E+01
      8.828  0.0000E+00  0.1060E+01
      8.915  0.0000E+00  0.1060E+01
      9.001  0.0000E+00  0.1060E+01
      9.088  0.0000E+00  0.1060E+01
      9.174  0.0000E+00  0.1060E+01
      9.260  0.0000E+00  0.1060E+01
