  72  72   0   0
  0.1002668E+02  0.1138697E-08  0.7964821E-09  0.7959862E-09  0.5000000E-15
  1.000000000000000E-004
  CAR 
 diamond                                 
      8.52381057    -16.58076861  301     -1.81090786      1.00000000
    -16.581  0.0000E+00  0.0000E+00
    -16.497  0.0000E+00  0.0000E+00
    -16.413  0.0000E+00  0.0000E+00
    -16.330  0.0000E+00  0.0000E+00
    -16.246  0.0000E+00  0.0000E+00
    -16.162  0.0000E+00  0.0000E+00
    -16.079  0.0000E+00  0.0000E+00
    -15.995  0.0000E+00  0.0000E+00
    -15.911  0.0000E+00  0.0000E+00
    -15.828  0.0000E+00  0.0000E+00
    -15.744  0.0000E+00  0.0000E+00
    -15.660  0.0000E+00  0.0000E+00
    -15.577  0.0000E+00  0.0000E+00
    -15.493  0.0000E+00  0.0000E+00
    -15.409  0.0000E+00  0.0000E+00
    -15.326  0.0000E+00  0.0000E+00
    -15.242  0.0000E+00  0.0000E+00
    -15.158  0.0000E+00  0.0000E+00
    -15.074  0.0000E+00  0.0000E+00
    -14.991  0.0000E+00  0.0000E+00
    -14.907  0.0000E+00  0.0000E+00
    -14.823  0.0000E+00  0.0000E+00
    -14.740  0.0000E+00  0.0000E+00
    -14.656  0.0000E+00  0.0000E+00
    -14.572  0.1523E-02  0.4248E-05
    -14.489  0.5931E-01  0.2855E-02
    -14.405  0.1931E+00  0.1149E-01
    -14.321  0.1681E+00  0.2243E-01
    -14.238  0.1951E+00  0.4141E-01
    -14.154  0.2144E+00  0.6712E-01
    -14.070  0.0000E+00  0.8000E-01
    -13.987  0.8535E-01  0.8249E-01
    -13.903  0.3706E+00  0.1041E+00
    -13.819  0.3989E+00  0.1463E+00
    -13.736  0.0000E+00  0.1600E+00
    -13.652  0.0000E+00  0.1600E+00
    -13.568  0.0000E+00  0.1600E+00
    -13.485  0.0000E+00  0.1600E+00
    -13.401  0.0000E+00  0.1600E+00
    -13.317  0.0000E+00  0.1600E+00
    -13.233  0.0000E+00  0.1600E+00
    -13.150  0.0000E+00  0.1600E+00
    -13.066  0.0000E+00  0.1600E+00
    -12.982  0.0000E+00  0.1600E+00
    -12.899  0.0000E+00  0.1600E+00
    -12.815  0.0000E+00  0.1600E+00
    -12.731  0.0000E+00  0.1600E+00
    -12.648  0.0000E+00  0.1600E+00
    -12.564  0.0000E+00  0.1600E+00
    -12.480  0.0000E+00  0.1600E+00
    -12.397  0.0000E+00  0.1600E+00
    -12.313  0.0000E+00  0.1600E+00
    -12.229  0.0000E+00  0.1600E+00
    -12.146  0.0000E+00  0.1600E+00
    -12.062  0.0000E+00  0.1600E+00
    -11.978  0.0000E+00  0.1600E+00
    -11.895  0.0000E+00  0.1600E+00
    -11.811  0.0000E+00  0.1600E+00
    -11.727  0.0000E+00  0.1600E+00
    -11.644  0.0000E+00  0.1600E+00
    -11.560  0.0000E+00  0.1600E+00
    -11.476  0.0000E+00  0.1600E+00
    -11.392  0.0000E+00  0.1600E+00
    -11.309  0.0000E+00  0.1600E+00
    -11.225  0.0000E+00  0.1600E+00
    -11.141  0.0000E+00  0.1600E+00
    -11.058  0.0000E+00  0.1600E+00
    -10.974  0.0000E+00  0.1600E+00
    -10.890  0.0000E+00  0.1600E+00
    -10.807  0.0000E+00  0.1600E+00
    -10.723  0.0000E+00  0.1600E+00
    -10.639  0.0000E+00  0.1600E+00
    -10.556  0.0000E+00  0.1600E+00
    -10.472  0.0000E+00  0.1600E+00
    -10.388  0.0000E+00  0.1600E+00
    -10.305  0.0000E+00  0.1600E+00
    -10.221  0.0000E+00  0.1600E+00
    -10.137  0.0000E+00  0.1600E+00
    -10.054  0.0000E+00  0.1600E+00
     -9.970  0.0000E+00  0.1600E+00
     -9.886  0.0000E+00  0.1600E+00
     -9.803  0.0000E+00  0.1600E+00
     -9.719  0.0000E+00  0.1600E+00
     -9.635  0.0000E+00  0.1600E+00
     -9.551  0.0000E+00  0.1600E+00
     -9.468  0.0000E+00  0.1600E+00
     -9.384  0.0000E+00  0.1600E+00
     -9.300  0.0000E+00  0.1600E+00
     -9.217  0.0000E+00  0.1600E+00
     -9.133  0.0000E+00  0.1600E+00
     -9.049  0.0000E+00  0.1600E+00
     -8.966  0.0000E+00  0.1600E+00
     -8.882  0.0000E+00  0.1600E+00
     -8.798  0.0000E+00  0.1600E+00
     -8.715  0.0000E+00  0.1600E+00
     -8.631  0.0000E+00  0.1600E+00
     -8.547  0.0000E+00  0.1600E+00
     -8.464  0.0000E+00  0.1600E+00
     -8.380  0.0000E+00  0.1600E+00
     -8.296  0.0000E+00  0.1600E+00
     -8.213  0.0000E+00  0.1600E+00
     -8.129  0.0000E+00  0.1600E+00
     -8.045  0.2484E-02  0.1600E+00
     -7.962  0.4070E-01  0.1617E+00
     -7.878  0.2229E+00  0.1702E+00
     -7.794  0.3562E+00  0.1919E+00
     -7.710  0.3017E+00  0.2211E+00
     -7.627  0.2521E+00  0.2480E+00
     -7.543  0.2489E+00  0.2689E+00
     -7.459  0.1375E+00  0.2851E+00
     -7.376  0.9195E-01  0.2931E+00
     -7.292  0.1281E+00  0.3014E+00
     -7.208  0.1630E+00  0.3145E+00
     -7.125  0.0000E+00  0.3200E+00
     -7.041  0.5705E-03  0.3200E+00
     -6.957  0.3987E-01  0.3211E+00
     -6.874  0.1873E+00  0.3310E+00
     -6.790  0.2927E+00  0.3543E+00
     -6.706  0.2774E+00  0.3777E+00
     -6.623  0.3327E+00  0.4088E+00
     -6.539  0.2712E+00  0.4443E+00
     -6.455  0.3398E+00  0.4826E+00
     -6.372  0.2967E+00  0.5106E+00
     -6.288  0.3456E+00  0.5383E+00
     -6.204  0.9165E-01  0.5572E+00
     -6.121  0.0000E+00  0.5600E+00
     -6.037  0.0000E+00  0.5600E+00
     -5.953  0.0000E+00  0.5600E+00
     -5.869  0.0000E+00  0.5600E+00
     -5.786  0.0000E+00  0.5600E+00
     -5.702  0.0000E+00  0.5600E+00
     -5.618  0.0000E+00  0.5600E+00
     -5.535  0.0000E+00  0.5600E+00
     -5.451  0.0000E+00  0.5600E+00
     -5.367  0.0000E+00  0.5600E+00
     -5.284  0.0000E+00  0.5600E+00
     -5.200  0.0000E+00  0.5600E+00
     -5.116  0.0000E+00  0.5600E+00
     -5.033  0.0000E+00  0.5600E+00
     -4.949  0.0000E+00  0.5600E+00
     -4.865  0.0000E+00  0.5600E+00
     -4.782  0.0000E+00  0.5600E+00
     -4.698  0.0000E+00  0.5600E+00
     -4.614  0.0000E+00  0.5600E+00
     -4.531  0.0000E+00  0.5600E+00
     -4.447  0.0000E+00  0.5600E+00
     -4.363  0.0000E+00  0.5600E+00
     -4.280  0.0000E+00  0.5600E+00
     -4.196  0.0000E+00  0.5600E+00
     -4.112  0.0000E+00  0.5600E+00
     -4.028  0.0000E+00  0.5600E+00
     -3.945  0.0000E+00  0.5600E+00
     -3.861  0.0000E+00  0.5600E+00
     -3.777  0.0000E+00  0.5600E+00
     -3.694  0.0000E+00  0.5600E+00
     -3.610  0.0000E+00  0.5600E+00
     -3.526  0.0000E+00  0.5600E+00
     -3.443  0.0000E+00  0.5600E+00
     -3.359  0.0000E+00  0.5600E+00
     -3.275  0.0000E+00  0.5600E+00
     -3.192  0.0000E+00  0.5600E+00
     -3.108  0.0000E+00  0.5600E+00
     -3.024  0.0000E+00  0.5600E+00
     -2.941  0.0000E+00  0.5600E+00
     -2.857  0.0000E+00  0.5600E+00
     -2.773  0.0000E+00  0.5600E+00
     -2.690  0.0000E+00  0.5600E+00
     -2.606  0.0000E+00  0.5600E+00
     -2.522  0.0000E+00  0.5600E+00
     -2.439  0.8946E-03  0.5600E+00
     -2.355  0.1696E-01  0.5607E+00
     -2.271  0.4033E-01  0.5631E+00
     -2.187  0.8667E-01  0.5684E+00
     -2.104  0.1155E+00  0.5776E+00
     -2.020  0.8750E-01  0.5862E+00
     -1.936  0.8153E-01  0.5931E+00
     -1.853  0.5052E-01  0.5990E+00
     -1.769  0.0000E+00  0.6000E+00
     -1.685  0.6523E-01  0.6037E+00
     -1.602  0.6524E-01  0.6092E+00
     -1.518  0.6526E-01  0.6146E+00
     -1.434  0.8358E-01  0.6205E+00
     -1.351  0.1192E+00  0.6295E+00
     -1.267  0.9124E-01  0.6393E+00
     -1.183  0.0000E+00  0.6400E+00
     -1.100  0.0000E+00  0.6400E+00
     -1.016  0.0000E+00  0.6400E+00
     -0.932  0.0000E+00  0.6400E+00
     -0.849  0.0000E+00  0.6400E+00
     -0.765  0.0000E+00  0.6400E+00
     -0.681  0.0000E+00  0.6400E+00
     -0.598  0.0000E+00  0.6400E+00
     -0.514  0.0000E+00  0.6400E+00
     -0.430  0.0000E+00  0.6400E+00
     -0.346  0.0000E+00  0.6400E+00
     -0.263  0.0000E+00  0.6400E+00
     -0.179  0.0000E+00  0.6400E+00
     -0.095  0.0000E+00  0.6400E+00
     -0.012  0.0000E+00  0.6400E+00
      0.072  0.0000E+00  0.6400E+00
      0.156  0.0000E+00  0.6400E+00
      0.239  0.0000E+00  0.6400E+00
      0.323  0.0000E+00  0.6400E+00
      0.407  0.0000E+00  0.6400E+00
      0.490  0.0000E+00  0.6400E+00
      0.574  0.0000E+00  0.6400E+00
      0.658  0.0000E+00  0.6400E+00
      0.741  0.0000E+00  0.6400E+00
      0.825  0.0000E+00  0.6400E+00
      0.909  0.0000E+00  0.6400E+00
      0.992  0.0000E+00  0.6400E+00
      1.076  0.0000E+00  0.6400E+00
      1.160  0.0000E+00  0.6400E+00
      1.243  0.0000E+00  0.6400E+00
      1.327  0.0000E+00  0.6400E+00
      1.411  0.0000E+00  0.6400E+00
      1.495  0.0000E+00  0.6400E+00
      1.578  0.0000E+00  0.6400E+00
      1.662  0.0000E+00  0.6400E+00
      1.746  0.0000E+00  0.6400E+00
      1.829  0.2382E-03  0.6400E+00
      1.913  0.1851E-02  0.6401E+00
      1.997  0.4364E-02  0.6403E+00
      2.080  0.7076E-02  0.6408E+00
      2.164  0.8488E-02  0.6415E+00
      2.248  0.9635E-02  0.6422E+00
      2.331  0.1103E-01  0.6431E+00
      2.415  0.1251E-01  0.6441E+00
      2.499  0.1461E-01  0.6452E+00
      2.582  0.1757E-01  0.6466E+00
      2.666  0.2188E-01  0.6482E+00
      2.750  0.2821E-01  0.6503E+00
      2.833  0.3478E-01  0.6529E+00
      2.917  0.2897E-01  0.6556E+00
      3.001  0.2287E-01  0.6578E+00
      3.084  0.2567E-01  0.6597E+00
      3.168  0.3664E-01  0.6622E+00
      3.252  0.6420E-01  0.6664E+00
      3.336  0.9113E-01  0.6733E+00
      3.419  0.9251E-01  0.6805E+00
      3.503  0.9672E-01  0.6855E+00
      3.587  0.8531E-01  0.6950E+00
      3.670  0.6567E-01  0.7006E+00
      3.754  0.7990E-01  0.7072E+00
      3.838  0.7284E-01  0.7136E+00
      3.921  0.5232E-01  0.7186E+00
      4.005  0.3579E-01  0.7221E+00
      4.089  0.6696E-01  0.7260E+00
      4.172  0.1035E+00  0.7333E+00
      4.256  0.8926E-01  0.7412E+00
      4.340  0.8833E-01  0.7484E+00
      4.423  0.1051E+00  0.7564E+00
      4.507  0.8872E-01  0.7649E+00
      4.591  0.1083E+00  0.7729E+00
      4.674  0.1619E+00  0.7844E+00
      4.758  0.8904E-01  0.7970E+00
      4.842  0.5945E-01  0.8010E+00
      4.925  0.1566E+00  0.8114E+00
      5.009  0.1292E+00  0.8246E+00
      5.093  0.1024E+00  0.8347E+00
      5.177  0.6715E-01  0.8403E+00
      5.260  0.1927E+00  0.8514E+00
      5.344  0.1399E+00  0.8664E+00
      5.428  0.9252E-01  0.8751E+00
      5.511  0.1380E+00  0.8862E+00
      5.595  0.1191E+00  0.8972E+00
      5.679  0.8684E-01  0.9056E+00
      5.762  0.1046E+00  0.9146E+00
      5.846  0.1117E+00  0.9211E+00
      5.930  0.1746E+00  0.9395E+00
      6.013  0.9598E-01  0.9493E+00
      6.097  0.1149E+00  0.9591E+00
      6.181  0.9179E-01  0.9675E+00
      6.264  0.6444E-01  0.9742E+00
      6.348  0.3134E-01  0.9783E+00
      6.432  0.5270E-02  0.9799E+00
      6.515  0.3756E-04  0.9800E+00
      6.599  0.0000E+00  0.9800E+00
      6.683  0.0000E+00  0.9800E+00
      6.766  0.0000E+00  0.9800E+00
      6.850  0.0000E+00  0.9800E+00
      6.934  0.0000E+00  0.9800E+00
      7.018  0.0000E+00  0.9800E+00
      7.101  0.0000E+00  0.9800E+00
      7.185  0.0000E+00  0.9800E+00
      7.269  0.0000E+00  0.9800E+00
      7.352  0.0000E+00  0.9800E+00
      7.436  0.0000E+00  0.9800E+00
      7.520  0.0000E+00  0.9800E+00
      7.603  0.0000E+00  0.9800E+00
      7.687  0.0000E+00  0.9800E+00
      7.771  0.0000E+00  0.9800E+00
      7.854  0.0000E+00  0.9800E+00
      7.938  0.0000E+00  0.9800E+00
      8.022  0.0000E+00  0.9800E+00
      8.105  0.0000E+00  0.9800E+00
      8.189  0.0000E+00  0.9800E+00
      8.273  0.0000E+00  0.9800E+00
      8.356  0.0000E+00  0.9800E+00
      8.440  0.0000E+00  0.9800E+00
      8.524  0.0000E+00  0.9800E+00
