   2   2   0   0
  0.5825095E+01  0.2544579E-09  0.2544579E-09  0.2544579E-09  0.5000000E-15
  1.000000000000000E-004
  CAR 
 graphite                                
     27.77252532    -13.74765710  301      9.50580756      1.00000000
    -13.748  0.0000E+00  0.0000E+00
    -13.609  0.0000E+00  0.0000E+00
    -13.471  0.0000E+00  0.0000E+00
    -13.332  0.0000E+00  0.0000E+00
    -13.194  0.0000E+00  0.0000E+00
    -13.056  0.0000E+00  0.0000E+00
    -12.917  0.0000E+00  0.0000E+00
    -12.779  0.0000E+00  0.0000E+00
    -12.640  0.0000E+00  0.0000E+00
    -12.502  0.0000E+00  0.0000E+00
    -12.364  0.0000E+00  0.0000E+00
    -12.225  0.0000E+00  0.0000E+00
    -12.087  0.0000E+00  0.0000E+00
    -11.948  0.0000E+00  0.0000E+00
    -11.810  0.0000E+00  0.0000E+00
    -11.672  0.2770E-04  0.7019E-06
    -11.533  0.2050E-03  0.1559E-04
    -11.395  0.3091E-03  0.5186E-04
    -11.256  0.3606E-03  0.9791E-04
    -11.118  0.4270E-03  0.1525E-03
    -10.980  0.4766E-03  0.2154E-03
    -10.841  0.5182E-03  0.2841E-03
    -10.703  0.5687E-03  0.3593E-03
    -10.564  0.6230E-03  0.4417E-03
    -10.426  0.6573E-03  0.5302E-03
    -10.288  0.6931E-03  0.6237E-03
    -10.149  0.7226E-03  0.7218E-03
    -10.011  0.7526E-03  0.8238E-03
     -9.872  0.7875E-03  0.9303E-03
     -9.734  0.8224E-03  0.1042E-02
     -9.596  0.8548E-03  0.1158E-02
     -9.457  0.8860E-03  0.1278E-02
     -9.319  0.9208E-03  0.1403E-02
     -9.180  0.9568E-03  0.1533E-02
     -9.042  0.9836E-03  0.1668E-02
     -8.904  0.1010E-02  0.1806E-02
     -8.765  0.1037E-02  0.1947E-02
     -8.627  0.1065E-02  0.2093E-02
     -8.488  0.1093E-02  0.2242E-02
     -8.350  0.1121E-02  0.2395E-02
     -8.212  0.1151E-02  0.2553E-02
     -8.073  0.1182E-02  0.2714E-02
     -7.935  0.1214E-02  0.2880E-02
     -7.796  0.1248E-02  0.3050E-02
     -7.658  0.1282E-02  0.3225E-02
     -7.520  0.1316E-02  0.3405E-02
     -7.381  0.1353E-02  0.3590E-02
     -7.243  0.1391E-02  0.3780E-02
     -7.104  0.1434E-02  0.3975E-02
     -6.966  0.1483E-02  0.4177E-02
     -6.828  0.1539E-02  0.4386E-02
     -6.689  0.1610E-02  0.4604E-02
     -6.551  0.1714E-02  0.4833E-02
     -6.412  0.1835E-02  0.5079E-02
     -6.274  0.1981E-02  0.5342E-02
     -6.136  0.2134E-02  0.5636E-02
     -5.997  0.1939E-02  0.5912E-02
     -5.859  0.1893E-02  0.6177E-02
     -5.720  0.1872E-02  0.6437E-02
     -5.582  0.1859E-02  0.6696E-02
     -5.444  0.1783E-02  0.6948E-02
     -5.305  0.1713E-02  0.7190E-02
     -5.167  0.1684E-02  0.7423E-02
     -5.028  0.1669E-02  0.7658E-02
     -4.890  0.1590E-02  0.7883E-02
     -4.752  0.1509E-02  0.8098E-02
     -4.613  0.1470E-02  0.8304E-02
     -4.475  0.1455E-02  0.8506E-02
     -4.336  0.1465E-02  0.8707E-02
     -4.198  0.1469E-02  0.8911E-02
     -4.060  0.1446E-02  0.9112E-02
     -3.921  0.1409E-02  0.9310E-02
     -3.783  0.1287E-02  0.9498E-02
     -3.644  0.1104E-02  0.9664E-02
     -3.506  0.9235E-03  0.9804E-02
     -3.368  0.5753E-03  0.9908E-02
     -3.229  0.5485E-03  0.9983E-02
     -3.091  0.6190E-03  0.1006E-01
     -2.952  0.7709E-03  0.1016E-01
     -2.814  0.8899E-03  0.1027E-01
     -2.676  0.9856E-03  0.1040E-01
     -2.537  0.1176E-02  0.1055E-01
     -2.399  0.1485E-02  0.1073E-01
     -2.260  0.1974E-02  0.1097E-01
     -2.122  0.2702E-02  0.1129E-01
     -1.984  0.3432E-02  0.1172E-01
     -1.845  0.3870E-02  0.1223E-01
     -1.707  0.3734E-02  0.1276E-01
     -1.568  0.3080E-02  0.1324E-01
     -1.430  0.2601E-02  0.1363E-01
     -1.292  0.2284E-02  0.1396E-01
     -1.153  0.2058E-02  0.1426E-01
     -1.015  0.1866E-02  0.1453E-01
     -0.876  0.1740E-02  0.1478E-01
     -0.738  0.1625E-02  0.1502E-01
     -0.600  0.1532E-02  0.1523E-01
     -0.461  0.1471E-02  0.1544E-01
     -0.323  0.1424E-02  0.1564E-01
     -0.184  0.1387E-02  0.1584E-01
     -0.046  0.1335E-02  0.1602E-01
      0.092  0.1272E-02  0.1621E-01
      0.231  0.1199E-02  0.1638E-01
      0.369  0.1146E-02  0.1654E-01
      0.508  0.1301E-02  0.1670E-01
      0.646  0.1625E-02  0.1690E-01
      0.784  0.2052E-02  0.1716E-01
      0.923  0.2624E-02  0.1748E-01
      1.061  0.2978E-02  0.1787E-01
      1.200  0.2974E-02  0.1829E-01
      1.338  0.2808E-02  0.1869E-01
      1.476  0.2767E-02  0.1908E-01
      1.615  0.2757E-02  0.1946E-01
      1.753  0.2740E-02  0.1984E-01
      1.892  0.2692E-02  0.2022E-01
      2.030  0.2681E-02  0.2059E-01
      2.168  0.2721E-02  0.2096E-01
      2.307  0.2780E-02  0.2134E-01
      2.445  0.2835E-02  0.2173E-01
      2.584  0.3046E-02  0.2214E-01
      2.722  0.3172E-02  0.2257E-01
      2.860  0.3325E-02  0.2302E-01
      2.999  0.3461E-02  0.2349E-01
      3.137  0.3692E-02  0.2398E-01
      3.276  0.4047E-02  0.2452E-01
      3.414  0.4263E-02  0.2509E-01
      3.552  0.4126E-02  0.2568E-01
      3.691  0.4049E-02  0.2624E-01
      3.829  0.4006E-02  0.2680E-01
      3.968  0.4001E-02  0.2735E-01
      4.106  0.3963E-02  0.2791E-01
      4.244  0.3927E-02  0.2845E-01
      4.383  0.3891E-02  0.2899E-01
      4.521  0.3839E-02  0.2953E-01
      4.660  0.3786E-02  0.3006E-01
      4.798  0.3758E-02  0.3058E-01
      4.936  0.3731E-02  0.3110E-01
      5.075  0.3702E-02  0.3161E-01
      5.213  0.3658E-02  0.3212E-01
      5.352  0.3618E-02  0.3262E-01
      5.490  0.3590E-02  0.3312E-01
      5.628  0.3562E-02  0.3362E-01
      5.767  0.3526E-02  0.3411E-01
      5.905  0.3493E-02  0.3459E-01
      6.044  0.3472E-02  0.3508E-01
      6.182  0.3425E-02  0.3555E-01
      6.320  0.3353E-02  0.3602E-01
      6.459  0.3213E-02  0.3648E-01
      6.597  0.2863E-02  0.3691E-01
      6.736  0.2429E-02  0.3727E-01
      6.874  0.2153E-02  0.3759E-01
      7.012  0.1944E-02  0.3787E-01
      7.151  0.1773E-02  0.3813E-01
      7.289  0.1656E-02  0.3836E-01
      7.428  0.1533E-02  0.3858E-01
      7.566  0.1393E-02  0.3879E-01
      7.704  0.1245E-02  0.3897E-01
      7.843  0.1135E-02  0.3913E-01
      7.981  0.1026E-02  0.3928E-01
      8.120  0.9196E-03  0.3942E-01
      8.258  0.8158E-03  0.3954E-01
      8.396  0.7265E-03  0.3964E-01
      8.535  0.6483E-03  0.3974E-01
      8.673  0.5528E-03  0.3982E-01
      8.812  0.4949E-03  0.3990E-01
      8.950  0.3258E-03  0.3995E-01
      9.088  0.1487E-03  0.3999E-01
      9.227  0.3916E-04  0.4000E-01
      9.365  0.8367E-07  0.4000E-01
      9.504  0.0000E+00  0.4000E-01
      9.642  0.0000E+00  0.4000E-01
      9.780  0.0000E+00  0.4000E-01
      9.919  0.0000E+00  0.4000E-01
     10.057  0.0000E+00  0.4000E-01
     10.196  0.0000E+00  0.4000E-01
     10.334  0.0000E+00  0.4000E-01
     10.472  0.0000E+00  0.4000E-01
     10.611  0.0000E+00  0.4000E-01
     10.749  0.0000E+00  0.4000E-01
     10.888  0.0000E+00  0.4000E-01
     11.026  0.0000E+00  0.4000E-01
     11.164  0.0000E+00  0.4000E-01
     11.303  0.0000E+00  0.4000E-01
     11.441  0.0000E+00  0.4000E-01
     11.580  0.0000E+00  0.4000E-01
     11.718  0.0000E+00  0.4000E-01
     11.856  0.0000E+00  0.4000E-01
     11.995  0.0000E+00  0.4000E-01
     12.133  0.0000E+00  0.4000E-01
     12.272  0.0000E+00  0.4000E-01
     12.410  0.0000E+00  0.4000E-01
     12.548  0.0000E+00  0.4000E-01
     12.687  0.0000E+00  0.4000E-01
     12.825  0.0000E+00  0.4000E-01
     12.964  0.0000E+00  0.4000E-01
     13.102  0.0000E+00  0.4000E-01
     13.240  0.0000E+00  0.4000E-01
     13.379  0.0000E+00  0.4000E-01
     13.517  0.4566E-05  0.4000E-01
     13.656  0.8970E-04  0.4000E-01
     13.794  0.2973E-03  0.4003E-01
     13.932  0.5390E-03  0.4009E-01
     14.071  0.7938E-03  0.4018E-01
     14.209  0.9660E-03  0.4030E-01
     14.348  0.1118E-02  0.4045E-01
     14.486  0.1269E-02  0.4061E-01
     14.624  0.1475E-02  0.4080E-01
     14.763  0.1665E-02  0.4102E-01
     14.901  0.1902E-02  0.4127E-01
     15.040  0.2169E-02  0.4155E-01
     15.178  0.2377E-02  0.4186E-01
     15.316  0.2424E-02  0.4219E-01
     15.455  0.2545E-02  0.4254E-01
     15.593  0.2675E-02  0.4290E-01
     15.732  0.2781E-02  0.4328E-01
     15.870  0.2899E-02  0.4367E-01
     16.008  0.3003E-02  0.4408E-01
     16.147  0.3134E-02  0.4450E-01
     16.285  0.3283E-02  0.4495E-01
     16.424  0.3465E-02  0.4541E-01
     16.562  0.3697E-02  0.4591E-01
     16.700  0.4021E-02  0.4644E-01
     16.839  0.4578E-02  0.4703E-01
     16.977  0.5247E-02  0.4771E-01
     17.116  0.5858E-02  0.4848E-01
     17.254  0.6488E-02  0.4934E-01
     17.392  0.6297E-02  0.5024E-01
     17.531  0.4703E-02  0.5101E-01
     17.669  0.3355E-02  0.5156E-01
     17.808  0.3224E-02  0.5200E-01
     17.946  0.3809E-02  0.5248E-01
     18.084  0.4403E-02  0.5306E-01
     18.223  0.4772E-02  0.5370E-01
     18.361  0.4713E-02  0.5436E-01
     18.500  0.4559E-02  0.5500E-01
     18.638  0.4604E-02  0.5563E-01
     18.776  0.4966E-02  0.5629E-01
     18.915  0.5257E-02  0.5699E-01
     19.053  0.5141E-02  0.5771E-01
     19.192  0.4919E-02  0.5841E-01
     19.330  0.4771E-02  0.5908E-01
     19.468  0.4594E-02  0.5973E-01
     19.607  0.4254E-02  0.6034E-01
     19.745  0.3885E-02  0.6090E-01
     19.884  0.3557E-02  0.6142E-01
     20.022  0.4289E-02  0.6193E-01
     20.160  0.3075E-02  0.6240E-01
     20.299  0.2745E-02  0.6281E-01
     20.437  0.2449E-02  0.6316E-01
     20.576  0.2269E-02  0.6349E-01
     20.714  0.2136E-02  0.6380E-01
     20.852  0.2161E-02  0.6409E-01
     20.991  0.2346E-02  0.6440E-01
     21.129  0.2680E-02  0.6475E-01
     21.268  0.2888E-02  0.6514E-01
     21.406  0.3666E-02  0.6556E-01
     21.544  0.4113E-02  0.6610E-01
     21.683  0.4277E-02  0.6668E-01
     21.821  0.4480E-02  0.6729E-01
     21.960  0.4620E-02  0.6792E-01
     22.098  0.4378E-02  0.6854E-01
     22.237  0.4802E-02  0.6916E-01
     22.375  0.5113E-02  0.6988E-01
     22.513  0.4968E-02  0.7057E-01
     22.652  0.4305E-02  0.7123E-01
     22.790  0.3829E-02  0.7179E-01
     22.929  0.3861E-02  0.7231E-01
     23.067  0.4084E-02  0.7286E-01
     23.205  0.4570E-02  0.7346E-01
     23.344  0.5211E-02  0.7414E-01
     23.482  0.5533E-02  0.7488E-01
     23.621  0.5358E-02  0.7564E-01
     23.759  0.4907E-02  0.7636E-01
     23.897  0.4170E-02  0.7699E-01
     24.036  0.3478E-02  0.7752E-01
     24.174  0.3034E-02  0.7796E-01
     24.313  0.2702E-02  0.7836E-01
     24.451  0.2502E-02  0.7872E-01
     24.589  0.2350E-02  0.7906E-01
     24.728  0.1742E-02  0.7936E-01
     24.866  0.1065E-02  0.7953E-01
     25.005  0.9482E-03  0.7967E-01
     25.143  0.8431E-03  0.7979E-01
     25.281  0.6304E-03  0.7990E-01
     25.420  0.3266E-03  0.7996E-01
     25.558  0.1206E-03  0.7999E-01
     25.697  0.1516E-04  0.8000E-01
     25.835  0.0000E+00  0.8000E-01
     25.973  0.0000E+00  0.8000E-01
     26.112  0.0000E+00  0.8000E-01
     26.250  0.0000E+00  0.8000E-01
     26.389  0.0000E+00  0.8000E-01
     26.527  0.0000E+00  0.8000E-01
     26.665  0.0000E+00  0.8000E-01
     26.804  0.0000E+00  0.8000E-01
     26.942  0.0000E+00  0.8000E-01
     27.081  0.0000E+00  0.8000E-01
     27.219  0.0000E+00  0.8000E-01
     27.357  0.0000E+00  0.8000E-01
     27.496  0.0000E+00  0.8000E-01
     27.634  0.0000E+00  0.8000E-01
     27.773  0.0000E+00  0.8000E-01
