   80   80  200    1
  0.9024016E+01  0.1138697E-08  0.7964821E-09  0.7959862E-09  0.5000000E-15
  1.000000000000000E-004
  CAR 
 diamond                                 
    128     27    106
 
  0.0000000E+00  0.0000000E+00  0.0000000E+00  0.1562500E-01
    1      -14.650959
    2      -14.356128
    3      -14.314854
    4      -14.289051
    5      -14.185997
    6      -14.175652
    7      -14.127854
    8      -14.116030
    9      -14.110407
   10      -14.063212
   11      -14.056153
   12      -14.055628
   13      -13.966371
   14      -13.958944
   15      -13.895687
   16      -13.801339
   17       -7.453671
   18       -7.438321
   19       -7.405577
   20       -7.384191
   21       -7.280484
   22       -7.208848
   23       -7.185750
   24       -7.004488
   25       -6.974343
   26       -6.958822
   27       -6.932947
   28       -6.929962
   29       -6.912601
   30       -6.859186
   31       -6.775494
   32       -6.714544
   33       -6.646847
   34       -6.644891
   35       -6.608471
   36       -6.564291
   37       -6.526759
   38       -6.492301
   39       -6.488617
   40       -6.455001
   41       -6.346308
   42       -6.338545
   43       -6.318962
   44       -6.318644
   45       -6.313321
   46       -6.312354
   47       -6.250370
   48       -6.249149
   49       -6.236677
   50       -6.180165
   51       -6.120103
   52       -6.118187
   53       -6.117457
   54       -6.098341
   55       -6.088734
   56       -6.066307
   57       -6.065382
   58       -6.040422
   59       -5.976443
   60       -5.968740
   61       -5.940084
   62       -5.894165
   63       -5.878731
   64       -5.799876
   65        1.698309
   66        2.992927
   67        3.095335
   68        3.358712
   69        3.522412
   70        3.548667
   71        3.651539
   72        3.677455
   73        3.975541
   74        4.150266
   75        4.195763
   76        4.207208
   77        4.223079
   78        4.273277
   79        4.365987
   80        4.367217
   81        4.374865
   82        4.625597
   83        4.935868
   84        5.255600
   85        5.281082
   86        5.427005
   87        5.535527
   88        5.572043
   89        5.609832
   90        5.675625
   91        5.737445
   92        5.795471
   93        5.954291
   94        6.022937
   95        6.116508
   96        6.230495
   97        6.268050
   98        6.280130
   99        6.491898
  100        6.511724
  101        6.556330
  102        6.698551
  103        6.802428
  104        6.913041
  105        7.014050
  106        7.023997
 
  0.2500000E+00  0.0000000E+00  0.0000000E+00  0.3125000E-01
    1      -14.625984
    2      -14.441602
    3      -14.337115
    4      -14.199687
    5      -14.184500
    6      -14.177154
    7      -14.154150
    8      -14.120646
    9      -14.112195
   10      -14.056105
   11      -14.055698
   12      -13.981076
   13      -13.965216
   14      -13.960383
   15      -13.928800
   16      -13.824362
   17       -7.457474
   18       -7.392474
   19       -7.376042
   20       -7.364049
   21       -7.327778
   22       -7.183002
   23       -7.078163
   24       -7.063650
   25       -7.027229
   26       -7.008104
   27       -6.944266
   28       -6.942234
   29       -6.928347
   30       -6.890405
   31       -6.819591
   32       -6.816208
   33       -6.634894
   34       -6.614047
   35       -6.611008
   36       -6.596268
   37       -6.518013
   38       -6.490411
   39       -6.483162
   40       -6.366370
   41       -6.348864
   42       -6.347122
   43       -6.336964
   44       -6.323135
   45       -6.266159
   46       -6.262583
   47       -6.246978
   48       -6.194148
   49       -6.151897
   50       -6.126349
   51       -6.121724
   52       -6.118615
   53       -6.111871
   54       -6.100409
   55       -6.082088
   56       -6.067383
   57       -6.061496
   58       -6.028441
   59       -6.016226
   60       -5.984648
   61       -5.945534
   62       -5.939356
   63       -5.912196
   64       -5.856963
   65        1.804360
   66        2.539786
   67        3.344326
   68        3.455264
   69        3.514119
   70        3.566006
   71        3.655964
   72        3.695726
   73        3.956835
   74        4.050360
   75        4.184397
   76        4.209632
   77        4.245613
   78        4.251505
   79        4.414572
   80        4.461883
   81        4.476093
   82        4.482745
   83        5.098946
   84        5.359987
   85        5.360448
   86        5.508940
   87        5.537267
   88        5.555365
   89        5.648463
   90        5.666212
   91        5.671356
   92        5.694850
   93        5.791300
   94        5.932729
   95        6.092103
   96        6.119709
   97        6.147415
   98        6.162963
   99        6.553903
  100        6.570755
  101        6.648077
  102        6.735509
  103        6.753987
  104        7.033720
  105        7.046269
  106        7.055272
 
  0.5000000E+00  0.0000000E+00  0.0000000E+00  0.1562500E-01
    1      -14.553625
    2      -14.553623
    3      -14.282437
    4      -14.282435
    5      -14.180825
    6      -14.180825
    7      -14.116490
    8      -14.116487
    9      -14.055905
   10      -14.055904
   11      -14.022351
   12      -14.022350
   13      -13.962243
   14      -13.962240
   15      -13.888674
   16      -13.888673
   17       -7.441884
   18       -7.441884
   19       -7.262749
   20       -7.262746
   21       -7.253414
   22       -7.253414
   23       -7.167685
   24       -7.167683
   25       -7.080135
   26       -7.080134
   27       -6.891037
   28       -6.891034
   29       -6.877848
   30       -6.877848
   31       -6.778217
   32       -6.778216
   33       -6.753719
   34       -6.753719
   35       -6.681231
   36       -6.681231
   37       -6.448438
   38       -6.448437
   39       -6.436259
   40       -6.436257
   41       -6.317583
   42       -6.317581
   43       -6.255036
   44       -6.255036
   45       -6.230589
   46       -6.230589
   47       -6.195281
   48       -6.195280
   49       -6.141538
   50       -6.141538
   51       -6.092678
   52       -6.092676
   53       -6.073463
   54       -6.073461
   55       -6.070550
   56       -6.070549
   57       -6.028949
   58       -6.028948
   59       -5.996403
   60       -5.996402
   61       -5.992714
   62       -5.992713
   63       -5.974783
   64       -5.974782
   65        2.102694
   66        2.102695
   67        3.363824
   68        3.363827
   69        3.608872
   70        3.608873
   71        3.833061
   72        3.833063
   73        3.833632
   74        3.833634
   75        4.227149
   76        4.227151
   77        4.294805
   78        4.294807
   79        4.353616
   80        4.353618
   81        4.566964
   82        4.566965
   83        5.346225
   84        5.346226
   85        5.515677
   86        5.515677
   87        5.583158
   88        5.583160
   89        5.592496
   90        5.592497
   91        5.658027
   92        5.658029
   93        5.863621
   94        5.863622
   95        5.918954
   96        5.918955
   97        5.978496
   98        5.978497
   99        6.617169
  100        6.617170
  101        6.800318
  102        6.800319
  103        6.974406
  104        6.974408
  105        6.984474
  106        6.984474
 
  0.0000000E+00  0.2500000E+00  0.0000000E+00  0.3125000E-01
    1      -14.607974
    2      -14.326520
    3      -14.325574
    4      -14.295264
    5      -14.264118
    6      -14.196810
    7      -14.137872
    8      -14.134296
    9      -14.093975
   10      -14.069034
   11      -14.057489
   12      -14.015046
   13      -13.982955
   14      -13.908639
   15      -13.904349
   16      -13.812769
   17       -7.473126
   18       -7.338209
   19       -7.332958
   20       -7.327854
   21       -7.318575
   22       -7.224846
   23       -7.169395
   24       -6.976474
   25       -6.945957
   26       -6.926009
   27       -6.912581
   28       -6.910769
   29       -6.835538
   30       -6.810429
   31       -6.805762
   32       -6.792589
   33       -6.774583
   34       -6.707316
   35       -6.585549
   36       -6.543440
   37       -6.533757
   38       -6.532916
   39       -6.531062
   40       -6.528969
   41       -6.423421
   42       -6.366118
   43       -6.324445
   44       -6.312068
   45       -6.273322
   46       -6.222566
   47       -6.208147
   48       -6.179635
   49       -6.176651
   50       -6.174751
   51       -6.132228
   52       -6.125305
   53       -6.117207
   54       -6.105806
   55       -6.092005
   56       -6.082610
   57       -6.070969
   58       -6.049650
   59       -6.015751
   60       -5.991169
   61       -5.965177
   62       -5.944728
   63       -5.902909
   64       -5.837390
   65        1.917395
   66        3.150663
   67        3.220943
   68        3.238705
   69        3.525034
   70        3.559000
   71        3.614416
   72        3.633403
   73        3.857125
   74        4.016907
   75        4.147690
   76        4.189565
   77        4.196925
   78        4.196964
   79        4.243191
   80        4.596401
   81        4.675853
   82        4.723188
   83        5.007640
   84        5.167254
   85        5.175496
   86        5.408142
   87        5.441036
   88        5.474341
   89        5.514564
   90        5.681300
   91        5.743186
   92        5.748890
   93        5.886389
   94        6.035614
   95        6.084918
   96        6.178131
   97        6.182645
   98        6.363880
   99        6.383381
  100        6.488821
  101        6.547789
  102        6.600890
  103        6.646270
  104        6.779127
  105        6.858298
  106        7.135733
 
  0.2500000E+00  0.2500000E+00  0.0000000E+00  0.6250000E-01
    1      -14.584367
    2      -14.410791
    3      -14.314650
    4      -14.307732
    5      -14.233250
    6      -14.177531
    7      -14.142594
    8      -14.125728
    9      -14.102736
   10      -14.075699
   11      -14.029198
   12      -13.978582
   13      -13.965231
   14      -13.934813
   15      -13.916042
   16      -13.833922
   17       -7.458665
   18       -7.360784
   19       -7.327687
   20       -7.315254
   21       -7.287347
   22       -7.219065
   23       -7.108306
   24       -7.063436
   25       -7.033371
   26       -6.998316
   27       -6.914619
   28       -6.910029
   29       -6.855146
   30       -6.802365
   31       -6.768110
   32       -6.748614
   33       -6.716229
   34       -6.689797
   35       -6.626926
   36       -6.563185
   37       -6.557589
   38       -6.546700
   39       -6.498932
   40       -6.451163
   41       -6.378960
   42       -6.342157
   43       -6.322537
   44       -6.310383
   45       -6.289708
   46       -6.256450
   47       -6.237738
   48       -6.188837
   49       -6.188029
   50       -6.152479
   51       -6.149284
   52       -6.148922
   53       -6.120335
   54       -6.104361
   55       -6.072191
   56       -6.061102
   57       -6.050181
   58       -6.041167
   59       -6.007645
   60       -5.991751
   61       -5.991318
   62       -5.960639
   63       -5.899744
   64       -5.845461
   65        2.013350
   66        2.699987
   67        3.240222
   68        3.444912
   69        3.507956
   70        3.574003
   71        3.641902
   72        3.719251
   73        3.956688
   74        4.034517
   75        4.175355
   76        4.182382
   77        4.198527
   78        4.224691
   79        4.288723
   80        4.522068
   81        4.633210
   82        4.685298
   83        5.174970
   84        5.201798
   85        5.226257
   86        5.399850
   87        5.413623
   88        5.454428
   89        5.457287
   90        5.621446
   91        5.706419
   92        5.780209
   93        5.825992
   94        5.916480
   95        6.034242
   96        6.078545
   97        6.176697
   98        6.363662
   99        6.385873
  100        6.501980
  101        6.524725
  102        6.599132
  103        6.660712
  104        6.799395
  105        6.912471
  106        6.963900
 
  0.5000000E+00  0.2500000E+00  0.0000000E+00  0.3125000E-01
    1      -14.516055
    2      -14.516054
    3      -14.281556
    4      -14.281555
    5      -14.255697
    6      -14.255695
    7      -14.105104
    8      -14.105103
    9      -14.058354
   10      -14.058352
   11      -14.019840
   12      -14.019839
   13      -13.936736
   14      -13.936734
   15      -13.893215
   16      -13.893214
   17       -7.411873
   18       -7.411872
   19       -7.323113
   20       -7.323113
   21       -7.175056
   22       -7.175055
   23       -7.159560
   24       -7.159559
   25       -7.049482
   26       -7.049481
   27       -6.867304
   28       -6.867303
   29       -6.849398
   30       -6.849396
   31       -6.823151
   32       -6.823150
   33       -6.677846
   34       -6.677846
   35       -6.596138
   36       -6.596138
   37       -6.467917
   38       -6.467917
   39       -6.466963
   40       -6.466962
   41       -6.365422
   42       -6.365421
   43       -6.342088
   44       -6.342087
   45       -6.244263
   46       -6.244261
   47       -6.219670
   48       -6.219670
   49       -6.183028
   50       -6.183026
   51       -6.169068
   52       -6.169067
   53       -6.132125
   54       -6.132123
   55       -6.064493
   56       -6.064492
   57       -6.051242
   58       -6.051241
   59       -5.991817
   60       -5.991816
   61       -5.936391
   62       -5.936391
   63       -5.899237
   64       -5.899237
   65        2.287287
   66        2.287288
   67        3.310053
   68        3.310054
   69        3.511664
   70        3.511666
   71        3.827236
   72        3.827237
   73        4.058234
   74        4.058235
   75        4.131894
   76        4.131896
   77        4.256596
   78        4.256598
   79        4.377012
   80        4.377013
   81        4.679197
   82        4.679198
   83        5.194595
   84        5.194595
   85        5.357587
   86        5.357587
   87        5.400658
   88        5.400659
   89        5.551221
   90        5.551221
   91        5.686666
   92        5.686667
   93        5.877061
   94        5.877061
   95        5.909860
   96        5.909861
   97        6.200825
   98        6.200826
   99        6.463491
  100        6.463491
  101        6.663968
  102        6.663968
  103        6.735484
  104        6.735484
  105        6.809739
  106        6.809740
 
  0.0000000E+00  0.5000000E+00  0.0000000E+00  0.1562500E-01
    1      -14.489660
    2      -14.489660
    3      -14.248105
    4      -14.248105
    5      -14.241857
    6      -14.241857
    7      -14.202275
    8      -14.202275
    9      -14.062277
   10      -14.062277
   11      -14.039472
   12      -14.039472
   13      -13.938877
   14      -13.938877
   15      -13.848199
   16      -13.848199
   17       -7.454150
   18       -7.454150
   19       -7.165386
   20       -7.165386
   21       -7.128206
   22       -7.128206
   23       -7.120347
   24       -7.120347
   25       -7.069598
   26       -7.069598
   27       -6.984328
   28       -6.984328
   29       -6.779451
   30       -6.779451
   31       -6.723684
   32       -6.723684
   33       -6.690693
   34       -6.690693
   35       -6.649794
   36       -6.649794
   37       -6.578191
   38       -6.578191
   39       -6.534918
   40       -6.534918
   41       -6.390790
   42       -6.390790
   43       -6.295361
   44       -6.295361
   45       -6.289888
   46       -6.289888
   47       -6.243188
   48       -6.243188
   49       -6.151386
   50       -6.151386
   51       -6.113652
   52       -6.113652
   53       -6.086096
   54       -6.086096
   55       -6.055304
   56       -6.055304
   57       -6.042980
   58       -6.042980
   59       -6.038835
   60       -6.038835
   61       -5.958492
   62       -5.958492
   63       -5.946392
   64       -5.946392
   65        2.493236
   66        2.493236
   67        3.453134
   68        3.453134
   69        3.581799
   70        3.581799
   71        3.627530
   72        3.627530
   73        3.914480
   74        3.914480
   75        3.949914
   76        3.949914
   77        4.162411
   78        4.162411
   79        4.566057
   80        4.566057
   81        4.972053
   82        4.972053
   83        4.998353
   84        4.998353
   85        5.047384
   86        5.047384
   87        5.281142
   88        5.281142
   89        5.796087
   90        5.796087
   91        5.847585
   92        5.847585
   93        5.948429
   94        5.948429
   95        6.094275
   96        6.094275
   97        6.243012
   98        6.243012
   99        6.335657
  100        6.335657
  101        6.358975
  102        6.358975
  103        6.576181
  104        6.576181
  105        6.765716
  106        6.765716
 
  0.2500000E+00  0.5000000E+00  0.0000000E+00  0.3125000E-01
    1      -14.470256
    2      -14.470256
    3      -14.330209
    4      -14.330209
    5      -14.229012
    6      -14.229012
    7      -14.126335
    8      -14.126335
    9      -14.115734
   10      -14.115734
   11      -13.974402
   12      -13.974402
   13      -13.960689
   14      -13.960689
   15      -13.863916
   16      -13.863916
   17       -7.427033
   18       -7.427033
   19       -7.252185
   20       -7.252185
   21       -7.187121
   22       -7.187121
   23       -7.137599
   24       -7.137599
   25       -6.988418
   26       -6.988418
   27       -6.880769
   28       -6.880769
   29       -6.786204
   30       -6.786204
   31       -6.742339
   32       -6.742339
   33       -6.699488
   34       -6.699488
   35       -6.645625
   36       -6.645625
   37       -6.508152
   38       -6.508152
   39       -6.503684
   40       -6.503684
   41       -6.460998
   42       -6.460998
   43       -6.333275
   44       -6.333275
   45       -6.260989
   46       -6.260989
   47       -6.236223
   48       -6.236223
   49       -6.191277
   50       -6.191277
   51       -6.173826
   52       -6.173826
   53       -6.116088
   54       -6.116088
   55       -6.085513
   56       -6.085513
   57       -6.053683
   58       -6.053683
   59       -5.997375
   60       -5.997375
   61       -5.916475
   62       -5.916475
   63       -5.906445
   64       -5.906445
   65        2.559729
   66        2.559729
   67        3.083431
   68        3.083431
   69        3.682152
   70        3.682152
   71        3.888711
   72        3.888711
   73        3.897847
   74        3.897847
   75        4.097829
   76        4.097829
   77        4.123617
   78        4.123617
   79        4.603806
   80        4.603806
   81        4.917987
   82        4.917987
   83        4.931797
   84        4.931797
   85        5.003742
   86        5.003742
   87        5.216227
   88        5.216227
   89        5.735786
   90        5.735786
   91        5.888394
   92        5.888394
   93        5.960025
   94        5.960025
   95        6.125090
   96        6.125090
   97        6.182139
   98        6.182139
   99        6.282180
  100        6.282180
  101        6.413004
  102        6.413004
  103        6.462929
  104        6.462929
  105        6.857447
  106        6.857447
 
  0.5000000E+00  0.5000000E+00  0.0000000E+00  0.1562500E-01
    1      -14.414551
    2      -14.414551
    3      -14.414550
    4      -14.414550
    5      -14.188126
    6      -14.188126
    7      -14.188124
    8      -14.188124
    9      -14.024243
   10      -14.024243
   11      -14.024241
   12      -14.024241
   13      -13.908367
   14      -13.908367
   15      -13.908365
   16      -13.908365
   17       -7.354097
   18       -7.354097
   19       -7.354096
   20       -7.354096
   21       -7.192458
   22       -7.192458
   23       -7.192458
   24       -7.192458
   25       -6.884787
   26       -6.884787
   27       -6.884786
   28       -6.884786
   29       -6.716601
   30       -6.716601
   31       -6.716601
   32       -6.716601
   33       -6.695991
   34       -6.695991
   35       -6.695990
   36       -6.695990
   37       -6.524903
   38       -6.524903
   39       -6.524903
   40       -6.524903
   41       -6.371282
   42       -6.371282
   43       -6.371281
   44       -6.371281
   45       -6.287288
   46       -6.287287
   47       -6.287287
   48       -6.287287
   49       -6.196174
   50       -6.196174
   51       -6.196172
   52       -6.196172
   53       -6.123702
   54       -6.123702
   55       -6.123701
   56       -6.123701
   57       -6.018200
   58       -6.018200
   59       -6.018199
   60       -6.018199
   61       -5.880030
   62       -5.880030
   63       -5.880030
   64       -5.880030
   65        2.758726
   66        2.758726
   67        2.758727
   68        2.758727
   69        3.803455
   70        3.803455
   71        3.803456
   72        3.803456
   73        4.010070
   74        4.010070
   75        4.010071
   76        4.010071
   77        4.553700
   78        4.553700
   79        4.553701
   80        4.553701
   81        4.761722
   82        4.761722
   83        4.761722
   84        4.761722
   85        5.098284
   86        5.098284
   87        5.098284
   88        5.098284
   89        5.778144
   90        5.778144
   91        5.778145
   92        5.778145
   93        6.039055
   94        6.039055
   95        6.039055
   96        6.039055
   97        6.184978
   98        6.184978
   99        6.184978
  100        6.184978
  101        6.503362
  102        6.503362
  103        6.503362
  104        6.503362
  105        6.972422
  106        6.972422
 
  0.0000000E+00  0.0000000E+00  0.2500000E+00  0.3125000E-01
    1      -14.613769
    2      -14.407747
    3      -14.284430
    4      -14.264856
    5      -14.164569
    6      -14.155247
    7      -14.142569
    8      -14.121693
    9      -14.103526
   10      -14.089079
   11      -14.067880
   12      -14.058027
   13      -13.989646
   14      -13.982050
   15      -13.881814
   16      -13.815376
   17       -7.389044
   18       -7.357777
   19       -7.336107
   20       -7.319381
   21       -7.191888
   22       -7.113445
   23       -7.090959
   24       -7.085397
   25       -7.043455
   26       -7.041031
   27       -6.955256
   28       -6.901752
   29       -6.838640
   30       -6.795635
   31       -6.710179
   32       -6.696487
   33       -6.683442
   34       -6.681252
   35       -6.606006
   36       -6.573380
   37       -6.491807
   38       -6.491770
   39       -6.478083
   40       -6.477029
   41       -6.426462
   42       -6.347537
   43       -6.337757
   44       -6.322130
   45       -6.287610
   46       -6.279577
   47       -6.269773
   48       -6.266411
   49       -6.264734
   50       -6.217030
   51       -6.202773
   52       -6.167915
   53       -6.141268
   54       -6.125522
   55       -6.115662
   56       -6.113873
   57       -6.108944
   58       -6.049380
   59       -6.024020
   60       -6.006491
   61       -6.000117
   62       -5.883497
   63       -5.871890
   64       -5.832775
   65        1.947726
   66        3.157212
   67        3.246362
   68        3.456393
   69        3.503074
   70        3.630084
   71        3.715167
   72        3.769402
   73        3.822182
   74        3.932473
   75        4.126760
   76        4.349733
   77        4.357681
   78        4.477498
   79        4.489168
   80        4.582492
   81        4.788496
   82        4.810561
   83        4.837805
   84        5.027838
   85        5.124862
   86        5.152571
   87        5.445543
   88        5.464098
   89        5.527922
   90        5.543195
   91        5.605398
   92        5.621918
   93        5.888003
   94        5.902945
   95        5.911149
   96        5.925628
   97        6.047427
   98        6.587234
   99        6.601089
  100        6.619699
  101        6.680784
  102        6.783772
  103        6.905230
  104        6.925290
  105        7.043108
  106        7.099559
 
  0.2500000E+00  0.0000000E+00  0.2500000E+00  0.6250000E-01
    1      -14.589439
    2      -14.409864
    3      -14.387491
    4      -14.239749
    5      -14.164733
    6      -14.156744
    7      -14.130212
    8      -14.103152
    9      -14.091783
   10      -14.068799
   11      -14.067339
   12      -14.007449
   13      -13.988473
   14      -13.983244
   15      -13.913947
   16      -13.840222
   17       -7.346402
   18       -7.341316
   19       -7.315546
   20       -7.287220
   21       -7.278432
   22       -7.109484
   23       -7.062697
   24       -7.048405
   25       -7.005910
   26       -7.005462
   27       -6.984070
   28       -6.957659
   29       -6.944784
   30       -6.892423
   31       -6.771595
   32       -6.712493
   33       -6.657192
   34       -6.646311
   35       -6.552023
   36       -6.545391
   37       -6.531289
   38       -6.489088
   39       -6.470086
   40       -6.468809
   41       -6.461765
   42       -6.379739
   43       -6.340154
   44       -6.312926
   45       -6.298627
   46       -6.249698
   47       -6.248080
   48       -6.224442
   49       -6.219068
   50       -6.190107
   51       -6.136212
   52       -6.133571
   53       -6.121277
   54       -6.113384
   55       -6.109496
   56       -6.086801
   57       -6.081455
   58       -6.077488
   59       -6.074068
   60       -6.014952
   61       -6.010920
   62       -5.938165
   63       -5.899434
   64       -5.866200
   65        2.046991
   66        2.735014
   67        3.433471
   68        3.467943
   69        3.629274
   70        3.634332
   71        3.715519
   72        3.778291
   73        3.814726
   74        4.013698
   75        4.093286
   76        4.283668
   77        4.384797
   78        4.461250
   79        4.472843
   80        4.631656
   81        4.642863
   82        4.805627
   83        4.976831
   84        5.052935
   85        5.163911
   86        5.184885
   87        5.386476
   88        5.406301
   89        5.514438
   90        5.515001
   91        5.658752
   92        5.732740
   93        5.808165
   94        5.816763
   95        5.937110
   96        5.938330
   97        6.182409
   98        6.256684
   99        6.658802
  100        6.707646
  101        6.760089
  102        6.802747
  103        6.884062
  104        7.051922
  105        7.084052
  106        7.102555
 
  0.5000000E+00  0.0000000E+00  0.2500000E+00  0.3125000E-01
    1      -14.518931
    2      -14.518929
    3      -14.329073
    4      -14.329071
    5      -14.160371
    6      -14.160371
    7      -14.097698
    8      -14.097696
    9      -14.066823
   10      -14.066822
   11      -14.003988
   12      -14.003986
   13      -13.985193
   14      -13.985190
   15      -13.909449
   16      -13.909448
   17       -7.337856
   18       -7.337856
   19       -7.227605
   20       -7.227603
   21       -7.212174
   22       -7.212174
   23       -7.147860
   24       -7.147858
   25       -7.025261
   26       -7.025260
   27       -6.927844
   28       -6.927844
   29       -6.893994
   30       -6.893994
   31       -6.732932
   32       -6.732931
   33       -6.730486
   34       -6.730485
   35       -6.627708
   36       -6.627708
   37       -6.492331
   38       -6.492329
   39       -6.435212
   40       -6.435211
   41       -6.410847
   42       -6.410846
   43       -6.272522
   44       -6.272522
   45       -6.263301
   46       -6.263301
   47       -6.207608
   48       -6.207607
   49       -6.178544
   50       -6.178543
   51       -6.142612
   52       -6.142610
   53       -6.119270
   54       -6.119267
   55       -6.081179
   56       -6.081179
   57       -6.058353
   58       -6.058352
   59       -6.042610
   60       -6.042609
   61       -5.973397
   62       -5.973396
   63       -5.964359
   64       -5.964359
   65        2.326460
   66        2.326461
   67        3.421627
   68        3.421628
   69        3.678822
   70        3.678824
   71        3.794623
   72        3.794624
   73        3.948323
   74        3.948324
   75        4.145246
   76        4.145246
   77        4.462783
   78        4.462784
   79        4.476110
   80        4.476112
   81        4.745547
   82        4.745549
   83        5.108457
   84        5.108459
   85        5.161328
   86        5.161329
   87        5.371403
   88        5.371404
   89        5.476214
   90        5.476214
   91        5.642954
   92        5.642956
   93        5.832633
   94        5.832633
   95        6.116747
   96        6.116747
   97        6.134558
   98        6.134560
   99        6.575707
  100        6.575707
  101        6.760194
  102        6.760194
  103        7.049908
  104        7.049909
  105        7.092374
  106        7.092374
 
  0.0000000E+00  0.2500000E+00  0.2500000E+00  0.6250000E-01
    1      -14.572015
    2      -14.374357
    3      -14.300004
    4      -14.265164
    5      -14.240305
    6      -14.174727
    7      -14.164486
    8      -14.120052
    9      -14.116086
   10      -14.105361
   11      -14.074236
   12      -14.006616
   13      -13.999227
   14      -13.921932
   15      -13.890529
   16      -13.825802
   17       -7.359259
   18       -7.297638
   19       -7.280582
   20       -7.278060
   21       -7.233053
   22       -7.127833
   23       -7.084607
   24       -7.020241
   25       -6.984334
   26       -6.935217
   27       -6.903481
   28       -6.885710
   29       -6.842527
   30       -6.832740
   31       -6.804216
   32       -6.732407
   33       -6.721434
   34       -6.715943
   35       -6.626757
   36       -6.586749
   37       -6.542926
   38       -6.533952
   39       -6.480191
   40       -6.475507
   41       -6.447072
   42       -6.429936
   43       -6.367503
   44       -6.305226
   45       -6.283047