    2    2  200    1
  0.5825095E+01  0.2544579E-09  0.2544579E-09  0.2544579E-09  0.5000000E-15
  1.000000000000000E-004
  CAR 
 graphite                                
      8    194      8
 
  0.0000000E+00  0.0000000E+00  0.0000000E+00  0.8680556E-03
    1      -11.747657
    2        9.371951
    3        9.371951
    4        9.371952
    5       14.888953
    6       14.888953
    7       14.888954
    8       22.095745
 
  0.8333333E-01 -0.6938894E-17 -0.6938894E-17  0.3472222E-02
    1      -11.558913
    2        8.171977
    3        9.059222
    4        9.059223
    5       15.299452
    6       15.299453
    7       15.572065
    8       22.280005
 
  0.1666667E+00 -0.1387779E-16 -0.4163336E-16  0.3472222E-02
    1      -10.995135
    2        5.689284
    3        8.377266
    4        8.377267
    5       16.194556
    6       16.194557
    7       16.593646
    8       22.814493
 
  0.2500000E+00  0.0000000E+00 -0.2775558E-16  0.6944444E-02
    1      -10.065077
    2        2.905983
    3        7.671855
    4        7.671856
    5       17.036124
    6       17.036125
    7       17.268993
    8       23.570090
 
  0.3333333E+00 -0.2775558E-16 -0.2775558E-16  0.3472222E-02
    1       -8.791193
    2        0.179955
    3        7.110925
    4        7.110926
    5       17.524339
    6       17.524340
    7       17.632172
    8       24.279544
 
  0.4166667E+00 -0.2775558E-16 -0.5551115E-16  0.3472222E-02
    1       -7.253355
    2       -2.269849
    3        6.759352
    4        6.759352
    5       17.691841
    6       17.691843
    7       17.807841
    8       24.700989
 
  0.5000000E+00  0.0000000E+00 -0.5551115E-16  0.3472222E-02
    1       -6.124884
    2       -3.708510
    3        6.640310
    4        6.640311
    5       17.718942
    6       17.718943
    7       17.860910
    8       24.820235
 
  0.8333333E-01  0.8333333E-01 -0.1387779E-16  0.1736111E-02
    1      -11.496039
    2        8.489558
    3        8.489559
    4        8.756362
    5       14.693801
    6       15.984862
    7       15.984862
    8       22.249210
 
  0.1666667E+00  0.8333333E-01 -0.5551115E-16  0.3472222E-02
    1      -11.057361
    2        6.534844
    3        7.708765
    4        8.440355
    5       14.977605
    6       17.026869
    7       17.028432
    8       22.393292
 
  0.2500000E+00  0.8333333E-01 -0.1387779E-16  0.1041667E-01
    1      -10.249289
    2        3.892182
    3        7.005289
    4        7.793567
    5       15.808815
    6       17.821593
    7       17.954601
    8       22.703136
 
  0.3333333E+00  0.8333333E-01 -0.5551115E-16  0.6944444E-02
    1       -9.088382
    2        1.172201
    3        6.510104
    4        7.063996
    5       16.570904
    6       18.264612
    7       18.456291
    8       23.276387
 
  0.4166667E+00  0.8333333E-01  0.0000000E+00  0.3472222E-02
    1       -7.624180
    2       -1.369700
    3        6.272439
    4        6.437287
    5       17.025861
    6       18.475414
    7       18.518952
    8       24.082454
 
  0.5000000E+00  0.8333333E-01  0.0000000E+00  0.1041667E-01
    1       -6.159141
    2       -3.339364
    3        5.999183
    4        6.302423
    5       17.314463
    6       18.332691
    7       18.545843
    8       24.687882
 
 -0.4166667E+00  0.8333333E-01  0.4163336E-16  0.6944444E-02
    1       -6.585941
    2       -2.809365
    3        5.794958
    4        6.587668
    5       17.582390
    6       18.045557
    7       18.516767
    8       24.702324
 
 -0.3333333E+00  0.8333333E-01  0.2775558E-16  0.3472222E-02
    1       -8.139913
    2       -0.550895
    3        5.850049
    4        7.097531
    5       17.645445
    6       17.789502
    7       18.377565
    8       24.140396
 
 -0.2500000E+00  0.8333333E-01  0.2775558E-16  0.1041667E-01
    1       -9.513146
    2        2.077295
    3        6.173773
    4        7.775554
    5       17.011795
    6       17.752207
    7       18.010392
    8       23.396777
 
 -0.1666667E+00  0.8333333E-01  0.2081668E-16  0.6944444E-02
    1      -10.559192
    2        4.801320
    3        6.757188
    4        8.508008
    5       16.146015
    6       17.215665
    7       17.339739
    8       22.844754
 
 -0.8333333E-01  0.8333333E-01  0.4508654E-17  0.1736111E-02
    1      -11.245188
    2        7.168818
    3        7.679854
    4        9.053484
    5       15.395163
    6       16.158623
    7       16.491588
    8       22.487504
 
  0.1666667E+00  0.1666667E+00 -0.4163336E-16  0.1736111E-02
    1      -10.744837
    2        6.872637
    3        6.872637
    4        7.137287
    5       14.231545
    6       18.224441
    7       18.224441
    8       21.678652
 
  0.2500000E+00  0.1666667E+00 -0.5551115E-16  0.1041667E-01
    1      -10.062086
    2        4.793981
    3        6.139677
    4        6.743200
    5       14.482973
    6       19.265067
    7       19.335614
    8       21.014497
 
  0.3333333E+00  0.1666667E+00 -0.2775558E-16  0.3472222E-02
    1       -9.022014
    2        2.279373
    3        5.639200
    4        6.005130
    5       15.291715
    6       19.866159
    7       20.018490
    8       20.947355
 
  0.4166667E+00  0.1666667E+00 -0.2775558E-16  0.6944444E-02
    1       -7.658983
    2       -0.221165
    3        5.181126
    4        5.424282
    5       15.947730
    6       20.157974
    7       20.162014
    8       21.841946
 
  0.5000000E+00  0.1666667E+00 -0.8326673E-16  0.1041667E-01
    1       -6.123769
    2       -2.401928
    3        4.481851
    4        5.507821
    5       16.366938
    6       19.907456
    7       20.255579
    8       23.393029
 
 -0.4166667E+00  0.1666667E+00 -0.1387779E-16  0.3472222E-02
    1       -5.714553
    2       -2.895539
    3        4.008892
    4        5.875506
    5       16.792637
    6       19.430481
    7       20.236131
    8       24.490189
 
 -0.3333333E+00  0.1666667E+00  0.2775558E-16  0.6944444E-02
    1       -7.157060
    2       -0.966261
    3        3.817915
    4        6.486044
    5       17.293530
    6       18.775211
    7       20.096154
    8       23.961962
 
 -0.2500000E+00  0.1666667E+00  0.0000000E+00  0.1041667E-01
    1       -8.605245
    2        1.481162
    3        3.953547
    4        7.257377
    5       17.722951
    6       17.892366
    7       19.626301
    8       22.959503
 
 -0.1666667E+00  0.1666667E+00  0.2235636E-16  0.1736111E-02
    1       -9.756601
    2        3.765630
    3        4.684808
    4        8.029305
    5       16.875957
    6       17.804445
    7       18.530015
    8       22.677425
 
  0.2500000E+00  0.2500000E+00 -0.2775558E-16  0.5208333E-02
    1       -9.505988
    2        4.886858
    3        5.360382
    4        5.360382
    5       13.750268
    6       19.435059
    7       20.717761
    8       20.717761
 
  0.3333333E+00  0.2500000E+00 -0.5551115E-16  0.1041667E-01
    1       -8.591174
    2        3.029750
    3        4.735392
    4        4.812272
    5       14.069969
    6       18.579899
    7       21.690920
    8       21.714244
 
  0.4166667E+00  0.2500000E+00 -0.2775558E-16  0.1041667E-01
    1       -7.343645
    2        0.877907
    3        3.744834
    4        4.558897
    5       14.845528
    6       18.919743
    7       22.103584
    8       22.169461
 
  0.5000000E+00  0.2500000E+00 -0.2775558E-16  0.2083333E-01
    1       -5.851654
    2       -1.223384
    3        2.772274
    4        4.620861
    5       15.368516
    6       20.595031
    7       21.924796
    8       22.351761
 
 -0.4166667E+00  0.2500000E+00  0.2775558E-16  0.1041667E-01
    1       -4.805118
    2       -2.454249
    3        2.038582
    4        4.988863
    5       15.835490
    6       21.336249
    7       22.229523
    8       23.013501
 
 -0.3333333E+00  0.2500000E+00  0.1387779E-16  0.1041667E-01
    1       -5.892843
    2       -1.087204
    3        1.647659
    4        5.623000
    5       16.450198
    6       20.415970
    7       22.202469
    8       23.862306
 
 -0.2500000E+00  0.2500000E+00  0.1884864E-16  0.1041667E-01
    1       -7.369334
    2        0.803401
    3        1.948202
    4        6.436884
    5       17.163191
    6       19.193957
    7       21.445587
    8       22.895639
 
  0.3333333E+00  0.3333333E+00 -0.2775558E-16  0.1736111E-02
    1       -7.803230
    2        2.268552
    3        4.198926
    4        4.198926
    5       13.465899
    6       17.017274
    7       23.104595
    8       23.104596
 
  0.4166667E+00  0.3333333E+00 -0.2775558E-16  0.3472222E-02
    1       -6.678670
    2        0.789673
    3        3.317328
    4        3.877897
    5       13.912676
    6       16.519680
    7       23.858575
    8       23.901867
 
  0.5000000E+00  0.3333333E+00  0.0000000E+00  0.1041667E-01
    1       -5.276397
    2       -0.714805
    3        1.916983
    4        3.878533
    5       14.570706
    6       17.600271
    7       23.869976
    8       24.198977
 
 -0.4166667E+00  0.3333333E+00  0.4857226E-16  0.6944444E-02
    1       -3.944520
    2       -1.948172
    3        0.684628
    4        4.199066
    5       15.024555
    6       19.993323
    7       23.223002
    8       24.216072
 
 -0.3333333E+00  0.3333333E+00  0.3137367E-16  0.1736111E-02
    1       -4.492648
    2       -1.402484
    3        0.238565
    4        4.806663
    5       15.637719
    6       22.020953
    7       22.592685
    8       23.953271
 
  0.4166667E+00  0.4166667E+00 -0.5551115E-16  0.1736111E-02
    1       -5.678882
    2       -0.498781
    3        3.477648
    4        3.477648
    5       13.533943
    6       15.207372
    7       24.999595
    8       24.999595
 
  0.5000000E+00  0.4166667E+00 -0.5551115E-16  0.1041667E-01
    1       -4.386317
    2       -1.823798
    3        2.697668
    4        3.398651
    5       14.085471
    6       15.200931
    7       25.267020
    8       25.388781
 
 -0.4166667E+00  0.4166667E+00 -0.4206173E-16  0.1736111E-02
    1       -3.130939
    2       -2.751666
    3        1.329871
    4        3.647083
    5       14.483975
    6       17.146843
    7       24.631003
    8       25.173415
 
  0.5000000E+00  0.5000000E+00 -0.5551115E-16  0.2604167E-02
    1       -3.204990
    2       -3.204990
    3        3.233833
    4        3.233833
    5       14.076687
    6       14.076687
    7       25.772525
    8       25.772525
 
  0.0000000E+00  0.0000000E+00  0.1250000E+00  0.1736111E-02
    1      -11.323545
    2        7.005920
    3        8.738444
    4        8.738444
    5       15.722998
    6       15.722999
    7       16.111726
    8       22.507624
 
  0.8333333E-01 -0.6938894E-17  0.1250000E+00  0.3472222E-02
    1      -11.323434
    2        7.683410
    3        8.102915
    4        8.631410
    5       14.726766
    6       16.494069
    7       16.505280
    8       22.301052
 
  0.1666667E+00 -0.1387779E-16  0.1250000E+00  0.3472222E-02
    1      -10.947798
    2        6.830473
    3        7.290584
    4        7.880606
    5       14.493094
    6       17.600393
    7       17.610677
    8       22.058348
 
  0.2500000E+00  0.0000000E+00  0.1250000E+00  0.5208333E-02
    1      -10.202095
    2        4.378685
    3        6.575606
    4        7.371862
    5       15.119251
    6       18.493083
    7       18.617634
    8       21.900404
 
  0.3333333E+00 -0.2775558E-16  0.1250000E+00  0.3472222E-02
    1       -9.100875
    2        1.727443
    3        6.085087
    4        6.614842
    5       15.948047
    6       19.000412
    7       19.190897
    8       22.189517
 
  0.4166667E+00 -0.2775558E-16  0.1250000E+00  0.3472222E-02
    1       -7.684875
    2       -0.816117
    3        5.868940
    4        5.880659
    5       16.507941
    6       19.239796
    7       19.271254
    8       23.137858
 
  0.5000000E+00  0.0000000E+00  0.1250000E+00  0.5208333E-02
    1       -6.163341
    2       -2.923513
    3        5.306046
    4        5.937597
    5       16.872072
    6       19.031378
    7       19.319096
    8       24.269530
 
 -0.4166667E+00  0.2775558E-16  0.1250000E+00  0.3472222E-02
    1       -6.166731
    2       -2.915624
    3        4.961286
    4        6.276309
    5       17.237963
    6       18.637936
    7       19.294277
    8       24.669204
 
 -0.3333333E+00  0.2775558E-16  0.1250000E+00  0.3472222E-02
    1       -7.687730
    2       -0.799165
    3        4.886546
    4        6.847215
    5       17.615398
    6       18.109996
    7       19.154833
    8       24.029213
 
 -0.2500000E+00  0.0000000E+00  0.1250000E+00  0.5208333E-02
    1       -9.102507
    2        1.751199
    3        5.105177
    4        7.578189
    5       17.362778
    6       17.824754
    7       18.750995
    8       23.161937
 
 -0.1666667E+00  0.1387779E-16  0.1250000E+00  0.3472222E-02
    1      -10.202968
    2        4.364489
    3        5.659745
    4        8.328854
    5       16.439346
    6       17.643154
    7       17.856022
    8       22.753833
 
 -0.8333333E-01  0.6938894E-17  0.1250000E+00  0.3472222E-02
    1      -10.948197
    2        6.095535
    3        7.147128
    4        8.826263
    5       15.721577
    6       16.693469
    7       16.965951
    8       22.647823
 
  0.8333333E-01  0.8333333E-01  0.1250000E+00  0.1736111E-02
    1      -11.448985
    2        7.770225
    3        8.474939
    4        9.140191
    5       15.239978
    6       15.692190
    7       15.962252
    8       22.363271
 
  0.1666667E+00  0.8333333E-01  0.1250000E+00  0.3472222E-02
    1      -11.198188
    2        6.943414
    3        7.790970
    4        8.850531
    5       15.188422
    6       16.480694
    7       16.637174
    8       22.464148
 
  0.2500000E+00  0.8333333E-01  0.1250000E+00  0.6944444E-02
    1      -10.574516
    2        5.223744
    3        6.389338
    4        8.448253
    5       15.763012
    6       17.516009
    7       17.568184
    8       22.589440
 
  0.3333333E+00  0.8333333E-01  0.1250000E+00  0.3472222E-02
    1       -9.588646
    2        2.591000
    3        5.749782
    4        7.738139
    5       16.657369
    6       17.947079
    7       18.492422
    8       22.904584
 
  0.4166667E+00  0.8333333E-01  0.1250000E+00  0.3472222E-02
    1       -8.268281
    2       -0.039240
    3        5.406294
    4        7.010060
    5       17.368365
    6       17.977843
    7       18.980978
    8       23.653610
 
  0.5000000E+00  0.8333333E-01  0.1250000E+00  0.6944444E-02
    1       -6.721406
    2       -2.375816
    3        5.331235
    4        6.432985
    5       17.588039
    6       17.974946
    7       19.181782
    8       24.483737
 
 -0.4166667E+00  0.8333333E-01  0.1250000E+00  0.3472222E-02
    1       -5.912836
    2       -3.387013
    3        5.467143
    4        6.131590
    5       17.336432
    6       18.235595
    7       19.253159
    8       24.651720
 
 -0.3333333E+00  0.8333333E-01  0.1250000E+00  0.3472222E-02
    1       -7.243115
    2       -1.658030
    3        5.639532
    4        6.294219
    5       17.029150
    6       18.448692
    7       19.229216
    8       23.940261
 
 -0.2500000E+00  0.8333333E-01  0.1250000E+00  0.6944444E-02
    1       -8.741565
    2        0.810764
    3        5.868767
    4        6.869073
    5       16.568522
    6       18.486591
    7       19.046105
    8       22.971571
 
 -0.1666667E+00  0.8333333E-01  0.1250000E+00  0.3472222E-02
    1       -9.955992
    2        3.479000
    3        6.315437
    4        7.598740
    5       15.804682
    6       18.214199
    7       18.522590
    8       22.401105
 
 -0.8333333E-01  0.8333333E-01  0.1250000E+00  0.3472222E-02
    1      -10.823186
    2        6.071230
    3        7.002074
    4        8.244735
    5       14.980084
    6       17.539285
    7       17.576226
    8       22.278941
 
  0.1666667E+00  0.1666667E+00  0.1250000E+00  0.1736111E-02
    1      -11.073155
    2        6.134812
    3        8.087697
    4        8.629319
    5       15.585430
    6       16.536092
    7       16.646061
    8       22.650888
 
  0.3333333E+00  0.1666667E+00  0.1250000E+00  0.3472222E-02
    1       -9.710417
    2        3.529777
    3        4.911244
    4        7.866957
    5       16.591212
    6       17.971016
    7       18.777979
    8       22.507596
 
  0.4166667E+00  0.1666667E+00  0.1250000E+00  0.3472222E-02
    1       -8.501340
    2        0.981762
    3        4.453769
    4        7.090486
    5       17.513537
    6       17.938188
    7       19.615720
    8       23.002216
 
  0.5000000E+00  0.1666667E+00  0.1250000E+00  0.6944444E-02
    1       -7.011755
    2       -1.449160
    3        4.349663
    4        6.373956
    5       17.507613
    6       18.279037
    7       19.979629
    8       24.049014
 
 -0.4166667E+00  0.1666667E+00  0.1250000E+00  0.3472222E-02
    1       -5.691569
    2       -3.163985
    3        4.523982
    4        5.863286
    5       17.085740
    6       18.744512
    7       20.135969
    8       24.527238
 
 -0.3333333E+00  0.1666667E+00  0.1250000E+00  0.3472222E-02
    1       -6.487709
    2       -2.178888
    3        4.881121
    4        5.688192
    5       16.707846
    6       19.075811
    7       20.177145
    8       23.603162
 
 -0.2500000E+00  0.1666667E+00  0.1250000E+00  0.6944444E-02
    1       -8.026396
    2        0.114607
    3        5.215019
    4        6.033638
    5       16.274100
    6       19.241456
    7       20.061165
    8       22.266897
 
 -0.1666667E+00  0.1666667E+00  0.1250000E+00  0.3472222E-02
    1       -9.342261
    2        2.674050
    3        5.596172
    4        6.737502
    5       15.561715
    6       19.119161
    7       19.651129
    8       21.509554
 
 -0.8333333E-01  0.1666667E+00  0.1250000E+00  0.3472222E-02
    1      -10.325509
    2        5.198925
    3        6.205318
    4        7.414360
    5       14.737803
    6       18.585230
    7       18.779849
    8       21.589628
 
  0.3333333E+00  0.2500000E+00  0.1250000E+00  0.6944444E-02
    1       -9.463464
    2        3.543246
    3        4.878528
    4        6.872714
    5       15.387520
    6       19.140167
    7       20.000904
    8       21.085584
 
  0.4166667E+00  0.2500000E+00  0.1250000E+00  0.6944444E-02
    1       -8.374760
    2        1.996613
    3        3.544616
    4        6.163895
    5       16.362207
    6       19.135670
    7       20.853906
    8       21.347392
 
  0.5000000E+00  0.2500000E+00  0.1250000E+00  0.1041667E-01
    1       -6.979822
    2       -0.297849
    3        3.224390
    4        5.393376
    5       17.216327
    6       18.823996
    7       21.435129
    8       22.449252
 
 -0.4166667E+00  0.2500000E+00  0.1250000E+00  0.6944444E-02
    1       -5.491403
    2       -2.303808
    3        3.177938
    4        4.882041
    5       17.551832
    6       18.616495
    7       22.000104
    8       23.628040
 
  0.3333333E+00  0.3333333E+00  0.1250000E+00  0.1736111E-02
    1       -8.851909
    2        2.761216
    3        5.206727
    4        5.334109
    5       14.646568
    6       19.673183
    7       20.820814
    8       20.878488
 
  0.4166667E+00  0.3333333E+00  0.1250000E+00  0.3472222E-02
    1       -7.888985
    2        1.938400
    3        3.594550
    4        4.873223
    5       15.059257
    6       18.840522
    7       21.115541
    8       22.503800
 
  0.5000000E+00  0.3333333E+00  0.1250000E+00  0.6944444E-02
    1       -6.607685
    2        0.575773
    3        2.480778
    4        4.107021
    5       16.180200
    6       18.892291
    7       21.020471
    8       23.628351
 
 -0.4166667E+00  0.3333333E+00  0.1250000E+00  0.3472222E-02
    1       -5.125528
    2       -1.230194
    3        1.913444
    4        3.667363
    5       16.899480
    6       20.038902
    7       21.056010
    8       23.874238
 
 -0.3333333E+00  0.3333333E+00  0.1250000E+00  0.3472222E-02
    1       -4.393483
    2       -2.038406
    3        1.455570
    4        3.843830
    5       17.365068
    6       19.956205
    7       22.725508
    8       23.118657
 
 -0.2500000E+00  0.3333333E+00  0.1250000E+00  0.6944444E-02
    1       -5.655586
    2       -0.556697
    3        1.302696
    4        4.474113
    5       17.954005
    6       19.083529
    7       21.804294
    8       23.630536
 
 -0.1666667E+00  0.3333333E+00  0.1250000E+00  0.3472222E-02
    1       -7.085595
    2        0.617540
    3        2.321696
    4        5.335282
    5       17.589904
    6       18.662149
    7       21.183311
    8       22.641465
 
 -0.8333333E-01  0.3333333E+00  0.1250000E+00  0.3472222E-02
    1       -8.257959
    2        1.092641
    3        4.386038
    4        6.124418
    5       16.276453
    6       19.192887
    7       20.691564
    8       21.556440
 
  0.4166667E+00  0.4166667E+00  0.1250000E+00  0.1736111E-02
    1       -7.054321
    2        1.082263
    3        3.321696
    4        4.187612
    5       14.345964
    6       17.607807
    7       23.033397
    8       23.096046
 
  0.5000000E+00  0.4166667E+00  0.1250000E+00  0.6944444E-02
    1       -5.897447
    2        0.027894
    3        2.614021
    4        3.412676
    5       14.980178
    6       17.078153
    7       23.106986
    8       24.486114
 
 -0.4166667E+00  0.4166667E+00  0.1250000E+00  0.3472222E-02
    1       -4.493805
    2       -1.150026
    3        1.770033
    4        2.719744
    5       16.222026
    6       17.682620
    7       22.850238
    8       24.662153
 
 -0.3333333E+00  0.4166667E+00  0.1250000E+00  0.3472222E-02
    1       -3.357465
    2       -2.030507
    3        0.634714
    4        2.980846
    5       16.741123
    6       20.030431
    7       22.322973
    8       23.508927
 
 -0.2500000E+00  0.4166667E+00  0.1250000E+00  0.6944444E-02
    1       -4.250110
    2       -1.479639
    3        0.627371
    4        3.666664
    5       17.310721
    6       20.614085
    7       22.599859
    8       22.761444
 
 -0.1666667E+00  0.4166667E+00  0.1250000E+00  0.3472222E-02
    1       -5.588994
    2       -1.421834
    3        2.216010
    4        4.603360
    5       17.850925
    6       18.773947
    7       22.175108
    8       23.446661
 
 -0.8333333E-01  0.4166667E+00  0.1250000E+00  0.3472222E-02
    1       -6.774674
    2       -1.278197
    3        4.146822
    4        5.508350
    5       16.853913
    6       18.968239
    7       21.053440
    8       22.844581
 
  0.5000000E+00  0.5000000E+00  0.1250000E+00  0.5208333E-02
    1       -4.870095
    2       -1.159498
    3        2.220339
    4        3.601447
    5       14.283752
    6       16.280682
    7       24.663148
    8       24.895150
 
 -0.4166667E+00  0.5000000E+00  0.1250000E+00  0.6944444E-02
    1       -3.581364
    2       -2.348473
    3        2.132901
    4        2.883868
    5       15.159630
    6       16.088794
    7       24.680388
    8       25.096518
 
 -0.3333333E+00  0.5000000E+00  0.1250000E+00  0.6944444E-02
    1       -3.363510
    2       -2.212658
    3        1.600744
    4        2.465532
    5       16.289262
    6       17.372857
    7       23.693413
    8       24.397286
 
 -0.2500000E+00  0.5000000E+00  0.1250000E+00  0.1041667E-01
    1       -4.162757
    2       -1.626113
    3        1.162785
    4        3.192018
    5       16.795382
    6       20.109027
    7       21.582572
    8       23.931666
 
 -0.1666667E+00  0.5000000E+00  0.1250000E+00  0.6944444E-02
    1       -4.810472
    2       -2.369691
    3        2.393329
    4        4.237437
    5       17.459402
    6       19.213602
    7       22.579250
    8       23.435182
 
 -0.8333333E-01  0.5000000E+00  0.1250000E+00  0.6944444E-02
    1       -5.468016
    2       -2.953813
    3        3.959806
    4        5.331311
    5       17.222156
    6       18.655205
    7       21.162318
    8       24.137362
 
 -0.4166667E+00 -0.4166667E+00  0.1250000E+00  0.1736111E-02
    1       -3.669765
    2       -2.407572
    3        2.026846
    4        3.482688
    5       14.302885
    6       15.981373
    7       25.056796
    8       25.355793
 
 -0.3333333E+00 -0.4166667E+00  0.1250000E+00  0.3472222E-02
    1       -4.770983
    2       -1.127666
    3        2.295360
    4        3.050860
    5       15.053831
    6       16.465224
    7       23.992474
    8       25.016877
 
 -0.2500000E+00 -0.4166667E+00  0.1250000E+00  0.6944444E-02
    1       -5.585732
    2       -0.216080
    3        2.076157
    4        3.269596
    5       16.172664
    6       18.210739
    7       21.926592
    8       24.394522
 
 -0.1666667E+00 -0.4166667E+00  0.1250000E+00  0.3472222E-02
    1       -6.082750
    2       -0.801795
    3        2.611390
    4        4.442098
    5       17.044569
    6       19.478975
    7       21.189155
    8       23.238889
 
 -0.8333333E-01 -0.4166667E+00  0.1250000E+00  0.3472222E-02
    1       -6.263121
    2       -1.965144
    3        3.797265
    4        5.665665
    5       17.555010
    6       18.315830
    7       21.046026
    8       23.858487
 
 -0.3333333E+00 -0.3333333E+00  0.1250000E+00  0.1736111E-02
    1       -6.004899
    2        0.032014
    3        2.636684
    4        3.837464
    5       14.287737
    6       16.835471
    7       23.954064
    8       24.097879
 
 -0.2500000E+00 -0.3333333E+00  0.1250000E+00  0.6944444E-02
    1       -6.941101
    2        1.053338
    3        3.060444
    4        4.019417
    5       14.981772
    6       17.877048
    7       22.127159
    8       23.604436
 
 -0.1666667E+00 -0.3333333E+00  0.1250000E+00  0.3472222E-02
    1       -7.541364
    2        1.289289
    3        2.970738
    4        5.119740
    5       16.247696
    6       19.525007
    7       20.353034
    8       22.549052
 
 -0.8333333E-01 -0.3333333E+00  0.1250000E+00  0.3472222E-02
    1       -7.790835
    2        0.296426
    3        3.826182
    4        6.326822
    5       17.390804
    6       18.287809
    7       20.723010
    8       22.563781
 
 -0.2500000E+00 -0.2500000E+00  0.1250000E+00  0.5208333E-02
    1       -8.006164
    2        1.966117
    3        4.261293
    4        4.646730
    5       14.467302
    6       18.569716
    7       21.981299
    8       21.988122
 
 -0.1666667E+00 -0.2500000E+00  0.1250000E+00  0.6944444E-02
    1       -8.731944
    2        2.745359
    3        4.201245
    4        5.869935
    5       15.200768
    6       19.893935
    7       20.148567
    8       21.286259
 
 -0.8333333E-01 -0.2500000E+00  0.1250000E+00  0.6944444E-02
    1       -9.099679
    2        2.738935
    3        4.196509
    4        7.115163
    5       16.497023
    6       18.489355
    7       20.000194
    8       21.813687
 
 -0.1666667E+00 -0.1666667E+00  0.1250000E+00  0.1736111E-02
    1       -9.585386
    2        3.552335
    3        5.855823
    4        6.404959
    5       14.870422
    6       19.615846
    7       19.744697
    8       20.873301
 
 -0.8333333E-01 -0.1666667E+00  0.1250000E+00  0.3472222E-02
    1      -10.078787
    2        4.367519
    3        5.616327
    4        7.766058
    5       15.591911
    6       18.262917
    7       18.742551
    8       22.048128
 
 -0.8333333E-01 -0.8333333E-01  0.1250000E+00  0.1736111E-02
    1      -10.698806
    2        5.245322
    3        7.336513
    4        8.145392
    5       15.367923
    6       17.472928
    7       17.531038
    8       22.524438
 
  0.1666667E+00  0.8333333E-01  0.2500000E+00  0.3472222E-02
    1      -10.496540
    2        5.434774
    3        6.138430
    4        8.053575
    5       15.205731
    6       17.964308
    7       18.168169
    8       22.145074
 
  0.3333333E+00  0.8333333E-01  0.2500000E+00  0.6944444E-02
    1       -9.263113
    2        3.706762
    3        4.675295
    4        6.205937
    5       14.770330
    6       19.968878
    7       20.114091
    8       20.703301
 
  0.4166667E+00  0.8333333E-01  0.2500000E+00  0.6944444E-02
    1       -8.118192
    2        1.616966
    3        3.914061
    4        5.500303
    5       15.667291
    6       19.871717
    7       20.288626
    8       21.752698
 
  0.5000000E+00  0.8333333E-01  0.2500000E+00  0.2083333E-01
    1       -6.681148
    2       -0.674302
    3        3.511693
    4        4.910848
    5       16.359508
    6       19.832207
    7       21.178524
    8       22.374006
 
 -0.4166667E+00  0.8333333E-01  0.2500000E+00  0.1388889E-01
    1       -5.262572
    2       -2.507106
    3        3.113441
    4        4.818900
    5       16.797780
    6       19.515921
    7       22.037983
    8       23.358658
 
 -0.3333333E+00  0.8333333E-01  0.2500000E+00  0.6944444E-02
    1       -5.684232
    2       -1.980745
    3        2.790699
    4        5.213262
    5       17.277477
    6       19.025532
    7       21.938825
    8       23.853564
 
 -0.2500000E+00  0.8333333E-01  0.2500000E+00  0.2083333E-01
    1       -7.195484
    2        0.130706
    3        2.727699
    4        5.914060
    5       17.823984
    6       18.273041
    7       21.563010
    8       22.586133
 
 -0.1666667E+00  0.8333333E-01  0.2500000E+00  0.6944444E-02
    1       -8.541918
    2        2.208164
    3        3.286752
    4        6.737864
    5       17.064448
    6       18.390669
    7       20.742600
    8       21.724032
 
 -0.8333333E-01  0.8333333E-01  0.2500000E+00  0.6944444E-02
    1       -9.572102
    2        3.104767
    3        5.292010
    4        7.411342
    5       16.048504
    6       18.436728
    7       19.233374
    8       22.070777
 
  0.4166667E+00  0.3333333E+00  0.2500000E+00  0.6944444E-02
    1       -8.307922
    2        0.519019
    3        4.901596
    4        6.658472