   80   80  200    1
  0.9024016E+01  0.1138697E-08  0.7964821E-09  0.7959862E-09  0.5000000E-15
  1.000000000000000E-004
  CAR 
 diamond                                 
    128     27    106
 
  0.0000000E+00  0.0000000E+00  0.0000000E+00  0.1562500E-01
    1      -14.650738
    2      -14.355918
    3      -14.314603
    4      -14.288877
    5      -14.185696
    6      -14.175350
    7      -14.127680
    8      -14.115864
    9      -14.110230
   10      -14.062954
   11      -14.055857
   12      -14.055329
   13      -13.966201
   14      -13.958777
   15      -13.895491
   16      -13.801136
   17       -7.458095
   18       -7.436873
   19       -7.402640
   20       -7.381983
   21       -7.285917
   22       -7.207603
   23       -7.190629
   24       -7.003082
   25       -6.972180
   26       -6.956219
   27       -6.933491
   28       -6.926730
   29       -6.921298
   30       -6.854754
   31       -6.775406
   32       -6.712048
   33       -6.644464
   34       -6.642713
   35       -6.604228
   36       -6.558844
   37       -6.528883
   38       -6.492706
   39       -6.490959
   40       -6.449062
   41       -6.348431
   42       -6.337833
   43       -6.316112
   44       -6.315806
   45       -6.308144
   46       -6.307050
   47       -6.253343
   48       -6.246503
   49       -6.235957
   50       -6.179558
   51       -6.128978
   52       -6.120891
   53       -6.115778
   54       -6.100136
   55       -6.098723
   56       -6.065911
   57       -6.064858
   58       -6.051933
   59       -5.973237
   60       -5.966156
   61       -5.948407
   62       -5.890777
   63       -5.875991
   64       -5.797079
   65        1.698537
   66        2.994045
   67        3.095910
   68        3.358360
   69        3.521782
   70        3.552278
   71        3.649431
   72        3.682291
   73        3.973894
   74        4.149519
   75        4.194083
   76        4.206620
   77        4.221867
   78        4.271714
   79        4.363577
   80        4.363869
   81        4.376000
   82        4.625006
   83        4.934180
   84        5.253522
   85        5.281417
   86        5.429233
   87        5.535391
   88        5.574343
   89        5.610556
   90        5.671144
   91        5.737205
   92        5.804464
   93        5.960947
   94        6.021174
   95        6.116153
   96        6.230312
   97        6.268695
   98        6.279278
   99        6.486817
  100        6.512454
  101        6.553995
  102        6.695377
  103        6.802747
  104        6.913342
  105        7.017612
  106        7.024102
 
  0.2500000E+00  0.0000000E+00  0.0000000E+00  0.3125000E-01
    1      -14.625763
    2      -14.441382
    3      -14.336905
    4      -14.199487
    5      -14.184200
    6      -14.176853
    7      -14.153946
    8      -14.120470
    9      -14.112019
   10      -14.055810
   11      -14.055399
   12      -13.980857
   13      -13.965045
   14      -13.960218
   15      -13.928601
   16      -13.824157
   17       -7.461454
   18       -7.391032
   19       -7.379253
   20       -7.361163
   21       -7.325559
   22       -7.186727
   23       -7.076907
   24       -7.064740
   25       -7.030436
   26       -7.006017
   27       -6.943350
   28       -6.941116
   29       -6.926042
   30       -6.887131
   31       -6.818861
   32       -6.818587
   33       -6.637539
   34       -6.610362
   35       -6.607254
   36       -6.598304
   37       -6.513157
   38       -6.486785
   39       -6.479704
   40       -6.361775
   41       -6.348836
   42       -6.346418
   43       -6.338931
   44       -6.319715
   45       -6.264690
   46       -6.261226
   47       -6.246732
   48       -6.192812
   49       -6.149917
   50       -6.129897
   51       -6.126974
   52       -6.120176
   53       -6.110513
   54       -6.101350
   55       -6.092009
   56       -6.066955
   57       -6.060797
   58       -6.026270
   59       -6.026045
   60       -5.982163
   61       -5.953195
   62       -5.936144
   63       -5.909526
   64       -5.854328
   65        1.804660
   66        2.540510
   67        3.343922
   68        3.454646
   69        3.514764
   70        3.569824
   71        3.660620
   72        3.693735
   73        3.955576
   74        4.048829
   75        4.183410
   76        4.209057
   77        4.243785
   78        4.251006
   79        4.412326
   80        4.458876
   81        4.474762
   82        4.482308
   83        5.099442
   84        5.358615
   85        5.360092
   86        5.510763
   87        5.539841
   88        5.555573
   89        5.654980
   90        5.669724
   91        5.671205
   92        5.690794
   93        5.791068
   94        5.932330
   95        6.091053
   96        6.119878
   97        6.146294
   98        6.162314
   99        6.556861
  100        6.569608
  101        6.642971
  102        6.735640
  103        6.753059
  104        7.017019
  105        7.045545
  106        7.049158
 
  0.5000000E+00  0.0000000E+00  0.0000000E+00  0.1562500E-01
    1      -14.553404
    2      -14.553403
    3      -14.282229
    4      -14.282228
    5      -14.180525
    6      -14.180524
    7      -14.116313
    8      -14.116310
    9      -14.055608
   10      -14.055607
   11      -14.022153
   12      -14.022151
   13      -13.962072
   14      -13.962069
   15      -13.888464
   16      -13.888463
   17       -7.445248
   18       -7.445248
   19       -7.261351
   20       -7.261349
   21       -7.251377
   22       -7.251376
   23       -7.165430
   24       -7.165428
   25       -7.083711
   26       -7.083710
   27       -6.889888
   28       -6.889885
   29       -6.878489
   30       -6.878489
   31       -6.774807
   32       -6.774806
   33       -6.755226
   34       -6.755226
   35       -6.680797
   36       -6.680797
   37       -6.443971
   38       -6.443971
   39       -6.432421
   40       -6.432420
   41       -6.318583
   42       -6.318581
   43       -6.254355
   44       -6.254354
   45       -6.229611
   46       -6.229611
   47       -6.193736
   48       -6.193736
   49       -6.148328
   50       -6.148328
   51       -6.092802
   52       -6.092800
   53       -6.072839
   54       -6.072837
   55       -6.070843
   56       -6.070842
   57       -6.026882
   58       -6.026881
   59       -5.994125
   60       -5.994125
   61       -5.991343
   62       -5.991343
   63       -5.983289
   64       -5.983289
   65        2.103180
   66        2.103181
   67        3.363306
   68        3.363309
   69        3.613124
   70        3.613124
   71        3.831879
   72        3.831881
   73        3.832863
   74        3.832864
   75        4.226779
   76        4.226780
   77        4.293437
   78        4.293439
   79        4.351503
   80        4.351505
   81        4.564906
   82        4.564907
   83        5.348825
   84        5.348825
   85        5.519148
   86        5.519148
   87        5.584291
   88        5.584293
   89        5.592796
   90        5.592796
   91        5.656550
   92        5.656552
   93        5.861731
   94        5.861732
   95        5.918015
   96        5.918015
   97        5.977117
   98        5.977118
   99        6.618367
  100        6.618368
  101        6.799944
  102        6.799946
  103        6.973809
  104        6.974057
  105        6.980157
  106        6.988988
 
  0.0000000E+00  0.2500000E+00  0.0000000E+00  0.3125000E-01
    1      -14.607750
    2      -14.326274
    3      -14.325361
    4      -14.295006
    5      -14.263943
    6      -14.196517
    7      -14.137696
    8      -14.134048
    9      -14.093810
   10      -14.068772
   11      -14.057196
   12      -14.014825
   13      -13.982788
   14      -13.908429
   15      -13.904148
   16      -13.812561
   17       -7.476768
   18       -7.336581
   19       -7.335812
   20       -7.325624
   21       -7.315688
   22       -7.230766
   23       -7.168061
   24       -6.984181
   25       -6.943521
   26       -6.923490
   27       -6.911268
   28       -6.909128
   29       -6.833132
   30       -6.808340
   31       -6.805485
   32       -6.793584
   33       -6.771431
   34       -6.704147
   35       -6.582584
   36       -6.541679
   37       -6.532852
   38       -6.531449
   39       -6.528831
   40       -6.526549
   41       -6.421783
   42       -6.365428
   43       -6.326772
   44       -6.309434
   45       -6.272822
   46       -6.221747
   47       -6.207530
   48       -6.177965
   49       -6.176399
   50       -6.175883
   51       -6.133869
   52       -6.124427
   53       -6.123354
   54       -6.103498
   55       -6.091548
   56       -6.084045
   57       -6.069403
   58       -6.061075
   59       -6.021487
   60       -5.988092
   61       -5.971100
   62       -5.941709
   63       -5.902308
   64       -5.834688
   65        1.917897
   66        3.152512
   67        3.223576
   68        3.239134
   69        3.524578
   70        3.562553
   71        3.612381
   72        3.632533
   73        3.855931
   74        4.016861
   75        4.146266
   76        4.188197
   77        4.195232
   78        4.195693
   79        4.241590
   80        4.600026
   81        4.672998
   82        4.720735
   83        5.006798
   84        5.164509
   85        5.174250
   86        5.409956
   87        5.442986
   88        5.480137
   89        5.514391
   90        5.681975
   91        5.744072
   92        5.748069
   93        5.883058
   94        6.042197
   95        6.083419
   96        6.178427
   97        6.181451
   98        6.363200
   99        6.382391
  100        6.488057
  101        6.547157
  102        6.598901
  103        6.646968
  104        6.779206
  105        6.857996
  106        7.096207
 
  0.2500000E+00  0.2500000E+00  0.0000000E+00  0.6250000E-01
    1      -14.584143
    2      -14.410567
    3      -14.314404
    4      -14.307519
    5      -14.232988
    6      -14.177321
    7      -14.142385
    8      -14.125480
    9      -14.102528
   10      -14.075427
   11      -14.028977
   12      -13.978364
   13      -13.965044
   14      -13.934610
   15      -13.915833
   16      -13.833713
   17       -7.462204
   18       -7.358752
   19       -7.331040
   20       -7.317627
   21       -7.285181
   22       -7.216698
   23       -7.107040
   24       -7.068255
   25       -7.034196
   26       -6.996430
   27       -6.912380
   28       -6.908075
   29       -6.853106
   30       -6.803081
   31       -6.766447
   32       -6.750282
   33       -6.714080
   34       -6.686032
   35       -6.629285
   36       -6.560119
   37       -6.555905
   38       -6.543915
   39       -6.493982
   40       -6.451101
   41       -6.377792
   42       -6.338641
   43       -6.324511
   44       -6.307023
   45       -6.288161
   46       -6.255361
   47       -6.237796
   48       -6.189775
   49       -6.189284
   50       -6.154205
   51       -6.150799
   52       -6.150420
   53       -6.118172
   54       -6.108174
   55       -6.075690
   56       -6.058367
   57       -6.052301
   58       -6.048290
   59       -6.008635
   60       -5.991920
   61       -5.988720
   62       -5.968521
   63       -5.897164
   64       -5.842708
   65        2.013910
   66        2.700959
   67        3.242799
   68        3.447712
   69        3.507452
   70        3.573248
   71        3.641481
   72        3.718739
   73        3.955404
   74        4.032861
   75        4.176305
   76        4.180939
   77        4.197647
   78        4.223886
   79        4.287035
   80        4.519689
   81        4.636262
   82        4.682624
   83        5.173450
   84        5.199382
   85        5.226192
   86        5.402161
   87        5.419426
   88        5.454088
   89        5.458143
   90        5.620292
   91        5.706666
   92        5.783133
   93        5.825643
   94        5.913496
   95        6.033060
   96        6.078532
   97        6.176299
   98        6.365434
   99        6.385561
  100        6.501182
  101        6.525401
  102        6.597664
  103        6.659533
  104        6.800209
  105        6.912998
  106        6.970067
 
  0.5000000E+00  0.2500000E+00  0.0000000E+00  0.3125000E-01
    1      -14.515831
    2      -14.515830
    3      -14.281309
    4      -14.281308
    5      -14.255481
    6      -14.255479
    7      -14.104848
    8      -14.104847
    9      -14.058136
   10      -14.058134
   11      -14.019636
   12      -14.019635
   13      -13.936532
   14      -13.936530
   15      -13.893003
   16      -13.893001
   17       -7.415248
   18       -7.415247
   19       -7.322083
   20       -7.322083
   21       -7.172873
   22       -7.172871
   23       -7.162290
   24       -7.162289
   25       -7.047053
   26       -7.047052
   27       -6.865868
   28       -6.865867
   29       -6.848328
   30       -6.848326
   31       -6.823584
   32       -6.823584
   33       -6.678223
   34       -6.678223
   35       -6.595681
   36       -6.595681
   37       -6.464200
   38       -6.464200
   39       -6.463062
   40       -6.463061
   41       -6.364208
   42       -6.364207
   43       -6.341014
   44       -6.341014
   45       -6.244583
   46       -6.244582
   47       -6.218148
   48       -6.218148
   49       -6.183923
   50       -6.183921
   51       -6.166862
   52       -6.166861
   53       -6.138129
   54       -6.138129
   55       -6.061675
   56       -6.061674
   57       -6.055724
   58       -6.055723
   59       -6.000534
   60       -6.000533
   61       -5.933946
   62       -5.933946
   63       -5.896721
   64       -5.896720
   65        2.288010
   66        2.288011
   67        3.312569
   68        3.312570
   69        3.511073
   70        3.511075
   71        3.825552
   72        3.825553
   73        4.058340
   74        4.058341
   75        4.130869
   76        4.130870
   77        4.255079
   78        4.255080
   79        4.377230
   80        4.377230
   81        4.678642
   82        4.678643
   83        5.193017
   84        5.193017
   85        5.360967
   86        5.360967
   87        5.401173
   88        5.401174
   89        5.552424
   90        5.552424
   91        5.685199
   92        5.685200
   93        5.877305
   94        5.877305
   95        5.908126
   96        5.908127
   97        6.199549
   98        6.199550
   99        6.464421
  100        6.464422
  101        6.663831
  102        6.663832
  103        6.734904
  104        6.734904
  105        6.810662
  106        6.810662
 
  0.0000000E+00  0.5000000E+00  0.0000000E+00  0.1562500E-01
    1      -14.489427
    2      -14.489427
    3      -14.247836
    4      -14.247836
    5      -14.241626
    6      -14.241626
    7      -14.202099
    8      -14.202099
    9      -14.061997
   10      -14.061997
   11      -14.039306
   12      -14.039306
   13      -13.938666
   14      -13.938666
   15      -13.847984
   16      -13.847984
   17       -7.456991
   18       -7.456991
   19       -7.163061
   20       -7.163061
   21       -7.126174
   22       -7.126174
   23       -7.124162
   24       -7.124162
   25       -7.069843
   26       -7.069843
   27       -6.982776
   28       -6.982776
   29       -6.777567
   30       -6.777567
   31       -6.722370
   32       -6.722370
   33       -6.688065
   34       -6.688065
   35       -6.648957
   36       -6.648957
   37       -6.580091
   38       -6.580091
   39       -6.530717
   40       -6.530717
   41       -6.387794
   42       -6.387794
   43       -6.293633
   44       -6.293633
   45       -6.290917
   46       -6.290917
   47       -6.246377
   48       -6.246377
   49       -6.150835
   50       -6.150835
   51       -6.111638
   52       -6.111638
   53       -6.093836
   54       -6.093836
   55       -6.056918
   56       -6.056918
   57       -6.042355
   58       -6.042355
   59       -6.036094
   60       -6.036094
   61       -5.963366
   62       -5.963366
   63       -5.943932
   64       -5.943932
   65        2.494489
   66        2.494489
   67        3.456542
   68        3.456542
   69        3.581634
   70        3.581634
   71        3.625707
   72        3.625707
   73        3.913671
   74        3.913671
   75        3.949307
   76        3.949307
   77        4.161123
   78        4.161123
   79        4.563411
   80        4.563411
   81        4.972720
   82        4.972720
   83        4.996301
   84        4.996301
   85        5.052196
   86        5.052196
   87        5.280507
   88        5.280507
   89        5.795328
   90        5.795328
   91        5.845520
   92        5.845520
   93        5.948454
   94        5.948454
   95        6.092385
   96        6.092385
   97        6.247249
   98        6.247249
   99        6.334718
  100        6.334718
  101        6.358585
  102        6.358585
  103        6.576085
  104        6.576085
  105        6.766435
  106        6.766459
 
  0.2500000E+00  0.5000000E+00  0.0000000E+00  0.3125000E-01
    1      -14.470023
    2      -14.470023
    3      -14.329971
    4      -14.329971
    5      -14.228786
    6      -14.228786
    7      -14.126104
    8      -14.126104
    9      -14.115522
   10      -14.115522
   11      -13.974185
   12      -13.974185
   13      -13.960481
   14      -13.960481
   15      -13.863701
   16      -13.863701
   17       -7.429798
   18       -7.429798
   19       -7.253202
   20       -7.253202
   21       -7.185132
   22       -7.185132
   23       -7.138455
   24       -7.138455
   25       -6.987981
   26       -6.987981
   27       -6.878619
   28       -6.878619
   29       -6.783675
   30       -6.783675
   31       -6.741625
   32       -6.741625
   33       -6.697790
   34       -6.697790
   35       -6.647438
   36       -6.647438
   37       -6.504557
   38       -6.504557
   39       -6.503015
   40       -6.503015
   41       -6.456710
   42       -6.456710
   43       -6.334307
   44       -6.334307
   45       -6.262276
   46       -6.262276
   47       -6.234776
   48       -6.234776
   49       -6.191140
   50       -6.191140
   51       -6.175279
   52       -6.175279
   53       -6.114048
   54       -6.114048
   55       -6.083049
   56       -6.083049
   57       -6.062939
   58       -6.062939
   59       -6.004027
   60       -6.004027
   61       -5.914498
   62       -5.914498
   63       -5.903807
   64       -5.903807
   65        2.561000
   66        2.561000
   67        3.085051
   68        3.085051
   69        3.680399
   70        3.680399
   71        3.887759
   72        3.887759
   73        3.897764
   74        3.897764
   75        4.099128
   76        4.099128
   77        4.122296
   78        4.122296
   79        4.601580
   80        4.601580
   81        4.921159
   82        4.921159
   83        4.929787
   84        4.929787
   85        5.005187
   86        5.005187
   87        5.215639
   88        5.215639
   89        5.733923
   90        5.733923
   91        5.888301
   92        5.888301
   93        5.958759
   94        5.958759
   95        6.124643
   96        6.124643
   97        6.184716
   98        6.184716
   99        6.281342
  100        6.281342
  101        6.413579
  102        6.413579
  103        6.463138
  104        6.463138
  105        6.857628
  106        6.857634
 
  0.5000000E+00  0.5000000E+00  0.0000000E+00  0.1562500E-01
    1      -14.414318
    2      -14.414318
    3      -14.414316
    4      -14.414316
    5      -14.187898
    6      -14.187898
    7      -14.187897
    8      -14.187897
    9      -14.024029
   10      -14.024029
   11      -14.024027
   12      -14.024027
   13      -13.908152
   14      -13.908152
   15      -13.908151
   16      -13.908151
   17       -7.356345
   18       -7.356345
   19       -7.356344
   20       -7.356344
   21       -7.191503
   22       -7.191503
   23       -7.191503
   24       -7.191503
   25       -6.882929
   26       -6.882929
   27       -6.882927
   28       -6.882927
   29       -6.717959
   30       -6.717959
   31       -6.717959
   32       -6.717959
   33       -6.693257
   34       -6.693257
   35       -6.693257
   36       -6.693257
   37       -6.522423
   38       -6.522423
   39       -6.522422
   40       -6.522422
   41       -6.369646
   42       -6.369646
   43       -6.369645
   44       -6.369645
   45       -6.286375
   46       -6.286374
   47       -6.286374
   48       -6.286374
   49       -6.199157
   50       -6.199157
   51       -6.199155
   52       -6.199155
   53       -6.121225
   54       -6.121225
   55       -6.121225
   56       -6.121225
   57       -6.026157
   58       -6.026157
   59       -6.026156
   60       -6.026156
   61       -5.877215
   62       -5.877215
   63       -5.877215
   64       -5.877215
   65        2.760083
   66        2.760083
   67        2.760084
   68        2.760084
   69        3.802050
   70        3.802050
   71        3.802051
   72        3.802051
   73        4.009059
   74        4.009059
   75        4.009059
   76        4.009059
   77        4.556752
   78        4.556752
   79        4.556753
   80        4.556753
   81        4.759483
   82        4.759483
   83        4.759484
   84        4.759484
   85        5.098331
   86        5.098332
   87        5.098332
   88        5.098332
   89        5.776048
   90        5.776048
   91        5.776049
   92        5.776049
   93        6.041354
   94        6.041354
   95        6.041355
   96        6.041355
   97        6.184208
   98        6.184208
   99        6.184208
  100        6.184208
  101        6.503566
  102        6.503566
  103        6.503566
  104        6.503566
  105        6.972352
  106        6.972352
 
  0.0000000E+00  0.0000000E+00  0.2500000E+00  0.3125000E-01
    1      -14.613548
    2      -14.407534
    3      -14.284179
    4      -14.264683
    5      -14.164273
    6      -14.154948
    7      -14.142402
    8      -14.121453
    9      -14.103327
   10      -14.088904
   11      -14.067583
   12      -14.057742
   13      -13.989473
   14      -13.981882
   15      -13.881618
   16      -13.815175
   17       -7.387572
   18       -7.354882
   19       -7.333891
   20       -7.323731
   21       -7.196668
   22       -7.112028
   23       -7.089783
   24       -7.089472
   25       -7.041007
   26       -7.037777
   27       -6.954680
   28       -6.900634
   29       -6.834502
   30       -6.804641
   31       -6.706787
   32       -6.693839
   33       -6.683713
   34       -6.681142
   35       -6.601831
   36       -6.575826
   37       -6.488534
   38       -6.488000
   39       -6.482983
   40       -6.472352
   41       -6.430486
   42       -6.346868
   43       -6.332672
   44       -6.319060
   45       -6.283343
   46       -6.277604
   47       -6.267733
   48       -6.267301
   49       -6.264971
   50       -6.227174
   51       -6.213056
   52       -6.167317
   53       -6.140022
   54       -6.124768
   55       -6.123802
   56       -6.115851
   57       -6.109434
   58       -6.046855
   59       -6.030957
   60       -6.003312
   61       -5.997958
   62       -5.880278
   63       -5.869012
   64       -5.830013
   65        1.947460
   66        3.157199
   67        3.246792
   68        3.454168
   69        3.502685
   70        3.627831
   71        3.714504
   72        3.771244
   73        3.824926
   74        3.931533
   75        4.125707
   76        4.348743
   77        4.356638
   78        4.478507
   79        4.488322
   80        4.580864
   81        4.788032
   82        4.807681
   83        4.837316
   84        5.027269
   85        5.122882
   86        5.156274
   87        5.445204
   88        5.462869
   89        5.525126
   90        5.542114
   91        5.602626
   92        5.621571
   93        5.887114
   94        5.901926
   95        5.915148
   96        5.929895
   97        6.055580
   98        6.590060
   99        6.599870
  100        6.620284
  101        6.679258
  102        6.783465
  103        6.904437
  104        6.925473
  105        7.043578
  106        7.099047
 
  0.2500000E+00  0.0000000E+00  0.2500000E+00  0.6250000E-01
    1      -14.589219
    2      -14.409646
    3      -14.387278
    4      -14.239542
    5      -14.164439
    6      -14.156444
    7      -14.130004
    8      -14.102974
    9      -14.091605
   10      -14.068513
   11      -14.067044
   12      -14.007230
   13      -13.988300
   14      -13.983075
   15      -13.913749
   16      -13.840020
   17       -7.344972
   18       -7.344087
   19       -7.313422
   20       -7.284999
   21       -7.281159
   22       -7.111510
   23       -7.061812
   24       -7.047140
   25       -7.005324
   26       -7.002648
   27       -6.985347
   28       -6.955820
   29       -6.942749
   30       -6.890355
   31       -6.778498
   32       -6.711803
   33       -6.656993
   34       -6.643711
   35       -6.551950
   36       -6.548558
   37       -6.533708
   38       -6.488205
   39       -6.467000
   40       -6.466693
   41       -6.457651
   42       -6.377148
   43       -6.339826
   44       -6.312755
   45       -6.296463
   46       -6.249322
   47       -6.247406
   48       -6.233958
   49       -6.219487
   50       -6.189273
   51       -6.140263
   52       -6.134998
   53       -6.121633
   54       -6.115871
   55       -6.108109
   56       -6.084655
   57       -6.080187
   58       -6.079070
   59       -6.077396
   60       -6.013392
   61       -6.012882
   62       -5.935361
   63       -5.896653
   64       -5.863680
   65        2.046785
   66        2.735119
   67        3.431637
   68        3.467272
   69        3.627343
   70        3.634395
   71        3.714544
   72        3.780361
   73        3.817386
   74        4.012682
   75        4.092218
   76        4.282590
   77        4.383766
   78        4.460761
   79        4.473520
   80        4.630681
   81        4.641123
   82        4.802876
   83        4.977017
   84        5.052933
   85        5.166611
   86        5.182895
   87        5.386517
   88        5.406739
   89        5.511811
   90        5.513975
   91        5.659956
   92        5.729980
   93        5.806971
   94        5.816008
   95        5.940813
   96        5.941678
   97        6.186109
   98        6.256168
   99        6.662024
  100        6.708548
  101        6.759126
  102        6.801861
  103        6.884258
  104        7.052261
  105        7.083979
  106        7.104228
 
  0.5000000E+00  0.0000000E+00  0.2500000E+00  0.3125000E-01
    1      -14.518711
    2      -14.518710
    3      -14.328861
    4      -14.328860
    5      -14.160073
    6      -14.160072
    7      -14.097519
    8      -14.097516
    9      -14.066531
   10      -14.066531
   11      -14.003791
   12      -14.003790
   13      -13.985017
   14      -13.985014
   15      -13.909242
   16      -13.909241
   17       -7.340564
   18       -7.340563
   19       -7.226320
   20       -7.226318
   21       -7.210057
   22       -7.210057
   23       -7.145658
   24       -7.145657
   25       -7.026478
   26       -7.026477
   27       -6.924871
   28       -6.924870
   29       -6.894538
   30       -6.894538
   31       -6.733530
   32       -6.733530
   33       -6.731445
   34       -6.731444
   35       -6.629126
   36       -6.629125
   37       -6.495395
   38       -6.495394
   39       -6.431303
   40       -6.431302
   41       -6.406769
   42       -6.406769
   43       -6.276801
   44       -6.276801
   45       -6.263370
   46       -6.263370
   47       -6.208589
   48       -6.208589
   49       -6.177488
   50       -6.177487
   51       -6.141505
   52       -6.141504
   53       -6.119888
   54       -6.119886
   55       -6.083198
   56       -6.083197
   57       -6.056541
   58       -6.056540
   59       -6.045129
   60       -6.045129
   61       -5.971109
   62       -5.971109
   63       -5.963087
   64       -5.963087
   65        2.326404
   66        2.326406
   67        3.420391
   68        3.420392
   69        3.677391
   70        3.677393
   71        3.797033
   72        3.797033
   73        3.947791
   74        3.947792
   75        4.144167
   76        4.144167
   77        4.462918
   78        4.462920
   79        4.475040
   80        4.475042
   81        4.743262
   82        4.743263
   83        5.109438
   84        5.109439
   85        5.161864
   86        5.161865
   87        5.369170
   88        5.369170
   89        5.477185
   90        5.477185
   91        5.641844
   92        5.641845
   93        5.833648
   94        5.833649
   95        6.118700
   96        6.118700
   97        6.133755
   98        6.133757
   99        6.574592
  100        6.574592
  101        6.762921
  102        6.762921
  103        7.049310
  104        7.049446
  105        7.092149
  106        7.092989
 
  0.0000000E+00  0.2500000E+00  0.2500000E+00  0.6250000E-01
    1      -14.571791
    2      -14.374141
    3      -14.299759
    4      -14.264906
    5      -14.240132
    6      -14.174435
    7      -14.164241
    8      -14.119885
    9      -14.115911
   10      -14.105100
   11      -14.073945
   12      -14.006448
   13      -13.999007
   14      -13.921718
   15      -13.890328
   16      -13.825596
   17       -7.362289
   18       -7.295792
   19       -7.277750
   20       -7.276024
   21       -7.235373
   22       -7.133253
   23       -7.083042
   24       -7.018092
   25       -6.982248
   26       -6.935504
   27       -6.902448
   28       -6.883167
   29       -6.841477
   30       -6.838600
   31       -6.801203
   32       -6.732324
   33       -6.721374
   34       -6.713063
   35       -6.623747
   36       -6.585343
   37       -6.542088
   38       -6.532309
   39       -6.479565
   40       -6.473113
   41       -6.451018
   42       -6.429383
   43       -6.368515
   44       -6.304943
   45       -6.281560