   72   72  200    1
  0.1002668E+02  0.1138697E-08  0.7964821E-09  0.7959862E-09  0.5000000E-15
  1.000000000000000E-004
  CAR 
 diamond                                 
    120     27     98
 
  0.0000000E+00  0.0000000E+00  0.0000000E+00  0.1562500E-01
    1      -14.580769
    2      -14.403645
    3      -14.249739
    4      -14.233056
    5      -14.227071
    6      -14.222633
    7      -14.077107
    8      -14.072213
    9      -14.053954
   10      -13.954647
   11      -13.944310
   12      -13.859541
   13      -13.848066
   14      -13.835306
   15      -13.781167
   16      -13.756496
   17       -8.063804
   18       -7.928818
   19       -7.926675
   20       -7.914518
   21       -7.882323
   22       -7.862452
   23       -7.791983
   24       -7.575454
   25       -7.537006
   26       -7.522973
   27       -7.497147
   28       -7.446385
   29       -7.199436
   30       -7.194711
   31       -7.178068
   32       -7.143462
   33       -7.054362
   34       -7.048931
   35       -6.922740
   36       -6.911674
   37       -6.853274
   38       -6.796834
   39       -6.789022
   40       -6.696604
   41       -6.670042
   42       -6.656372
   43       -6.626735
   44       -6.588738
   45       -6.509331
   46       -6.498095
   47       -6.397671
   48       -6.389520
   49       -6.329066
   50       -6.313434
   51       -6.306702
   52       -6.268832
   53       -6.230803
   54       -6.228653
   55       -6.158790
   56       -6.151342
   57       -2.458020
   58       -2.228064
   59       -2.184037
   60       -2.075660
   61       -1.291136
   62       -1.264161
   63       -1.257150
   64       -1.253934
   65        1.783082
   66        2.967409
   67        2.995395
   68        3.221361
   69        3.347242
   70        3.665415
   71        3.842033
   72        3.851454
   73        3.899395
   74        3.920590
   75        4.180514
   76        4.276436
   77        4.309467
   78        4.337365
   79        4.767953
   80        4.797428
   81        4.896593
   82        4.938092
   83        5.100527
   84        5.234746
   85        5.259172
   86        5.294382
   87        5.555050
   88        5.622472
   89        5.711801
   90        5.717683
   91        5.727609
   92        5.748294
   93        5.825615
   94        5.944813
   95        6.143054
   96        6.196454
   97        6.245861
   98        6.330301
 
  0.2500000E+00  0.0000000E+00  0.0000000E+00  0.3125000E-01
    1      -14.561667
    2      -14.440903
    3      -14.246650
    4      -14.232547
    5      -14.229547
    6      -14.224091
    7      -14.075957
    8      -14.072796
    9      -14.011169
   10      -13.953130
   11      -13.945854
   12      -13.860662
   13      -13.857875
   14      -13.849748
   15      -13.777420
   16      -13.759989
   17       -8.037892
   18       -7.914652
   19       -7.903152
   20       -7.896414
   21       -7.875733
   22       -7.846366
   23       -7.796066
   24       -7.642210
   25       -7.614100
   26       -7.606575
   27       -7.489557
   28       -7.453581
   29       -7.198079
   30       -7.194397
   31       -7.172931
   32       -7.148354
   33       -6.972694
   34       -6.962877
   35       -6.921294
   36       -6.914553
   37       -6.836403
   38       -6.782423
   39       -6.714385
   40       -6.711564
   41       -6.711387
   42       -6.673016
   43       -6.627281
   44       -6.589175
   45       -6.508398
   46       -6.499519
   47       -6.436855
   48       -6.427935
   49       -6.325763
   50       -6.315039
   51       -6.301360
   52       -6.274385
   53       -6.230328
   54       -6.228814
   55       -6.157571
   56       -6.152321
   57       -2.424600
   58       -2.262047
   59       -2.168110
   60       -2.091489
   61       -1.286170
   62       -1.262534
   63       -1.262121
   64       -1.255301
   65        1.890117
   66        2.630257
   67        3.059285
   68        3.289284
   69        3.592861
   70        3.635397
   71        3.721243
   72        3.857454
   73        3.881470
   74        3.956761
   75        4.187436
   76        4.232032
   77        4.276142
   78        4.423769
   79        4.791592
   80        4.832182
   81        4.863115
   82        4.872341
   83        4.966349
   84        5.274696
   85        5.325603
   86        5.401816
   87        5.499300
   88        5.536351
   89        5.568568
   90        5.687173
   91        5.746421
   92        5.765633
   93        5.904653
   94        6.025288
   95        6.077522
   96        6.171350
   97        6.324039
   98        6.335701
 
  0.5000000E+00  0.0000000E+00  0.0000000E+00  0.1562500E-01
    1      -14.509044
    2      -14.509041
    3      -14.239058
    4      -14.239056
    5      -14.227531
    6      -14.227529
    7      -14.074277
    8      -14.074275
    9      -13.949514
   10      -13.949513
   11      -13.928333
   12      -13.928332
   13      -13.853811
   14      -13.853810
   15      -13.768567
   16      -13.768566
   17       -7.971094
   18       -7.971093
   19       -7.889921
   20       -7.889921
   21       -7.771310
   22       -7.771309
   23       -7.746602
   24       -7.746601
   25       -7.740185
   26       -7.740183
   27       -7.471405
   28       -7.471404
   29       -7.195521
   30       -7.195520
   31       -7.160539
   32       -7.160539
   33       -6.920083
   34       -6.920081
   35       -6.841310
   36       -6.841308
   37       -6.824458
   38       -6.824456
   39       -6.747293
   40       -6.747291
   41       -6.689570
   42       -6.689568
   43       -6.565858
   44       -6.565856
   45       -6.505010
   46       -6.505007
   47       -6.501834
   48       -6.501832
   49       -6.319613
   50       -6.319610
   51       -6.287900
   52       -6.287898
   53       -6.229461
   54       -6.229458
   55       -6.154858
   56       -6.154855
   57       -2.343600
   58       -2.343599
   59       -2.129742
   60       -2.129741
   61       -1.274140
   62       -1.274139
   63       -1.258795
   64       -1.258794
   65        2.192149
   66        2.192150
   67        3.308185
   68        3.308188
   69        3.477795
   70        3.477795
   71        3.837064
   72        3.837065
   73        4.003826
   74        4.003828
   75        4.101323
   76        4.101323
   77        4.471944
   78        4.471945
   79        4.633620
   80        4.633622
   81        4.985676
   82        4.985678
   83        5.160852
   84        5.160853
   85        5.330679
   86        5.330681
   87        5.336685
   88        5.336686
   89        5.621991
   90        5.621992
   91        5.877739
   92        5.877739
   93        5.982390
   94        5.982391
   95        6.132427
   96        6.132428
   97        6.309768
   98        6.309769
 
  0.0000000E+00  0.2500000E+00  0.0000000E+00  0.3125000E-01
    1      -14.539527
    2      -14.378419
    3      -14.299343
    4      -14.250493
    5      -14.226941
    6      -14.205288
    7      -14.106677
    8      -14.095856
    9      -14.026300
   10      -13.930503
   11      -13.913970
   12      -13.880408
   13      -13.842549
   14      -13.830749
   15      -13.807690
   16      -13.783430
   17       -7.953278
   18       -7.868771
   19       -7.865780
   20       -7.844310
   21       -7.837925
   22       -7.764746
   23       -7.701965
   24       -7.610212
   25       -7.598925
   26       -7.564577
   27       -7.522563
   28       -7.456429
   29       -7.357327
   30       -7.352322
   31       -7.291604
   32       -7.247805
   33       -6.951619
   34       -6.947496
   35       -6.849581
   36       -6.846988
   37       -6.827597
   38       -6.771879
   39       -6.713099
   40       -6.679148
   41       -6.670201
   42       -6.635919
   43       -6.579739
   44       -6.563777
   45       -6.549444
   46       -6.500507
   47       -6.457274
   48       -6.416636
   49       -6.384161
   50       -6.369502
   51       -6.339964
   52       -6.337181
   53       -6.288181
   54       -6.284620
   55       -6.179166
   56       -6.171046
   57       -2.398474
   58       -2.219317
   59       -2.187984
   60       -2.127823
   61       -1.283531
   62       -1.259401
   63       -1.256787
   64       -1.255226
   65        2.006322
   66        3.127662
   67        3.141584
   68        3.347477
   69        3.421796
   70        3.576320
   71        3.665910
   72        3.815046
   73        3.954088
   74        4.012087
   75        4.075033
   76        4.260517
   77        4.577441
   78        4.617141
   79        4.780190
   80        4.798585
   81        4.876923
   82        4.891774
   83        5.065573
   84        5.103914
   85        5.319966
   86        5.430988
   87        5.494439
   88        5.510158
   89        5.649738
   90        5.678931
   91        5.708165
   92        5.734258
   93        5.896627
   94        5.905357
   95        6.020343
   96        6.037923
   97        6.064850
   98        6.128091
 
  0.2500000E+00  0.2500000E+00  0.0000000E+00  0.6250000E-01
    1      -14.521784
    2      -14.411346
    3      -14.292790
    4      -14.258360
    5      -14.223874
    6      -14.208612
    7      -14.105157
    8      -14.097526
    9      -13.988426
   10      -13.928003
   11      -13.916303
   12      -13.874101
   13      -13.853608
   14      -13.847359
   15      -13.804113
   16      -13.786915
   17       -7.946858
   18       -7.850742
   19       -7.841364
   20       -7.825161
   21       -7.805773
   22       -7.792567
   23       -7.715169
   24       -7.666185
   25       -7.620089
   26       -7.596174
   27       -7.545230
   28       -7.471410
   29       -7.325407
   30       -7.324797
   31       -7.287899
   32       -7.255184
   33       -6.915246
   34       -6.903714
   35       -6.843155
   36       -6.840663
   37       -6.827705
   38       -6.765104
   39       -6.738501
   40       -6.671128
   41       -6.657159
   42       -6.655708
   43       -6.614140
   44       -6.544162
   45       -6.544087
   46       -6.509772
   47       -6.487411
   48       -6.452884
   49       -6.360175
   50       -6.351857
   51       -6.339453
   52       -6.337229
   53       -6.289150
   54       -6.285975
   55       -6.177838
   56       -6.172150
   57       -2.372187
   58       -2.245525
   59       -2.178853
   60       -2.136301
   61       -1.279420
   62       -1.259393
   63       -1.259049
   64       -1.257183
   65        2.104811
   66        2.798294
   67        3.207899
   68        3.418070
   69        3.436420
   70        3.565134
   71        3.734697
   72        3.770876
   73        3.853934
   74        4.093817
   75        4.196890
   76        4.321146
   77        4.616093
   78        4.662501
   79        4.783124
   80        4.793426
   81        4.867715
   82        4.944106
   83        4.945218
   84        5.150925
   85        5.279798
   86        5.350579
   87        5.465246
   88        5.500007
   89        5.576289
   90        5.661856
   91        5.703035
   92        5.786363
   93        5.795416
   94        5.864900
   95        5.883930
   96        6.074988
   97        6.136564
   98        6.203767
 
  0.5000000E+00  0.2500000E+00  0.0000000E+00  0.3125000E-01
    1      -14.473171
    2      -14.473169
    3      -14.276219
    4      -14.276217
    5      -14.216384
    6      -14.216381
    7      -14.101433
    8      -14.101430
    9      -13.922184
   10      -13.922183
   11      -13.914363
   12      -13.914362
   13      -13.860009
   14      -13.860008
   15      -13.795461
   16      -13.795460
   17       -7.905733
   18       -7.905733
   19       -7.790391
   20       -7.790390
   21       -7.767596
   22       -7.767596
   23       -7.713387
   24       -7.713386
   25       -7.690066
   26       -7.690065
   27       -7.506449
   28       -7.506449
   29       -7.301919
   30       -7.301918
   31       -7.275480
   32       -7.275480
   33       -6.848260
   34       -6.848257
   35       -6.839763
   36       -6.839761
   37       -6.804691
   38       -6.804690
   39       -6.731215
   40       -6.731213
   41       -6.657841
   42       -6.657838
   43       -6.586361
   44       -6.586360
   45       -6.528869
   46       -6.528866
   47       -6.482482
   48       -6.482480
   49       -6.345525
   50       -6.345523
   51       -6.338240
   52       -6.338237
   53       -6.288616
   54       -6.288614
   55       -6.174909
   56       -6.174906
   57       -2.308806
   58       -2.308805
   59       -2.157243
   60       -2.157243
   61       -1.269443
   62       -1.269442
   63       -1.258139
   64       -1.258138
   65        2.385317
   66        2.385319
   67        3.414974
   68        3.414977
   69        3.506895
   70        3.506897
   71        3.564389
   72        3.564389
   73        4.074517
   74        4.074518
   75        4.433893
   76        4.433894
   77        4.636336
   78        4.636337
   79        4.784024
   80        4.784026
   81        4.808776
   82        4.808778
   83        5.056726
   84        5.056726
   85        5.267880
   86        5.267881
   87        5.529740
   88        5.529741
   89        5.543088
   90        5.543089
   91        5.718949
   92        5.718949
   93        5.828781
   94        5.828782
   95        5.947382
   96        5.947382
   97        6.228790
   98        6.228791
 
  0.0000000E+00  0.5000000E+00  0.0000000E+00  0.1562500E-01
    1      -14.430316
    2      -14.430316
    3      -14.315759
    4      -14.315759
    5      -14.169590
    6      -14.169590
    7      -14.151540
    8      -14.151540
    9      -13.955410
   10      -13.955410
   11      -13.870757
   12      -13.870757
   13      -13.847958
   14      -13.847958
   15      -13.827117
   16      -13.827117
   17       -7.752566
   18       -7.752566
   19       -7.746667
   20       -7.746667
   21       -7.683088
   22       -7.683088
   23       -7.672175
   24       -7.672175
   25       -7.622979
   26       -7.622979
   27       -7.531773
   28       -7.531773
   29       -7.488523
   30       -7.488523
   31       -7.479881
   32       -7.479881
   33       -6.851700
   34       -6.851700
   35       -6.793506
   36       -6.793506
   37       -6.642912
   38       -6.642912
   39       -6.635065
   40       -6.635065
   41       -6.623796
   42       -6.623796
   43       -6.592325
   44       -6.592325
   45       -6.543634
   46       -6.543634
   47       -6.534023
   48       -6.534023
   49       -6.486944
   50       -6.486944
   51       -6.486181
   52       -6.486181
   53       -6.229188
   54       -6.229188
   55       -6.224945
   56       -6.224945
   57       -2.259681
   58       -2.259681
   59       -2.201246
   60       -2.201246
   61       -1.267842
   62       -1.267842
   63       -1.254089
   64       -1.254089
   65        2.601871
   66        2.601871
   67        3.456397
   68        3.456397
   69        3.523468
   70        3.523468
   71        3.750563
   72        3.750563
   73        4.039993
   74        4.039993
   75        4.399952
   76        4.399952
   77        4.506146
   78        4.506146
   79        4.620057
   80        4.620057
   81        5.047651
   82        5.047651
   83        5.205757
   84        5.205757
   85        5.314281
   86        5.314281
   87        5.353855
   88        5.353855
   89        5.576161
   90        5.576161
   91        5.804214
   92        5.804214
   93        5.843547
   94        5.843547
   95        5.887875
   96        5.887875
   97        6.083514
   98        6.115143
 
  0.2500000E+00  0.5000000E+00  0.0000000E+00  0.3125000E-01
    1      -14.416731
    2      -14.416731
    3      -14.337108
    4      -14.337108
    5      -14.167073
    6      -14.167073
    7      -14.154316
    8      -14.154316
    9      -13.932022
   10      -13.932022
   11      -13.867252
   12      -13.867252
   13      -13.851128
   14      -13.851128
   15      -13.842665
   16      -13.842665
   17       -7.777580
   18       -7.777580
   19       -7.771074
   20       -7.771074
   21       -7.688356
   22       -7.688356
   23       -7.619570
   24       -7.619570
   25       -7.601492
   26       -7.601492
   27       -7.526012
   28       -7.526012
   29       -7.495326
   30       -7.495326
   31       -7.485738
   32       -7.485738
   33       -6.842661
   34       -6.842661
   35       -6.800863
   36       -6.800863
   37       -6.670457
   38       -6.670457
   39       -6.640140
   40       -6.640140
   41       -6.623697
   42       -6.623697
   43       -6.590033
   44       -6.590033
   45       -6.585673
   46       -6.585673
   47       -6.549674
   48       -6.549674
   49       -6.454897
   50       -6.454897
   51       -6.444201
   52       -6.444201
   53       -6.228446
   54       -6.228446
   55       -6.225589
   56       -6.225589
   57       -2.250626
   58       -2.250626
   59       -2.209311
   60       -2.209311
   61       -1.265912
   62       -1.265912
   63       -1.256182
   64       -1.256182
   65        2.671992
   66        2.671992
   67        3.192629
   68        3.192629
   69        3.559526
   70        3.559526
   71        3.752156
   72        3.752156
   73        4.285096
   74        4.285096
   75        4.451159
   76        4.451159
   77        4.497205
   78        4.497205
   79        4.674173
   80        4.674173
   81        5.008042
   82        5.008042
   83        5.048409
   84        5.048409
   85        5.294865
   86        5.294865
   87        5.467235
   88        5.467235
   89        5.586443
   90        5.586443
   91        5.599219
   92        5.599219
   93        5.936617
   94        5.936617
   95        5.947134
   96        5.947134
   97        6.012966
   98        6.012966
 
  0.5000000E+00  0.5000000E+00  0.0000000E+00  0.1562500E-01
    1      -14.380520
    2      -14.380520
    3      -14.380517
    4      -14.380517
    5      -14.160850
    6      -14.160850
    7      -14.160848
    8      -14.160848
    9      -13.883765
   10      -13.883765
   11      -13.883764
   12      -13.883764
   13      -13.859021
   14      -13.859021
   15      -13.859021
   16      -13.859021
   17       -7.793234
   18       -7.793234
   19       -7.793234
   20       -7.793233
   21       -7.648901
   22       -7.648901
   23       -7.648900
   24       -7.648900
   25       -7.537164
   26       -7.537164
   27       -7.537164
   28       -7.537164
   29       -7.496735
   30       -7.496735
   31       -7.496735
   32       -7.496735
   33       -6.821629
   34       -6.821629
   35       -6.821627
   36       -6.821627
   37       -6.678870
   38       -6.678870
   39       -6.678870
   40       -6.678870
   41       -6.603858
   42       -6.603858
   43       -6.603857
   44       -6.603857
   45       -6.577049
   46       -6.577049
   47       -6.577048
   48       -6.577048
   49       -6.426306
   50       -6.426306
   51       -6.426306
   52       -6.426306
   53       -6.227021
   54       -6.227021
   55       -6.227018
   56       -6.227018
   57       -2.229494
   58       -2.229494
   59       -2.229494
   60       -2.229494
   61       -1.261136
   62       -1.261136
   63       -1.261135
   64       -1.261135
   65        2.877054
   66        2.877054
   67        2.877056
   68        2.877056
   69        3.652747
   70        3.652747
   71        3.652748
   72        3.652748
   73        4.467416
   74        4.467416
   75        4.467416
   76        4.467416
   77        4.665196
   78        4.665196
   79        4.665196
   80        4.665196
   81        4.982207
   82        4.982207
   83        4.982208
   84        4.982208
   85        5.261034
   86        5.261034
   87        5.261034
   88        5.261034
   89        5.620957
   90        5.620957
   91        5.620957
   92        5.620957
   93        5.922511
   94        5.922511
   95        5.922512
   96        5.922512
   97        6.094885
   98        6.094885
 
  0.0000000E+00  0.0000000E+00  0.2500000E+00  0.3125000E-01
    1      -14.543165
    2      -14.378997
    3      -14.317662
    4      -14.254202
    5      -14.211093
    6      -14.201447
    7      -14.100537
    8      -14.095145
    9      -14.038946
   10      -13.961089
   11      -13.920395
   12      -13.853606
   13      -13.848004
   14      -13.823892
   15      -13.792573
   16      -13.768206
   17       -8.029621
   18       -7.910437
   19       -7.881119
   20       -7.870697
   21       -7.866227
   22       -7.839251
   23       -7.824018
   24       -7.609792
   25       -7.606889
   26       -7.587082
   27       -7.511446
   28       -7.457446
   29       -7.193373
   30       -7.188390
   31       -7.174855
   32       -7.156286
   33       -7.020781
   34       -6.955843
   35       -6.927697
   36       -6.851205
   37       -6.792762
   38       -6.787903
   39       -6.771037
   40       -6.636903
   41       -6.634423
   42       -6.608297
   43       -6.607278
   44       -6.598536
   45       -6.517955
   46       -6.495373
   47       -6.440232
   48       -6.421797
   49       -6.413400
   50       -6.385385
   51       -6.295745
   52       -6.261284
   53       -6.255060
   54       -6.244928
   55       -6.242068
   56       -6.233591
   57       -2.315495
   58       -2.119919
   59       -2.064391
   60       -1.968925
   61       -1.483630
   62       -1.474476
   63       -1.407788
   64       -1.387328
   65        2.031443
   66        3.136874
   67        3.162632
   68        3.292112
   69        3.370882
   70        3.398355
   71        3.844799
   72        3.973838
   73        4.059211
   74        4.089314
   75        4.118557
   76        4.127377
   77        4.337648
   78        4.388704
   79        4.730671
   80        4.876392
   81        4.902983
   82        4.913904
   83        5.107642
   84        5.210940
   85        5.224719
   86        5.243753
   87        5.294804
   88        5.341820
   89        5.406031
   90        5.667531
   91        5.769945
   92        5.908262
   93        5.916708
   94        5.921170
   95        6.045402
   96        6.129307
   97        6.238561
   98        6.384758
 
  0.2500000E+00  0.0000000E+00  0.2500000E+00  0.6250000E-01
    1      -14.525235
    2      -14.412959
    3      -14.309558
    4      -14.265006
    5      -14.209661
    6      -14.202863
    7      -14.099674
    8      -14.095911
    9      -14.000224
   10      -13.953237
   11      -13.924807
   12      -13.869295
   13      -13.846237
   14      -13.832846
   15      -13.789418
   16      -13.772137
   17       -8.007938
   18       -7.904108
   19       -7.892831
   20       -7.877676
   21       -7.839651
   22       -7.813373
   23       -7.799383
   24       -7.656418
   25       -7.651032
   26       -7.587656
   27       -7.571004
   28       -7.480602
   29       -7.188590
   30       -7.186409
   31       -7.171176
   32       -7.154307
   33       -6.949203
   34       -6.917299
   35       -6.909968
   36       -6.862160
   37       -6.789978
   38       -6.770945
   39       -6.729051
   40       -6.655992
   41       -6.647808
   42       -6.633677
   43       -6.620098
   44       -6.578506
   45       -6.507001
   46       -6.504573
   47       -6.480027
   48       -6.441408
   49       -6.410141
   50       -6.388922
   51       -6.291194
   52       -6.267536
   53       -6.250444
   54       -6.244767
   55       -6.240953
   56       -6.234852
   57       -2.286328
   58       -2.147860
   59       -2.050572
   60       -1.983239
   61       -1.481115
   62       -1.474794
   63       -1.404945
   64       -1.390363
   65        2.124258
   66        2.790522
   67        3.216038
   68        3.300244
   69        3.349034
   70        3.724241
   71        3.757389
   72        3.990050
   73        4.074166
   74        4.099876
   75        4.118100
   76        4.159356
   77        4.313411
   78        4.379988
   79        4.683954
   80        4.750470
   81        4.829507
   82        4.961225
   83        5.122611
   84        5.183764
   85        5.205982
   86        5.325188
   87        5.338278
   88        5.366946
   89        5.532137
   90        5.633162
   91        5.736757
   92        5.807578
   93        5.910881
   94        5.989433
   95        6.061407
   96        6.072476
   97        6.136030
   98        6.352659
 
  0.5000000E+00  0.0000000E+00  0.2500000E+00  0.3125000E-01
    1      -14.476015
    2      -14.476013
    3      -14.288584
    4      -14.288582
    5      -14.206272
    6      -14.206269
    7      -14.097782
    8      -14.097780
    9      -13.937333
   10      -13.937332
   11      -13.926055
   12      -13.926054
   13      -13.841413
   14      -13.841412
   15      -13.781171
   16      -13.781170
   17       -7.952785
   18       -7.952784
   19       -7.889147
   20       -7.889146
   21       -7.756460
   22       -7.756460
   23       -7.732823
   24       -7.732823
   25       -7.718498
   26       -7.718497
   27       -7.529067
   28       -7.529066
   29       -7.184500
   30       -7.184500
   31       -7.161819
   32       -7.161818
   33       -6.890922
   34       -6.890919
   35       -6.825086
   36       -6.825084
   37       -6.823323
   38       -6.823322
   39       -6.670422
   40       -6.670421
   41       -6.651792
   42       -6.651789
   43       -6.603954
   44       -6.603952
   45       -6.508584
   46       -6.508582
   47       -6.494506
   48       -6.494504
   49       -6.398103
   50       -6.398101
   51       -6.279744
   52       -6.279742
   53       -6.245856
   54       -6.245854
   55       -6.238019
   56       -6.238016
   57       -2.216513
   58       -2.216512
   59       -2.017109
   60       -2.017108
   61       -1.476862
   62       -1.476862
   63       -1.397748
   64       -1.397747
   65        2.390716
   66        2.390718
   67        3.303272
   68        3.303272
   69        3.475145
   70        3.475147
   71        3.959010
   72        3.959011
   73        4.111888
   74        4.111888
   75        4.155467
   76        4.155469
   77        4.409103
   78        4.409104
   79        4.520588
   80        4.520588
   81        5.057580
   82        5.057580
   83        5.083012
   84        5.083014
   85        5.205782
   86        5.205783
   87        5.374631
   88        5.374633
   89        5.580194
   90        5.580195
   91        5.864359
   92        5.864359
   93        5.887753
   94        5.887753
   95        6.025389
   96        6.025389
   97        6.224100
   98        6.224101
 
  0.0000000E+00  0.2500000E+00  0.2500000E+00  0.6250000E-01
    1      -14.503356
    2      -14.354211
    3      -14.289271
    4      -14.273504
    5      -14.231867
    6      -14.228742
    7      -14.137811
    8      -14.119472
    9      -14.011137
   10      -13.932422
   11      -13.903281
   12      -13.872809
   13      -13.835186
   14      -13.830223
   15      -13.809390
   16      -13.794781
   17       -7.922088
   18       -7.827839
   19       -7.826225
   20       -7.825081
   21       -7.789154
   22       -7.769722
   23       -7.746865
   24       -7.629074
   25       -7.612875
   26       -7.587393
   27       -7.578651
   28       -7.478172
   29       -7.338587
   30       -7.330461
   31       -7.288788
   32       -7.265195
   33       -6.932352
   34       -6.876517
   35       -6.865981
   36       -6.820832
   37       -6.747424
   38       -6.739173
   39       -6.687204
   40       -6.681195
   41       -6.618796
   42       -6.603515
   43       -6.576027
   44       -6.565310
   45       -6.532199
   46       -6.505297
   47       -6.491738
   48       -6.446981
   49       -6.395297
   50       -6.382525
   51       -6.369123
   52       -6.342749
   53       -6.341665
   54       -6.327822
   55       -6.267169
   56       -6.263857
   57       -2.261170
   58       -2.109839
   59       -2.069892
   60       -2.015445
   61       -1.465640
   62       -1.461008
   63       -1.413187
   64       -1.397238
   65        2.230095
   66        3.241509
   67        3.310282
   68        3.420888
   69        3.435185
   70        3.481683
   71        3.618524
   72        3.845635
   73        4.114675
   74        4.172433
   75        4.205673
   76        4.231954
   77        4.461282
   78        4.665518
   79        4.740422
   80        4.792885
   81        4.918174
   82        4.920841
   83        5.001178
   84        5.059465
   85        5.247400
   86        5.343111
   87        5.441389
   88        5.455286
   89        5.507336
   90        5.593722
   91        5.756010
   92        5.807920
   93        5.839330
   94        5.876699
   95        6.007335
   96        6.046549
   97        6.063642
   98        6.208698
 
  0.2500000E+00  0.2500000E+00  0.2500000E+00  0.1250000E+00
    1      -14.486721
    2      -14.384204
    3      -14.281873
    4      -14.267478
    5      -14.241500
    6      -14.235891
    7      -14.135193
    8      -14.122248
    9      -13.977192
   10      -13.925925
   11      -13.905588
   12      -13.870822
   13      -13.847398
   14      -13.839441
   15      -13.808234
   16      -13.797868
   17       -7.914363
   18       -7.831959
   19       -7.806367
   20       -7.799059
   21       -7.789934
   22       -7.765983
   23       -7.740811
   24       -7.669456
   25       -7.626088
   26       -7.605395
   27       -7.595437
   28       -7.501744
   29       -7.319093
   30       -7.316756
   31       -7.288293
   32       -7.271214
   33       -6.896287
   34       -6.848933
   35       -6.847592
   36       -6.816208
   37       -6.751699
   38       -6.750232
   39       -6.687417
   40       -6.666922