# Thermal properties / unit cell (natom)

unit:
  temperature:   K
  free_energy:   kJ/mol
  entropy:       J/K/mol
  heat_capacity: J/K/mol

natom:     2
num_modes: 1944
num_integrated_modes: 1944

zero_point_energy:      33.8007879
high_T_entropy:        109.9080170

thermal_properties:
- temperature:         0.0000000
  free_energy:        33.8007879
  entropy:             0.0000000
  heat_capacity:       0.0000000
  energy:             33.8007879

- temperature:        10.0000000
  free_energy:        33.8007879
  entropy:             0.0000000
  heat_capacity:       0.0000000
  energy:             33.8007879

- temperature:        20.0000000
  free_energy:        33.8007878
  entropy:             0.0000062
  heat_capacity:       0.0000755
  energy:             33.8007880

- temperature:        30.0000000
  free_energy:        33.8007867
  entropy:             0.0003682
  heat_capacity:       0.0030234
  energy:             33.8007978

- temperature:        40.0000000
  free_energy:        33.8007733
  entropy:             0.0029138
  heat_capacity:       0.0183075
  energy:             33.8008899

- temperature:        50.0000000
  free_energy:        33.8007118
  entropy:             0.0104466
  heat_capacity:       0.0545083
  energy:             33.8012341

- temperature:        60.0000000
  free_energy:        33.8005394
  entropy:             0.0254528
  heat_capacity:       0.1166740
  energy:             33.8020666

- temperature:        70.0000000
  free_energy:        33.8001710
  entropy:             0.0499789
  heat_capacity:       0.2094533
  energy:             33.8036695

- temperature:        80.0000000
  free_energy:        33.7995018
  entropy:             0.0859324
  heat_capacity:       0.3384531
  energy:             33.8063763

- temperature:        90.0000000
  free_energy:        33.7984078
  entropy:             0.1352370
  heat_capacity:       0.5096005
  energy:             33.8105792

- temperature:       100.0000000
  free_energy:        33.7967461
  entropy:             0.1997977
  heat_capacity:       0.7279582
  energy:             33.8167259

- temperature:       110.0000000
  free_energy:        33.7943551
  entropy:             0.2813836
  heat_capacity:       0.9969433
  energy:             33.8253073

- temperature:       120.0000000
  free_energy:        33.7910566
  entropy:             0.3815208
  heat_capacity:       1.3181726
  energy:             33.8368391

- temperature:       130.0000000
  free_energy:        33.7866587
  entropy:             0.5014354
  heat_capacity:       1.6917398
  energy:             33.8518453

- temperature:       140.0000000
  free_energy:        33.7809589
  entropy:             0.6420443
  heat_capacity:       2.1166419
  energy:             33.8708451

- temperature:       150.0000000
  free_energy:        33.7737467
  entropy:             0.8039792
  heat_capacity:       2.5911609
  energy:             33.8943436

- temperature:       160.0000000
  free_energy:        33.7648069
  entropy:             0.9876223
  heat_capacity:       3.1131239
  energy:             33.9228265

- temperature:       170.0000000
  free_energy:        33.7539213
  entropy:             1.1931449
  heat_capacity:       3.6800429
  energy:             33.9567560

- temperature:       180.0000000
  free_energy:        33.7408711
  entropy:             1.4205388
  heat_capacity:       4.2891730
  energy:             33.9965681

- temperature:       190.0000000
  free_energy:        33.7254382
  entropy:             1.6696423
  heat_capacity:       4.9375309
  energy:             34.0426702

- temperature:       200.0000000
  free_energy:        33.7074069
  entropy:             1.9401596
  heat_capacity:       5.6219046
  energy:             34.0954388

- temperature:       210.0000000
  free_energy:        33.6865650
  entropy:             2.2316762
  heat_capacity:       6.3388723
  energy:             34.1552170

- temperature:       220.0000000
  free_energy:        33.6627051
  entropy:             2.5436719
  heat_capacity:       7.0848369
  energy:             34.2223129

- temperature:       230.0000000
  free_energy:        33.6356253
  entropy:             2.8755333
  heat_capacity:       7.8560756
  energy:             34.2969980

- temperature:       240.0000000
  free_energy:        33.6051305
  entropy:             3.2265647
  heat_capacity:       8.6487987
  energy:             34.3795060

- temperature:       250.0000000
  free_energy:        33.5710327
  entropy:             3.5960010
  heat_capacity:       9.4592132
  energy:             34.4700329

- temperature:       260.0000000
  free_energy:        33.5331519
  entropy:             3.9830190
  heat_capacity:      10.2835840
  energy:             34.5687368

- temperature:       270.0000000
  free_energy:        33.4913166
  entropy:             4.3867498
  heat_capacity:      11.1182910
  energy:             34.6757390

- temperature:       280.0000000
  free_energy:        33.4453642
  entropy:             4.8062906
  heat_capacity:      11.9598765
  energy:             34.7911255

- temperature:       290.0000000
  free_energy:        33.3951411
  entropy:             5.2407154
  heat_capacity:      12.8050839
  energy:             34.9149486

- temperature:       300.0000000
  free_energy:        33.3405034
  entropy:             5.6890859
  heat_capacity:      13.6508864
  energy:             35.0472291

- temperature:       310.0000000
  free_energy:        33.2813161
  entropy:             6.1504611
  heat_capacity:      14.4945056
  energy:             35.1879590

- temperature:       320.0000000
  free_energy:        33.2174539
  entropy:             6.6239051
  heat_capacity:      15.3334221
  energy:             35.3371036

- temperature:       330.0000000
  free_energy:        33.1488008
  entropy:             7.1084952
  heat_capacity:      16.1653785
  energy:             35.4946042

- temperature:       340.0000000
  free_energy:        33.0752499
  entropy:             7.6033275
  heat_capacity:      16.9883764
  energy:             35.6603812

- temperature:       350.0000000
  free_energy:        32.9967031
  entropy:             8.1075228
  heat_capacity:      17.8006682
  energy:             35.8343360

- temperature:       360.0000000
  free_energy:        32.9130710
  entropy:             8.6202300
  heat_capacity:      18.6007456
  energy:             36.0163539

- temperature:       370.0000000
  free_energy:        32.8242728
  entropy:             9.1406300
  heat_capacity:      19.3873259
  energy:             36.2063059

- temperature:       380.0000000
  free_energy:        32.7302354
  entropy:             9.6679378
  heat_capacity:      20.1593355
  energy:             36.4040518

- temperature:       390.0000000
  free_energy:        32.6308935
  entropy:            10.2014041
  heat_capacity:      20.9158939
  energy:             36.6094411

- temperature:       400.0000000
  free_energy:        32.5261892
  entropy:            10.7403165
  heat_capacity:      21.6562960
  energy:             36.8223158

- temperature:       410.0000000
  free_energy:        32.4160713
  entropy:            11.2840001
  heat_capacity:      22.3799958
  energy:             37.0425114

- temperature:       420.0000000
  free_energy:        32.3004954
  entropy:            11.8318173
  heat_capacity:      23.0865893
  energy:             37.2698587

- temperature:       430.0000000
  free_energy:        32.1794232
  entropy:            12.3831674
  heat_capacity:      23.7757994
  energy:             37.5041852

- temperature:       440.0000000
  free_energy:        32.0528222
  entropy:            12.9374863
  heat_capacity:      24.4474605
  energy:             37.7453162

- temperature:       450.0000000
  free_energy:        31.9206653
  entropy:            13.4942452
  heat_capacity:      25.1015053
  energy:             37.9930757

- temperature:       460.0000000
  free_energy:        31.7829308
  entropy:            14.0529496
  heat_capacity:      25.7379516
  energy:             38.2472876

- temperature:       470.0000000
  free_energy:        31.6396014
  entropy:            14.6131382
  heat_capacity:      26.3568909
  energy:             38.5077763

- temperature:       480.0000000
  free_energy:        31.4906645
  entropy:            15.1743813
  heat_capacity:      26.9584778
  energy:             38.7743676

- temperature:       490.0000000
  free_energy:        31.3361116
  entropy:            15.7362799
  heat_capacity:      27.5429201
  energy:             39.0468887

- temperature:       500.0000000
  free_energy:        31.1759380
  entropy:            16.2984634
  heat_capacity:      28.1104709
  energy:             39.3251697

- temperature:       510.0000000
  free_energy:        31.0101425
  entropy:            16.8605888
  heat_capacity:      28.6614203
  energy:             39.6090428

- temperature:       520.0000000
  free_energy:        30.8387274
  entropy:            17.4223391
  heat_capacity:      29.1960890
  energy:             39.8983438

- temperature:       530.0000000
  free_energy:        30.6616980
  entropy:            17.9834217
  heat_capacity:      29.7148222
  energy:             40.1929115

- temperature:       540.0000000
  free_energy:        30.4790621
  entropy:            18.5435670
  heat_capacity:      30.2179842
  energy:             40.4925883

- temperature:       550.0000000
  free_energy:        30.2908306
  entropy:            19.1025271
  heat_capacity:      30.7059542
  energy:             40.7972205

- temperature:       560.0000000
  free_energy:        30.0970163
  entropy:            19.6600746
  heat_capacity:      31.1791217
  energy:             41.1066581

- temperature:       570.0000000
  free_energy:        29.8976345
  entropy:            20.2160008
  heat_capacity:      31.6378835
  energy:             41.4207549

- temperature:       580.0000000
  free_energy:        29.6927023
  entropy:            20.7701150
  heat_capacity:      32.0826405
  energy:             41.7393691

- temperature:       590.0000000
  free_energy:        29.4822388
  entropy:            21.3222434
  heat_capacity:      32.5137949
  energy:             42.0623624

- temperature:       600.0000000
  free_energy:        29.2662646
  entropy:            21.8722272
  heat_capacity:      32.9317487
  energy:             42.3896010

- temperature:       610.0000000
  free_energy:        29.0448019
  entropy:            22.4199226
  heat_capacity:      33.3369009
  energy:             42.7209547

- temperature:       620.0000000
  free_energy:        28.8178742
  entropy:            22.9651990
  heat_capacity:      33.7296468
  energy:             43.0562976

- temperature:       630.0000000
  free_energy:        28.5855064
  entropy:            23.5079384
  heat_capacity:      34.1103761
  energy:             43.3955076

- temperature:       640.0000000
  free_energy:        28.3477243
  entropy:            24.0480345
  heat_capacity:      34.4794720
  energy:             43.7384664

- temperature:       650.0000000
  free_energy:        28.1045548
  entropy:            24.5853918
  heat_capacity:      34.8373107
  energy:             44.0850595

- temperature:       660.0000000
  free_energy:        27.8560259
  entropy:            25.1199249
  heat_capacity:      35.1842599
  energy:             44.4351763

- temperature:       670.0000000
  free_energy:        27.6021660
  entropy:            25.6515576
  heat_capacity:      35.5206790
  energy:             44.7887096

- temperature:       680.0000000
  free_energy:        27.3430046
  entropy:            26.1802225
  heat_capacity:      35.8469184
  energy:             45.1455559

- temperature:       690.0000000
  free_energy:        27.0785716
  entropy:            26.7058602
  heat_capacity:      36.1633190
  energy:             45.5056152

- temperature:       700.0000000
  free_energy:        26.8088977
  entropy:            27.2284185
  heat_capacity:      36.4702122
  energy:             45.8687906

- temperature:       710.0000000
  free_energy:        26.5340137
  entropy:            27.7478523
  heat_capacity:      36.7679200
  energy:             46.2349888

- temperature:       720.0000000
  free_energy:        26.2539512
  entropy:            28.2641226
  heat_capacity:      37.0567543
  energy:             46.6041194

- temperature:       730.0000000
  free_energy:        25.9687419
  entropy:            28.7771965
  heat_capacity:      37.3370176
  energy:             46.9760953

- temperature:       740.0000000
  free_energy:        25.6784180
  entropy:            29.2870462
  heat_capacity:      37.6090025
  energy:             47.3508322

- temperature:       750.0000000
  free_energy:        25.3830118
  entropy:            29.7936492
  heat_capacity:      37.8729922
  energy:             47.7282487

- temperature:       760.0000000
  free_energy:        25.0825559
  entropy:            30.2969874
  heat_capacity:      38.1292603
  energy:             48.1082663

- temperature:       770.0000000
  free_energy:        24.7770830
  entropy:            30.7970469
  heat_capacity:      38.3780714
  energy:             48.4908091

- temperature:       780.0000000
  free_energy:        24.4666259
  entropy:            31.2938177
  heat_capacity:      38.6196806
  energy:             48.8758037

- temperature:       790.0000000
  free_energy:        24.1512176
  entropy:            31.7872935
  heat_capacity:      38.8543345
  energy:             49.2631795

- temperature:       800.0000000
  free_energy:        23.8308910
  entropy:            32.2774713
  heat_capacity:      39.0822707
  energy:             49.6528680

- temperature:       810.0000000
  free_energy:        23.5056792
  entropy:            32.7643508
  heat_capacity:      39.3037185
  energy:             50.0448033

- temperature:       820.0000000
  free_energy:        23.1756150
  entropy:            33.2479348
  heat_capacity:      39.5188989
  energy:             50.4389215

- temperature:       830.0000000
  free_energy:        22.8407314
  entropy:            33.7282285
  heat_capacity:      39.7280251
  energy:             50.8351611

- temperature:       840.0000000
  free_energy:        22.5010614
  entropy:            34.2052395
  heat_capacity:      39.9313023
  energy:             51.2334625

- temperature:       850.0000000
  free_energy:        22.1566376
  entropy:            34.6789773
  heat_capacity:      40.1289283
  energy:             51.6337683

- temperature:       860.0000000
  free_energy:        21.8074927
  entropy:            35.1494537
  heat_capacity:      40.3210937
  energy:             52.0360229

- temperature:       870.0000000
  free_energy:        21.4536593
  entropy:            35.6166819
  heat_capacity:      40.5079821
  energy:             52.4401726

- temperature:       880.0000000
  free_energy:        21.0951698
  entropy:            36.0806769
  heat_capacity:      40.6897701
  energy:             52.8461655

- temperature:       890.0000000
  free_energy:        20.7320565
  entropy:            36.5414551
  heat_capacity:      40.8666282
  energy:             53.2539515

- temperature:       900.0000000
  free_energy:        20.3643514
  entropy:            36.9990342
  heat_capacity:      41.0387201
  energy:             53.6634822

- temperature:       910.0000000
  free_energy:        19.9920864
  entropy:            37.4534332
  heat_capacity:      41.2062037
  energy:             54.0747106

- temperature:       920.0000000
  free_energy:        19.6152933
  entropy:            37.9046719
  heat_capacity:      41.3692311
  energy:             54.4875914

- temperature:       930.0000000
  free_energy:        19.2340034
  entropy:            38.3527714
  heat_capacity:      41.5279487
  energy:             54.9020808

- temperature:       940.0000000
  free_energy:        18.8482482
  entropy:            38.7977535
  heat_capacity:      41.6824973
  energy:             55.3181365

- temperature:       950.0000000
  free_energy:        18.4580587
  entropy:            39.2396407
  heat_capacity:      41.8330127
  energy:             55.7357173

- temperature:       960.0000000
  free_energy:        18.0634656
  entropy:            39.6784563
  heat_capacity:      41.9796256
  energy:             56.1547837

- temperature:       970.0000000
  free_energy:        17.6644997
  entropy:            40.1142243
  heat_capacity:      42.1224618
  energy:             56.5752973

- temperature:       980.0000000
  free_energy:        17.2611912
  entropy:            40.5469689
  heat_capacity:      42.2616427
  energy:             56.9972208

- temperature:       990.0000000
  free_energy:        16.8535703
  entropy:            40.9767151
  heat_capacity:      42.3972849
  energy:             57.4205183

- temperature:      1000.0000000
  free_energy:        16.4416668
  entropy:            41.4034882
  heat_capacity:      42.5295010
  energy:             57.8451551
