graphite                                
           1
     2.544579    0.000000    0.000000
     1.272290    2.203670    0.000000
     1.272290    0.734557    2.077640
   C 
   2
Direct configuration=     1
   0.00000000  0.00000000  0.00000000
   0.25000000  0.25000000  0.24999999
