diamond                                 
           1
    11.386973    0.000000    0.000000
     0.000000    7.964821    0.000000
     0.000000    0.000000    7.959862
   H    C 
  64  16
Direct configuration=     1
   0.07280000  0.78549999  0.18230000
   0.92720002  0.21450001  0.81770003
   0.92720002  0.71450001  0.68229997
   0.07280000  0.28549999  0.31770000
   0.92720002  0.28549999  0.31770000
   0.07280000  0.71450001  0.68229997
   0.07280000  0.21450001  0.81770003
   0.92720002  0.78549999  0.18230000
   0.57279998  0.28549999  0.18230000
   0.42719999  0.71450001  0.81770003
   0.42719999  0.21450001  0.68229997
   0.57279998  0.78549999  0.31770000
   0.42719999  0.78549999  0.31770000
   0.57279998  0.21450001  0.68229997
   0.57279998  0.71450001  0.81770003
   0.42719999  0.28549999  0.18230000
   0.80100000  0.57950002  0.93360001
   0.19900000  0.42049998  0.06639999
   0.19900000  0.92049998  0.43360001
   0.80100000  0.07950002  0.56639999
   0.19900000  0.07950002  0.56639999
   0.80100000  0.92049998  0.43360001
   0.80100000  0.42049998  0.06639999
   0.19900000  0.57950002  0.93360001
   0.30100000  0.07950002  0.93360001
   0.69900000  0.92049998  0.06639999
   0.69900000  0.42049998  0.43360001
   0.30100000  0.57950002  0.56639999
   0.69900000  0.57950002  0.56639999
   0.30100000  0.42049998  0.43360001
   0.30100000  0.92049998  0.06639999
   0.69900000  0.07950002  0.93360001
   0.69859999  0.56629997  0.07959998
   0.30140001  0.43370003  0.92040002
   0.30140001  0.93370003  0.57959998
   0.69859999  0.06629997  0.42040002
   0.30140001  0.06629997  0.42040002
   0.69859999  0.93370003  0.57959998
   0.69859999  0.43370003  0.92040002
   0.30140001  0.56629997  0.07959998
   0.19859999  0.06629997  0.07959998
   0.80140001  0.93370003  0.92040002
   0.80140001  0.43370003  0.57959998
   0.19859999  0.56629997  0.42040002
   0.80140001  0.56629997  0.42040002
   0.19859999  0.43370003  0.57959998
   0.19859999  0.93370003  0.92040002
   0.80140001  0.06629997  0.07959998
   0.00000000  0.60589999  0.19920000
   0.00000000  0.39410001  0.80079997
   0.00000000  0.89410001  0.69920003
   0.00000000  0.10589999  0.30080000
   0.50000000  0.10589999  0.19920000
   0.50000000  0.89410001  0.80079997
   0.50000000  0.39410001  0.69920003
   0.50000000  0.60589999  0.30080000
   0.00000000  0.74159998  0.78549999
   0.00000000  0.25840002  0.21450001
   0.00000000  0.75840002  0.28549999
   0.00000000  0.24159998  0.71450001
   0.50000000  0.24159998  0.78549999
   0.50000000  0.75840002  0.21450001
   0.50000000  0.25840002  0.28549999
   0.50000000  0.74159998  0.71450001
   0.00000000  0.72960001  0.23029999
   0.00000000  0.27039999  0.76969999
   0.00000000  0.77039999  0.73030001
   0.00000000  0.22960001  0.26969999
   0.50000000  0.22960001  0.23029999
   0.50000000  0.77039999  0.76969999
   0.50000000  0.27039999  0.73030001
   0.50000000  0.72960001  0.26969999
   0.74980003  0.50000000  0.00000000
   0.25019997  0.50000000  0.00000000
   0.25019997  0.00000000  0.50000000
   0.74980003  0.00000000  0.50000000
   0.24980003  0.00000000  0.00000000
   0.75019997  0.00000000  0.00000000
   0.75019997  0.50000000  0.50000000
   0.24980003  0.50000000  0.50000000
Direct configuration=     2
   0.08287640  0.79178213  0.16825802
   0.91712362  0.20821787  0.83174201
   0.91712362  0.70821787  0.66825799
   0.08287640  0.29178213  0.33174198
   0.91712362  0.29178213  0.33174198
   0.08287640  0.70821787  0.66825799
   0.08287640  0.20821787  0.83174201
   0.91712362  0.79178213  0.16825802
   0.58287638  0.29178213  0.16825802
   0.41712359  0.70821787  0.83174201
   0.41712359  0.20821787  0.66825799
   0.58287638  0.79178213  0.33174198
   0.41712359  0.79178213  0.33174198
   0.58287638  0.20821787  0.66825799
   0.58287638  0.70821787  0.83174201
   0.41712359  0.29178213  0.16825802
   0.80969473  0.59299095  0.92243204
   0.19030527  0.40700905  0.07756796
   0.19030527  0.90700905  0.42243204
   0.80969473  0.09299095  0.57756796
   0.19030527  0.09299095  0.57756796
   0.80969473  0.90700905  0.42243204
   0.80969473  0.40700905  0.07756796
   0.19030527  0.59299095  0.92243204
   0.30969473  0.09299095  0.92243204
   0.69030527  0.90700905  0.07756796
   0.69030527  0.40700905  0.42243204
   0.30969473  0.59299095  0.57756796
   0.69030527  0.59299095  0.57756796
   0.30969473  0.40700905  0.42243204
   0.30969473  0.90700905  0.07756796
   0.69030527  0.09299095  0.92243204
   0.68991822  0.57754221  0.09301626
   0.31008178  0.42245779  0.90698374
   0.31008178  0.92245779  0.59301626
   0.68991822  0.07754221  0.40698374
   0.31008178  0.07754221  0.40698374
   0.68991822  0.92245779  0.59301626
   0.68991822  0.42245779  0.90698374
   0.31008178  0.57754221  0.09301626
   0.18991822  0.07754221  0.09301626
   0.81008178  0.92245779  0.90698374
   0.81008178  0.42245779  0.59301626
   0.18991822  0.57754221  0.40698374
   0.81008178  0.57754221  0.40698374
   0.18991822  0.42245779  0.59301626
   0.18991822  0.92245779  0.90698374
   0.81008178  0.07754221  0.09301626
   0.00000000  0.59014895  0.20050168
   0.00000000  0.40985105  0.79949829
   0.00000000  0.90985105  0.70050171
   0.00000000  0.09014895  0.29949832
   0.50000000  0.09014895  0.20050168
   0.50000000  0.90985105  0.79949829
   0.50000000  0.40985105  0.70050171
   0.50000000  0.59014895  0.29949832
   0.00000000  0.27595834  0.73403949
   0.00000000  0.72404166 -0.73403949
   0.00000000  0.22404166  0.23403949
   0.00000000 -0.22404166 -0.23403949
   0.50000000 -0.22404166  0.73403949
   0.50000000  0.22404166 -0.73403949
   0.50000000  0.72404166  0.23403949
   0.50000000  0.27595834 -0.23403949
   0.00000000  0.26712977 -0.69148431
   0.00000000  0.73287023  0.69148429
   0.00000000  0.23287023 -0.19148429
   0.00000000 -0.23287023  0.19148429
   0.50000000 -0.23287023 -0.69148431
   0.50000000  0.23287023  0.69148429
   0.50000000  0.73287023 -0.19148429
   0.50000000  0.26712977  0.19148429
   0.74980467  0.50000000  0.00000000
   0.25019533  0.50000000  0.00000000
   0.25019533  0.00000000  0.50000000
   0.74980467 -0.00000000  0.50000000
   0.24980467  0.00000000  0.00000000
   0.75019533 -0.00000000  0.00000000
   0.75019533  0.50000000  0.50000000
   0.24980467  0.50000000  0.50000000
Direct configuration=     3
   0.08065649  0.79039812  0.17135158
   0.91934353  0.20960188  0.82864845
   0.91934353  0.70960188  0.67135155
   0.08065649  0.29039812  0.32864842
   0.91934353  0.29039812  0.32864842
   0.08065649  0.70960188  0.67135155
   0.08065649  0.20960188  0.82864845
   0.91934353  0.79039812  0.17135158
   0.58065647  0.29039812  0.17135158
   0.41934350  0.70960188  0.82864845
   0.41934350  0.20960188  0.67135155
   0.58065647  0.79039812  0.32864842
   0.41934350  0.79039812  0.32864842
   0.58065647  0.20960188  0.67135155
   0.58065647  0.70960188  0.82864845
   0.41934350  0.29039812  0.17135158
   0.80777921  0.59001879  0.92489243
   0.19222079  0.40998121  0.07510757
   0.19222079  0.90998121  0.42489243
   0.80777921  0.09001879  0.57510757
   0.19222079  0.09001879  0.57510757
   0.80777921  0.90998121  0.42489243
   0.80777921  0.40998121  0.07510757
   0.19222079  0.59001879  0.92489243
   0.30777921  0.09001879  0.92489243
   0.69222079  0.90998121  0.07510757
   0.69222079  0.40998121  0.42489243
   0.30777921  0.59001879  0.57510757
   0.69222079  0.59001879  0.57510757
   0.30777921  0.40998121  0.42489243
   0.30777921  0.90998121  0.07510757
   0.69222079  0.09001879  0.92489243
   0.69183088  0.57506546  0.09006055
   0.30816912  0.42493454  0.90993945
   0.30816912  0.92493454  0.59006055
   0.69183088  0.07506546  0.40993945
   0.30816912  0.07506546  0.40993945
   0.69183088  0.92493454  0.59006055
   0.69183088  0.42493454  0.90993945
   0.30816912  0.57506546  0.09006055
   0.19183088  0.07506546  0.09006055
   0.80816912  0.92493454  0.90993945
   0.80816912  0.42493454  0.59006055
   0.19183088  0.57506546  0.40993945
   0.80816912  0.57506546  0.40993945
   0.19183088  0.42493454  0.59006055
   0.19183088  0.92493454  0.90993945
   0.80816912  0.07506546  0.09006055
   0.00000000  0.59361903  0.20021491
   0.00000000  0.40638097  0.79978506
   0.00000000  0.90638097  0.70021494
   0.00000000  0.09361903  0.29978509
   0.50000000  0.09361903  0.20021491
   0.50000000  0.90638097  0.79978506
   0.50000000  0.40638097  0.70021494
   0.50000000  0.59361903  0.29978509
   0.00000000  0.37854288  0.52506873
   0.00000000  0.62145712 -0.52506873
   0.00000000  0.12145712  0.02506873
   0.00000000 -0.12145712 -0.02506873
   0.50000000 -0.12145712  0.52506873
   0.50000000  0.12145712 -0.52506873
   0.50000000  0.62145712  0.02506873
   0.50000000  0.37854288 -0.02506873
   0.00000000  0.36901562 -0.48840793
   0.00000000  0.63098438  0.48840792
   0.00000000  0.13098438  0.01159208
   0.00000000 -0.13098438 -0.01159208
   0.50000000 -0.13098438 -0.48840793
   0.50000000  0.13098438  0.48840792
   0.50000000  0.63098438  0.01159208
   0.50000000  0.36901562 -0.01159208
   0.74980365  0.50000000  0.00000000
   0.25019635  0.50000000  0.00000000
   0.25019635  0.00000000  0.50000000
   0.74980365 -0.00000000  0.50000000
   0.24980365  0.00000000  0.00000000
   0.75019635 -0.00000000  0.00000000
   0.75019635  0.50000000  0.50000000
   0.24980365  0.50000000  0.50000000
Direct configuration=     4
   0.08283299  0.79175506  0.16831852
   0.91716704  0.20824494  0.83168151
   0.91716704  0.70824494  0.66831849
   0.08283299  0.29175506  0.33168148
   0.91716704  0.29175506  0.33168148
   0.08283299  0.70824494  0.66831849
   0.08283299  0.20824494  0.83168151
   0.91716704  0.79175506  0.16831852
   0.58283296  0.29175506  0.16831852
   0.41716701  0.70824494  0.83168151
   0.41716701  0.20824494  0.66831849
   0.58283296  0.79175506  0.33168148
   0.41716701  0.79175506  0.33168148
   0.58283296  0.20824494  0.66831849
   0.58283296  0.70824494  0.83168151
   0.41716701  0.29175506  0.16831852
   0.80965726  0.59293282  0.92248015
   0.19034274  0.40706718  0.07751985
   0.19034274  0.90706718  0.42248015
   0.80965726  0.09293282  0.57751985
   0.19034274  0.09293282  0.57751985
   0.80965726  0.90706718  0.42248015
   0.80965726  0.40706718  0.07751985
   0.19034274  0.59293282  0.92248015
   0.30965726  0.09293282  0.92248015
   0.69034274  0.90706718  0.07751985
   0.69034274  0.40706718  0.42248015
   0.30965726  0.59293282  0.57751985
   0.69034274  0.59293282  0.57751985
   0.30965726  0.40706718  0.42248015
   0.30965726  0.90706718  0.07751985
   0.69034274  0.09293282  0.92248015
   0.68995562  0.57749377  0.09295846
   0.31004438  0.42250623  0.90704154
   0.31004438  0.92250623  0.59295846
   0.68995562  0.07749377  0.40704154
   0.31004438  0.07749377  0.40704154
   0.68995562  0.92250623  0.59295846
   0.68995562  0.42250623  0.90704154
   0.31004438  0.57749377  0.09295846
   0.18995562  0.07749377  0.09295846
   0.81004438  0.92250623  0.90704154
   0.81004438  0.42250623  0.59295846
   0.18995562  0.57749377  0.40704154
   0.81004438  0.57749377  0.40704154
   0.18995562  0.42250623  0.59295846
   0.18995562  0.92250623  0.90704154
   0.81004438  0.07749377  0.09295846
   0.00000000  0.59021681  0.20049607
   0.00000000  0.40978319  0.79950390
   0.00000000  0.90978319  0.70049610
   0.00000000  0.09021681  0.29950393
   0.50000000  0.09021681  0.20049607
   0.50000000  0.90978319  0.79950390
   0.50000000  0.40978319  0.70049610
   0.50000000  0.59021681  0.29950393
   0.00000000  0.27796454  0.72995274
   0.00000000  0.72203546 -0.72995274
   0.00000000  0.22203546  0.22995274
   0.00000000 -0.22203546 -0.22995274
   0.50000000 -0.22203546  0.72995274
   0.50000000  0.22203546 -0.72995274
   0.50000000  0.72203546  0.22995274
   0.50000000  0.27796454 -0.22995274
   0.00000000  0.26912230 -0.68751284
   0.00000000  0.73087770  0.68751282
   0.00000000  0.23087770 -0.18751282
   0.00000000 -0.23087770  0.18751282
   0.50000000 -0.23087770 -0.68751284
   0.50000000  0.23087770  0.68751282
   0.50000000  0.73087770 -0.18751282
   0.50000000  0.26912230  0.18751282
   0.74980465  0.50000000  0.00000000
   0.25019535  0.50000000  0.00000000
   0.25019535  0.00000000  0.50000000
   0.74980465 -0.00000000  0.50000000
   0.24980465  0.00000000  0.00000000
   0.75019535 -0.00000000  0.00000000
   0.75019535  0.50000000  0.50000000
   0.24980465  0.50000000  0.50000000
Direct configuration=     5
   0.08276942  0.79171543  0.16840710
   0.91723060  0.20828457  0.83159293
   0.91723060  0.70828457  0.66840707
   0.08276942  0.29171543  0.33159290
   0.91723060  0.29171543  0.33159290
   0.08276942  0.70828457  0.66840707
   0.08276942  0.20828457  0.83159293
   0.91723060  0.79171543  0.16840710
   0.58276940  0.29171543  0.16840710
   0.41723057  0.70828457  0.83159293
   0.41723057  0.20828457  0.66840707
   0.58276940  0.79171543  0.33159290
   0.41723057  0.79171543  0.33159290
   0.58276940  0.20828457  0.66840707
   0.58276940  0.70828457  0.83159293
   0.41723057  0.29171543  0.16840710
   0.80960241  0.59284772  0.92255061
   0.19039759  0.40715228  0.07744939
   0.19039759  0.90715228  0.42255061
   0.80960241  0.09284772  0.57744939
   0.19039759  0.09284772  0.57744939
   0.80960241  0.90715228  0.42255061
   0.80960241  0.40715228  0.07744939
   0.19039759  0.59284772  0.92255061
   0.30960241  0.09284772  0.92255061
   0.69039759  0.90715228  0.07744939
   0.69039759  0.40715228  0.42255061
   0.30960241  0.59284772  0.57744939
   0.69039759  0.59284772  0.57744939
   0.30960241  0.40715228  0.42255061
   0.30960241  0.90715228  0.07744939
   0.69039759  0.09284772  0.92255061
   0.69001039  0.57742285  0.09287382
   0.30998961  0.42257715  0.90712618
   0.30998961  0.92257715  0.59287382
   0.69001039  0.07742285  0.40712618
   0.30998961  0.07742285  0.40712618
   0.69001039  0.92257715  0.59287382
   0.69001039  0.42257715  0.90712618
   0.30998961  0.57742285  0.09287382
   0.19001039  0.07742285  0.09287382
   0.80998961  0.92257715  0.90712618
   0.80998961  0.42257715  0.59287382
   0.19001039  0.57742285  0.40712618
   0.80998961  0.57742285  0.40712618
   0.19001039  0.42257715  0.59287382
   0.19001039  0.92257715  0.90712618
   0.80998961  0.07742285  0.09287382
   0.00000000  0.59031618  0.20048786
   0.00000000  0.40968382  0.79951211
   0.00000000  0.90968382  0.70048789
   0.00000000  0.09031618  0.29951214
   0.50000000  0.09031618  0.20048786
   0.50000000  0.90968382  0.79951211
   0.50000000  0.40968382  0.70048789
   0.50000000  0.59031618  0.29951214
   0.00000000  0.28090201  0.72396893
   0.00000000  0.71909799 -0.72396893
   0.00000000  0.21909799  0.22396893
   0.00000000 -0.21909799 -0.22396893
   0.50000000 -0.21909799  0.72396893
   0.50000000  0.21909799 -0.72396893
   0.50000000  0.71909799  0.22396893
   0.50000000  0.28090201 -0.22396893
   0.00000000  0.27203977 -0.68169781
   0.00000000  0.72796023  0.68169780
   0.00000000  0.22796023 -0.18169780
   0.00000000 -0.22796023  0.18169780
   0.50000000 -0.22796023 -0.68169781
   0.50000000  0.22796023  0.68169780
   0.50000000  0.72796023 -0.18169780
   0.50000000  0.27203977  0.18169780
   0.74980462  0.50000000  0.00000000
   0.25019538  0.50000000  0.00000000
   0.25019538  0.00000000  0.50000000
   0.74980462 -0.00000000  0.50000000
   0.24980462  0.00000000  0.00000000
   0.75019538 -0.00000000  0.00000000
   0.75019538  0.50000000  0.50000000
   0.24980462  0.50000000  0.50000000
Direct configuration=     6
   0.08171295  0.79105678  0.16987934
   0.91828707  0.20894322  0.83012069
   0.91828707  0.70894322  0.66987931
   0.08171295  0.29105678  0.33012066
   0.91828707  0.29105678  0.33012066
   0.08171295  0.70894322  0.66987931
   0.08171295  0.20894322  0.83012069
   0.91828707  0.79105678  0.16987934
   0.58171293  0.29105678  0.16987934
   0.41828704  0.70894322  0.83012069
   0.41828704  0.20894322  0.66987931
   0.58171293  0.79105678  0.33012066
   0.41828704  0.79105678  0.33012066
   0.58171293  0.20894322  0.66987931
   0.58171293  0.70894322  0.83012069
   0.41828704  0.29105678  0.16987934
   0.80869081  0.59143325  0.92372152
   0.19130919  0.40856675  0.07627848
   0.19130919  0.90856675  0.42372152
   0.80869081  0.09143325  0.57627848
   0.19130919  0.09143325  0.57627848
   0.80869081  0.90856675  0.42372152
   0.80869081  0.40856675  0.07627848
   0.19130919  0.59143325  0.92372152
   0.30869081  0.09143325  0.92372152
   0.69130919  0.90856675  0.07627848
   0.69130919  0.40856675  0.42372152
   0.30869081  0.59143325  0.57627848
   0.69130919  0.59143325  0.57627848
   0.30869081  0.40856675  0.42372152
   0.30869081  0.90856675  0.07627848
   0.69130919  0.09143325  0.92372152
   0.69092064  0.57624416  0.09146718
   0.30907936  0.42375584  0.90853282
   0.30907936  0.92375584  0.59146718
   0.69092064  0.07624416  0.40853282
   0.30907936  0.07624416  0.40853282
   0.69092064  0.92375584  0.59146718
   0.69092064  0.42375584  0.90853282
   0.30907936  0.57624416  0.09146718
   0.19092064  0.07624416  0.09146718
   0.80907936  0.92375584  0.90853282
   0.80907936  0.42375584  0.59146718
   0.19092064  0.57624416  0.40853282
   0.80907936  0.57624416  0.40853282
   0.19092064  0.42375584  0.59146718
   0.19092064  0.92375584  0.90853282
   0.80907936  0.07624416  0.09146718
   0.00000000  0.59196760  0.20035138
   0.00000000  0.40803240  0.79964859
   0.00000000  0.90803240  0.70035141
   0.00000000  0.09196760  0.29964862
   0.50000000  0.09196760  0.20035138
   0.50000000  0.90803240  0.79964859
   0.50000000  0.40803240  0.70035141
   0.50000000  0.59196760  0.29964862
   0.00000000  0.32972244  0.62451883
   0.00000000  0.67027756 -0.62451883
   0.00000000  0.17027756  0.12451883
   0.00000000 -0.17027756 -0.12451883
   0.50000000 -0.17027756  0.62451883
   0.50000000  0.17027756 -0.62451883
   0.50000000  0.67027756  0.12451883
   0.50000000  0.32972244 -0.12451883
   0.00000000  0.32052770 -0.58505287
   0.00000000  0.67947230  0.58505286
   0.00000000  0.17947230 -0.08505286
   0.00000000 -0.17947230  0.08505286
   0.50000000 -0.17947230 -0.58505287
   0.50000000  0.17947230  0.58505286
   0.50000000  0.67947230 -0.08505286
   0.50000000  0.32052770  0.08505286
   0.74980414  0.50000000  0.00000000
   0.25019586  0.50000000  0.00000000
   0.25019586  0.00000000  0.50000000
   0.74980414 -0.00000000  0.50000000
   0.24980414  0.00000000  0.00000000
   0.75019586 -0.00000000  0.00000000
   0.75019586  0.50000000  0.50000000
   0.24980414  0.50000000  0.50000000
Direct configuration=     7
   0.08167109  0.79103068  0.16993767
   0.91832893  0.20896932  0.83006235
   0.91832893  0.70896932  0.66993765
   0.08167109  0.29103068  0.33006233
   0.91832893  0.29103068  0.33006233
   0.08167109  0.70896932  0.66993765
   0.08167109  0.20896932  0.83006235
   0.91832893  0.79103068  0.16993767
   0.58167107  0.29103068  0.16993767
   0.41832890  0.70896932  0.83006235
   0.41832890  0.20896932  0.66993765
   0.58167107  0.79103068  0.33006233
   0.41832890  0.79103068  0.33006233
   0.58167107  0.20896932  0.66993765
   0.58167107  0.70896932  0.83006235
   0.41832890  0.29103068  0.16993767
   0.80865469  0.59137721  0.92376791
   0.19134531  0.40862279  0.07623209
   0.19134531  0.90862279  0.42376791
   0.80865469  0.09137721  0.57623209
   0.19134531  0.09137721  0.57623209
   0.80865469  0.90862279  0.42376791
   0.80865469  0.40862279  0.07623209
   0.19134531  0.59137721  0.92376791
   0.30865469  0.09137721  0.92376791
   0.69134531  0.90862279  0.07623209
   0.69134531  0.40862279  0.42376791
   0.30865469  0.59137721  0.57623209
   0.69134531  0.59137721  0.57623209
   0.30865469  0.40862279  0.42376791
   0.30865469  0.90862279  0.07623209
   0.69134531  0.09137721  0.92376791
   0.69095670  0.57619745  0.09141145
   0.30904330  0.42380255  0.90858855
   0.30904330  0.92380255  0.59141145
   0.69095670  0.07619745  0.40858855
   0.30904330  0.07619745  0.40858855
   0.69095670  0.92380255  0.59141145
   0.69095670  0.42380255  0.90858855
   0.30904330  0.57619745  0.09141145
   0.19095670  0.07619745  0.09141145
   0.80904330  0.92380255  0.90858855
   0.80904330  0.42380255  0.59141145
   0.19095670  0.57619745  0.40858855
   0.80904330  0.57619745  0.40858855
   0.19095670  0.42380255  0.59141145
   0.19095670  0.92380255  0.90858855
   0.80904330  0.07619745  0.09141145
   0.00000000  0.59203304  0.20034597
   0.00000000  0.40796696  0.79965400
   0.00000000  0.90796696  0.70034600
   0.00000000  0.09203304  0.29965403
   0.50000000  0.09203304  0.20034597
   0.50000000  0.90796696  0.79965400
   0.50000000  0.40796696  0.70034600
   0.50000000  0.59203304  0.29965403
   0.00000000  0.33165682  0.62057840
   0.00000000  0.66834318 -0.62057840
   0.00000000  0.16834318  0.12057840
   0.00000000 -0.16834318 -0.12057840
   0.50000000 -0.16834318  0.62057840
   0.50000000  0.16834318 -0.62057840
   0.50000000  0.66834318  0.12057840
   0.50000000  0.33165682 -0.12057840
   0.00000000  0.32244890 -0.58122359
   0.00000000  0.67755110  0.58122357
   0.00000000  0.17755110 -0.08122357
   0.00000000 -0.17755110  0.08122357
   0.50000000 -0.17755110 -0.58122359
   0.50000000  0.17755110  0.58122357
   0.50000000  0.67755110 -0.08122357
   0.50000000  0.32244890  0.08122357
   0.74980412  0.50000000  0.00000000
   0.25019588  0.50000000  0.00000000
   0.25019588  0.00000000  0.50000000
   0.74980412 -0.00000000  0.50000000
   0.24980412  0.00000000  0.00000000
   0.75019588 -0.00000000  0.00000000
   0.75019588  0.50000000  0.50000000
   0.24980412  0.50000000  0.50000000
Direct configuration=     8
   0.08158636  0.79097785  0.17005575
   0.91841366  0.20902215  0.82994428
   0.91841366  0.70902215  0.67005572
   0.08158636  0.29097785  0.32994425
   0.91841366  0.29097785  0.32994425
   0.08158636  0.70902215  0.67005572
   0.08158636  0.20902215  0.82994428
   0.91841366  0.79097785  0.17005575
   0.58158634  0.29097785  0.17005575
   0.41841363  0.70902215  0.82994428
   0.41841363  0.20902215  0.67005572
   0.58158634  0.79097785  0.32994425
   0.41841363  0.79097785  0.32994425
   0.58158634  0.20902215  0.67005572
   0.58158634  0.70902215  0.82994428
   0.41841363  0.29097785  0.17005575
   0.80858158  0.59126376  0.92386182
   0.19141842  0.40873624  0.07613818
   0.19141842  0.90873624  0.42386182
   0.80858158  0.09126376  0.57613818
   0.19141842  0.09126376  0.57613818
   0.80858158  0.90873624  0.42386182
   0.80858158  0.40873624  0.07613818
   0.19141842  0.59126376  0.92386182
   0.30858158  0.09126376  0.92386182
   0.69141842  0.90873624  0.07613818
   0.69141842  0.40873624  0.42386182
   0.30858158  0.59126376  0.57613818
   0.69141842  0.59126376  0.57613818
   0.30858158  0.40873624  0.42386182
   0.30858158  0.90873624  0.07613818
   0.69141842  0.09126376  0.92386182
   0.69102971  0.57610292  0.09129863
   0.30897029  0.42389708  0.90870137
   0.30897029  0.92389708  0.59129863
   0.69102971  0.07610292  0.40870137
   0.30897029  0.07610292  0.40870137
   0.69102971  0.92389708  0.59129863
   0.69102971  0.42389708  0.90870137
   0.30897029  0.57610292  0.09129863
   0.19102971  0.07610292  0.09129863
   0.80897029  0.92389708  0.90870137
   0.80897029  0.42389708  0.59129863
   0.19102971  0.57610292  0.40870137
   0.80897029  0.57610292  0.40870137
   0.19102971  0.42389708  0.59129863
   0.19102971  0.92389708  0.90870137
   0.80897029  0.07610292  0.09129863
   0.00000000  0.59216549  0.20033503
   0.00000000  0.40783451  0.79966494
   0.00000000  0.90783451  0.70033506
   0.00000000  0.09216549  0.29966497
   0.50000000  0.09216549  0.20033503
   0.50000000  0.90783451  0.79966494
   0.50000000  0.40783451  0.70033506
   0.50000000  0.59216549  0.29966497
   0.00000000  0.33557241  0.61260210
   0.00000000  0.66442759 -0.61260210
   0.00000000  0.16442759  0.11260210
   0.00000000 -0.16442759 -0.11260210
   0.50000000 -0.16442759  0.61260210
   0.50000000  0.16442759 -0.61260210
   0.50000000  0.66442759  0.11260210
   0.50000000  0.33557241 -0.11260210
   0.00000000  0.32633782 -0.57347228
   0.00000000  0.67366218  0.57347226
   0.00000000  0.17366218 -0.07347226
   0.00000000 -0.17366218  0.07347226
   0.50000000 -0.17366218 -0.57347228
   0.50000000  0.17366218  0.57347226
   0.50000000  0.67366218 -0.07347226
   0.50000000  0.32633782  0.07347226
   0.74980408  0.50000000  0.00000000
   0.25019592  0.50000000  0.00000000
   0.25019592  0.00000000  0.50000000
   0.74980408 -0.00000000  0.50000000
   0.24980408  0.00000000  0.00000000
   0.75019592 -0.00000000  0.00000000
   0.75019592  0.50000000  0.50000000
   0.24980408  0.50000000  0.50000000
Direct configuration=     9
   0.08161472  0.79099553  0.17001623
   0.91838530  0.20900447  0.82998380
   0.91838530  0.70900447  0.67001620
   0.08161472  0.29099553  0.32998377
   0.91838530  0.29099553  0.32998377
   0.08161472  0.70900447  0.67001620
   0.08161472  0.20900447  0.82998380
   0.91838530  0.79099553  0.17001623
   0.58161470  0.29099553  0.17001623
   0.41838527  0.70900447  0.82998380
   0.41838527  0.20900447  0.67001620
   0.58161470  0.79099553  0.32998377
   0.41838527  0.79099553  0.32998377
   0.58161470  0.20900447  0.67001620
   0.58161470  0.70900447  0.82998380
   0.41838527  0.29099553  0.17001623
   0.80860605  0.59130173  0.92383039
   0.19139395  0.40869827  0.07616961
   0.19139395  0.90869827  0.42383039
   0.80860605  0.09130173  0.57616961
   0.19139395  0.09130173  0.57616961
   0.80860605  0.90869827  0.42383039
   0.80860605  0.40869827  0.07616961
   0.19139395  0.59130173  0.92383039
   0.30860605  0.09130173  0.92383039
   0.69139395  0.90869827  0.07616961
   0.69139395  0.40869827  0.42383039
   0.30860605  0.59130173  0.57616961
   0.69139395  0.59130173  0.57616961
   0.30860605  0.40869827  0.42383039
   0.30860605  0.90869827  0.07616961
   0.69139395  0.09130173  0.92383039
   0.69100527  0.57613456  0.09133639
   0.30899473  0.42386544  0.90866361
   0.30899473  0.92386544  0.59133639
   0.69100527  0.07613456  0.40866361
   0.30899473  0.07613456  0.40866361
   0.69100527  0.92386544  0.59133639
   0.69100527  0.42386544  0.90866361
   0.30899473  0.57613456  0.09133639
   0.19100527  0.07613456  0.09133639
   0.80899473  0.92386544  0.90866361
   0.80899473  0.42386544  0.59133639
   0.19100527  0.57613456  0.40866361
   0.80899473  0.57613456  0.40866361
   0.19100527  0.42386544  0.59133639
   0.19100527  0.92386544  0.90866361
   0.80899473  0.07613456  0.09133639
   0.00000000  0.59212116  0.20033869
   0.00000000  0.40787884  0.79966128
   0.00000000  0.90787884  0.70033872
   0.00000000  0.09212116  0.29966131
   0.50000000  0.09212116  0.20033869
   0.50000000  0.90787884  0.79966128
   0.50000000  0.40787884  0.70033872
   0.50000000  0.59212116  0.29966131
   0.00000000  0.33426184  0.61527181
   0.00000000  0.66573816 -0.61527181
   0.00000000  0.16573816  0.11527181
   0.00000000 -0.16573816 -0.11527181
   0.50000000 -0.16573816  0.61527181
   0.50000000  0.16573816 -0.61527181
   0.50000000  0.66573816  0.11527181
   0.50000000  0.33426184 -0.11527181
   0.00000000  0.32503618 -0.57606668
   0.00000000  0.67496382  0.57606666
   0.00000000  0.17496382 -0.07606666
   0.00000000 -0.17496382  0.07606666
   0.50000000 -0.17496382 -0.57606668
   0.50000000  0.17496382  0.57606666
   0.50000000  0.67496382 -0.07606666
   0.50000000  0.32503618  0.07606666
   0.74980409  0.50000000  0.00000000
   0.25019591  0.50000000  0.00000000
   0.25019591  0.00000000  0.50000000
   0.74980409 -0.00000000  0.50000000
   0.24980409  0.00000000  0.00000000
   0.75019591 -0.00000000  0.00000000
   0.75019591  0.50000000  0.50000000
   0.24980409  0.50000000  0.50000000
Direct configuration=    10
   0.08160946  0.79099225  0.17002357
   0.91839056  0.20900775  0.82997646
   0.91839056  0.70900775  0.67002354
   0.08160946  0.29099225  0.32997643
   0.91839056  0.29099225  0.32997643
   0.08160946  0.70900775  0.67002354
   0.08160946  0.20900775  0.82997646
   0.91839056  0.79099225  0.17002357
   0.58160944  0.29099225  0.17002357
   0.41839053  0.70900775  0.82997646
   0.41839053  0.20900775  0.67002354
   0.58160944  0.79099225  0.32997643
   0.41839053  0.79099225  0.32997643
   0.58160944  0.20900775  0.67002354
   0.58160944  0.70900775  0.82997646
   0.41839053  0.29099225  0.17002357
   0.80860151  0.59129469  0.92383623
   0.19139849  0.40870531  0.07616377
   0.19139849  0.90870531  0.42383623
   0.80860151  0.09129469  0.57616377
   0.19139849  0.09129469  0.57616377
   0.80860151  0.90870531  0.42383623
   0.80860151  0.40870531  0.07616377
   0.19139849  0.59129469  0.92383623
   0.30860151  0.09129469  0.92383623
   0.69139849  0.90870531  0.07616377
   0.69139849  0.40870531  0.42383623
   0.30860151  0.59129469  0.57616377
   0.69139849  0.59129469  0.57616377
   0.30860151  0.40870531  0.42383623
   0.30860151  0.90870531  0.07616377
   0.69139849  0.09129469  0.92383623
   0.69100981  0.57612869  0.09132938
   0.30899019  0.42387131  0.90867062
   0.30899019  0.92387131  0.59132938
   0.69100981  0.07612869  0.40867062
   0.30899019  0.07612869  0.40867062
   0.69100981  0.92387131  0.59132938
   0.69100981  0.42387131  0.90867062
   0.30899019  0.57612869  0.09132938
   0.19100981  0.07612869  0.09132938
   0.80899019  0.92387131  0.90867062
   0.80899019  0.42387131  0.59132938
   0.19100981  0.57612869  0.40867062
   0.80899019  0.57612869  0.40867062
   0.19100981  0.42387131  0.59132938
   0.19100981  0.92387131  0.90867062
   0.80899019  0.07612869  0.09132938
   0.00000000  0.59212938  0.20033801
   0.00000000  0.40787062  0.79966196
   0.00000000  0.90787062  0.70033804
   0.00000000  0.09212938  0.29966199
   0.50000000  0.09212938  0.20033801
   0.50000000  0.90787062  0.79966196
   0.50000000  0.40787062  0.70033804
   0.50000000  0.59212938  0.29966199
   0.00000000  0.33450510  0.61477629