diamond                                 
           1
    11.386973    0.000000    0.000000
     0.000000    7.964821    0.000000
     0.000000    0.000000    7.959862
   H    C 
  56  16
Direct configuration=     1
   0.80100000  0.57950002  0.93360001
   0.19900000  0.42049998  0.06639999
   0.19900000  0.92049998  0.43360001
   0.80100000  0.07950002  0.56639999
   0.19900000  0.07950002  0.56639999
   0.80100000  0.92049998  0.43360001
   0.80100000  0.42049998  0.06639999
   0.19900000  0.57950002  0.93360001
   0.30100000  0.07950002  0.93360001
   0.69900000  0.92049998  0.06639999
   0.69900000  0.42049998  0.43360001
   0.30100000  0.57950002  0.56639999
   0.69900000  0.57950002  0.56639999
   0.30100000  0.42049998  0.43360001
   0.30100000  0.92049998  0.06639999
   0.69900000  0.07950002  0.93360001
   0.69859999  0.56629997  0.07959998
   0.30140001  0.43370003  0.92040002
   0.30140001  0.93370003  0.57959998
   0.69859999  0.06629997  0.42040002
   0.30140001  0.06629997  0.42040002
   0.69859999  0.93370003  0.57959998
   0.69859999  0.43370003  0.92040002
   0.30140001  0.56629997  0.07959998
   0.19859999  0.06629997  0.07959998
   0.80140001  0.93370003  0.92040002
   0.80140001  0.43370003  0.57959998
   0.19859999  0.56629997  0.42040002
   0.80140001  0.56629997  0.42040002
   0.19859999  0.43370003  0.57959998
   0.19859999  0.93370003  0.92040002
   0.80140001  0.06629997  0.07959998
   0.07280000  0.78549999  0.18230000
   0.92720002  0.21450001  0.81770003
   0.92720002  0.71450001  0.68229997
   0.07280000  0.28549999  0.31770000
   0.92720002  0.28549999  0.31770000
   0.07280000  0.71450001  0.68229997
   0.07280000  0.21450001  0.81770003
   0.92720002  0.78549999  0.18230000
   0.57279998  0.28549999  0.18230000
   0.42719999  0.71450001  0.81770003
   0.42719999  0.21450001  0.68229997
   0.57279998  0.78549999  0.31770000
   0.42719999  0.78549999  0.31770000
   0.57279998  0.21450001  0.68229997
   0.57279998  0.71450001  0.81770003
   0.42719999  0.28549999  0.18230000
   0.00000000  0.60589999  0.19920000
   0.00000000  0.39410001  0.80079997
   0.00000000  0.89410001  0.69920003
   0.00000000  0.10589999  0.30080000
   0.50000000  0.10589999  0.19920000
   0.50000000  0.89410001  0.80079997
   0.50000000  0.39410001  0.69920003
   0.50000000  0.60589999  0.30080000
   0.00000000  0.72960001  0.23029999
   0.00000000  0.27039999  0.76969999
   0.00000000  0.77039999  0.73030001
   0.00000000  0.22960001  0.26969999
   0.50000000  0.22960001  0.23029999
   0.50000000  0.77039999  0.76969999
   0.50000000  0.27039999  0.73030001
   0.50000000  0.72960001  0.26969999
   0.74980003  0.50000000  0.00000000
   0.25019997  0.50000000  0.00000000
   0.25019997  0.00000000  0.50000000
   0.74980003  0.00000000  0.50000000
   0.24980003  0.00000000  0.00000000
   0.75019997  0.00000000  0.00000000
   0.75019997  0.50000000  0.50000000
   0.24980003  0.50000000  0.50000000
Direct configuration=     2
   0.80977778  0.59299078  0.92248110
   0.19022222  0.40700922  0.07751890
   0.19022222  0.90700922  0.42248110
   0.80977778  0.09299078  0.57751890
   0.19022222  0.09299078  0.57751890
   0.80977778  0.90700922  0.42248110
   0.80977778  0.40700922  0.07751890
   0.19022222  0.59299078  0.92248110
   0.30977778  0.09299078  0.92248110
   0.69022222  0.90700922  0.07751890
   0.69022222  0.40700922  0.42248110
   0.30977778  0.59299078  0.57751890
   0.69022222  0.59299078  0.57751890
   0.30977778  0.40700922  0.42248110
   0.30977778  0.90700922  0.07751890
   0.69022222  0.09299078  0.92248110
   0.68983928  0.57762746  0.09303504
   0.31016072  0.42237254  0.90696496
   0.31016072  0.92237254  0.59303504
   0.68983928  0.07762746  0.40696496
   0.31016072  0.07762746  0.40696496
   0.68983928  0.92237254  0.59303504
   0.68983928  0.42237254  0.90696496
   0.31016072  0.57762746  0.09303504
   0.18983928  0.07762746  0.09303504
   0.81016072  0.92237254  0.90696496
   0.81016072  0.42237254  0.59303504
   0.18983928  0.57762746  0.40696496
   0.81016072  0.57762746  0.40696496
   0.18983928  0.42237254  0.59303504
   0.18983928  0.92237254  0.90696496
   0.81016072  0.07762746  0.09303504
   0.08562787  0.79604584  0.18043837
   0.91437215  0.20395416  0.81956166
   0.91437215  0.70395416  0.68043834
   0.08562787  0.29604584  0.31956163
   0.91437215  0.29604584  0.31956163
   0.08562787  0.70395416  0.68043834
   0.08562787  0.20395416  0.81956166
   0.91437215  0.79604584  0.18043837
   0.58562785  0.29604584  0.18043837
   0.41437212  0.70395416  0.81956166
   0.41437212  0.20395416  0.68043834
   0.58562785  0.79604584  0.31956163
   0.41437212  0.79604584  0.31956163
   0.58562785  0.20395416  0.68043834
   0.58562785  0.70395416  0.81956166
   0.41437212  0.29604584  0.18043837
   0.00000000  0.58476080  0.20037660
   0.00000000  0.41523920  0.79962337
   0.00000000  0.91523920  0.70037663
   0.00000000  0.08476080  0.29962340
   0.50000000  0.08476080  0.20037660
   0.50000000  0.91523920  0.79962337
   0.50000000  0.41523920  0.70037663
   0.50000000  0.58476080  0.29962340
   0.00000000  0.73000474  0.23276478
   0.00000000  0.26999526  0.76723521
   0.00000000  0.76999526  0.73276479
   0.00000000  0.23000474  0.26723521
   0.50000000  0.23000474  0.23276478
   0.50000000  0.76999526  0.76723521
   0.50000000  0.26999526  0.73276479
   0.50000000  0.73000474  0.26723521
   0.74974830  0.50000000 -0.00000000
   0.25025170  0.50000000 -0.00000000
   0.25025170  0.00000000  0.50000000
   0.74974830  0.00000000  0.50000000
   0.24974830  0.00000000 -0.00000000
   0.75025170  0.00000000 -0.00000000
   0.75025170  0.50000000  0.50000000
   0.24974830  0.50000000  0.50000000
Direct configuration=     3
   0.80540519  0.58627045  0.92801990
   0.19459481  0.41372955  0.07198010
   0.19459481  0.91372955  0.42801990
   0.80540519  0.08627045  0.57198010
   0.19459481  0.08627045  0.57198010
   0.80540519  0.91372955  0.42801990
   0.80540519  0.41372955  0.07198010
   0.19459481  0.58627045  0.92801990
   0.30540519  0.08627045  0.92801990
   0.69459481  0.91372955  0.07198010
   0.69459481  0.41372955  0.42801990
   0.30540519  0.58627045  0.57198010
   0.69459481  0.58627045  0.57198010
   0.30540519  0.41372955  0.42801990
   0.30540519  0.91372955  0.07198010
   0.69459481  0.08627045  0.92801990
   0.69420337  0.57198475  0.08634246
   0.30579663  0.42801525  0.91365754
   0.30579663  0.92801525  0.58634246
   0.69420337  0.07198475  0.41365754
   0.30579663  0.07198475  0.41365754
   0.69420337  0.92801525  0.58634246
   0.69420337  0.42801525  0.91365754
   0.30579663  0.57198475  0.08634246
   0.19420337  0.07198475  0.08634246
   0.80579663  0.92801525  0.91365754
   0.80579663  0.42801525  0.58634246
   0.19420337  0.57198475  0.41365754
   0.80579663  0.57198475  0.41365754
   0.19420337  0.42801525  0.58634246
   0.19420337  0.92801525  0.91365754
   0.80579663  0.07198475  0.08634246
   0.07923776  0.79079250  0.18136573
   0.92076226  0.20920750  0.81863430
   0.92076226  0.70920750  0.68136570
   0.07923776  0.29079250  0.31863427
   0.92076226  0.29079250  0.31863427
   0.07923776  0.70920750  0.68136570
   0.07923776  0.20920750  0.81863430
   0.92076226  0.79079250  0.18136573
   0.57923774  0.29079250  0.18136573
   0.42076223  0.70920750  0.81863430
   0.42076223  0.20920750  0.68136570
   0.57923774  0.79079250  0.31863427
   0.42076223  0.79079250  0.31863427
   0.57923774  0.20920750  0.68136570
   0.57923774  0.70920750  0.81863430
   0.42076223  0.29079250  0.18136573
   0.00000000  0.59529114  0.19979048
   0.00000000  0.40470886  0.80020949
   0.00000000  0.90470886  0.69979051
   0.00000000  0.09529114  0.30020952
   0.50000000  0.09529114  0.19979048
   0.50000000  0.90470886  0.80020949
   0.50000000  0.40470886  0.69979051
   0.50000000  0.59529114  0.30020952
   0.00000000  0.72980313  0.23153696
   0.00000000  0.27019687  0.76846302
   0.00000000  0.77019687  0.73153698
   0.00000000  0.22980313  0.26846302
   0.50000000  0.22980313  0.23153696
   0.50000000  0.77019687  0.76846302
   0.50000000  0.27019687  0.73153698
   0.50000000  0.72980313  0.26846302
   0.74977407  0.50000000 -0.00000000
   0.25022593  0.50000000 -0.00000000
   0.25022593  0.00000000  0.50000000
   0.74977407  0.00000000  0.50000000
   0.24977407  0.00000000 -0.00000000
   0.75022593  0.00000000 -0.00000000
   0.75022593  0.50000000  0.50000000
   0.24977407  0.50000000  0.50000000
Direct configuration=     4
   0.80603024  0.58709998  0.92748147
   0.19396976  0.41290002  0.07251853
   0.19396976  0.91290002  0.42748147
   0.80603024  0.08709998  0.57251853
   0.19396976  0.08709998  0.57251853
   0.80603024  0.91290002  0.42748147
   0.80603024  0.41290002  0.07251853
   0.19396976  0.58709998  0.92748147
   0.30603024  0.08709998  0.92748147
   0.69396976  0.91290002  0.07251853
   0.69396976  0.41290002  0.42748147
   0.30603024  0.58709998  0.57251853
   0.69396976  0.58709998  0.57251853
   0.30603024  0.41290002  0.42748147
   0.30603024  0.91290002  0.07251853
   0.69396976  0.08709998  0.92748147
   0.69357727  0.57276915  0.08712158
   0.30642273  0.42723085  0.91287842
   0.30642273  0.92723085  0.58712158
   0.69357727  0.07276915  0.41287842
   0.30642273  0.07276915  0.41287842
   0.69357727  0.92723085  0.58712158
   0.69357727  0.42723085  0.91287842
   0.30642273  0.57276915  0.08712158
   0.19357727  0.07276915  0.08712158
   0.80642273  0.92723085  0.91287842
   0.80642273  0.42723085  0.58712158
   0.19357727  0.57276915  0.41287842
   0.80642273  0.57276915  0.41287842
   0.19357727  0.42723085  0.58712158
   0.19357727  0.92723085  0.91287842
   0.80642273  0.07276915  0.08712158
   0.08055308  0.79233604  0.18510920
   0.91944695  0.20766396  0.81489083
   0.91944695  0.70766396  0.68510917
   0.08055308  0.29233604  0.31489080
   0.91944695  0.29233604  0.31489080
   0.08055308  0.70766396  0.68510917
   0.08055308  0.20766396  0.81489083
   0.91944695  0.79233604  0.18510920
   0.58055305  0.29233604  0.18510920
   0.41944692  0.70766396  0.81489083
   0.41944692  0.20766396  0.68510917
   0.58055305  0.79233604  0.31489080
   0.41944692  0.79233604  0.31489080
   0.58055305  0.20766396  0.68510917
   0.58055305  0.70766396  0.81489083
   0.41944692  0.29233604  0.18510920
   0.00000000  0.59356695  0.20397888
   0.00000000  0.40643305  0.79602109
   0.00000000  0.90643305  0.70397891
   0.00000000  0.09356695  0.29602112
   0.50000000  0.09356695  0.20397888
   0.50000000  0.90643305  0.79602109
   0.50000000  0.40643305  0.70397891
   0.50000000  0.59356695  0.29602112
   0.00000000  0.72874458  0.21964882
   0.00000000  0.27125542  0.78035116
   0.00000000  0.77125542  0.71964884
   0.00000000  0.22874458  0.28035116
   0.50000000  0.22874458  0.21964882
   0.50000000  0.77125542  0.78035116
   0.50000000  0.27125542  0.71964884
   0.50000000  0.72874458  0.28035116
   0.74975115  0.50000000 -0.00000000
   0.25024885  0.50000000 -0.00000000
   0.25024885  0.00000000  0.50000000
   0.74975115  0.00000000  0.50000000
   0.24975115  0.00000000 -0.00000000
   0.75024885  0.00000000 -0.00000000
   0.75024885  0.50000000  0.50000000
   0.24975115  0.50000000  0.50000000
Direct configuration=     5
   0.80650970  0.58773630  0.92706845
   0.19349030  0.41226370  0.07293155
   0.19349030  0.91226370  0.42706845
   0.80650970  0.08773630  0.57293155
   0.19349030  0.08773630  0.57293155
   0.80650970  0.91226370  0.42706845
   0.80650970  0.41226370  0.07293155
   0.19349030  0.58773630  0.92706845
   0.30650970  0.08773630  0.92706845
   0.69349030  0.91226370  0.07293155
   0.69349030  0.41226370  0.42706845
   0.30650970  0.58773630  0.57293155
   0.69349030  0.58773630  0.57293155
   0.30650970  0.41226370  0.42706845
   0.30650970  0.91226370  0.07293155
   0.69349030  0.08773630  0.92706845
   0.69309701  0.57337085  0.08771923
   0.30690299  0.42662915  0.91228077
   0.30690299  0.92662915  0.58771923
   0.69309701  0.07337085  0.41228077
   0.30690299  0.07337085  0.41228077
   0.69309701  0.92662915  0.58771923
   0.69309701  0.42662915  0.91228077
   0.30690299  0.57337085  0.08771923
   0.19309701  0.07337085  0.08771923
   0.80690299  0.92662915  0.91228077
   0.80690299  0.42662915  0.58771923
   0.19309701  0.57337085  0.41228077
   0.80690299  0.57337085  0.41228077
   0.19309701  0.42662915  0.58771923
   0.19309701  0.92662915  0.91228077
   0.80690299  0.07337085  0.08771923
   0.08156204  0.79352007  0.18798076
   0.91843799  0.20647993  0.81201927
   0.91843799  0.70647993  0.68798073
   0.08156204  0.29352007  0.31201924
   0.91843799  0.29352007  0.31201924
   0.08156204  0.70647993  0.68798073
   0.08156204  0.20647993  0.81201927
   0.91843799  0.79352007  0.18798076
   0.58156201  0.29352007  0.18798076
   0.41843796  0.70647993  0.81201927
   0.41843796  0.20647993  0.68798073
   0.58156201  0.79352007  0.31201924
   0.41843796  0.79352007  0.31201924
   0.58156201  0.20647993  0.68798073
   0.58156201  0.70647993  0.81201927
   0.41843796  0.29352007  0.18798076
   0.00000000  0.59224436  0.20719174
   0.00000000  0.40775564  0.79280823
   0.00000000  0.90775564  0.70719177
   0.00000000  0.09224436  0.29280826
   0.50000000  0.09224436  0.20719174
   0.50000000  0.90775564  0.79280823
   0.50000000  0.40775564  0.70719177
   0.50000000  0.59224436  0.29280826
   0.00000000  0.72793259  0.21052960
   0.00000000  0.27206741  0.78947038
   0.00000000  0.77206741  0.71052962
   0.00000000  0.22793259  0.28947038
   0.50000000  0.22793259  0.21052960
   0.50000000  0.77206741  0.78947038
   0.50000000  0.27206741  0.71052962
   0.50000000  0.72793259  0.28947038
   0.74973357  0.50000000 -0.00000000
   0.25026643  0.50000000 -0.00000000
   0.25026643  0.00000000  0.50000000
   0.74973357  0.00000000  0.50000000
   0.24973357  0.00000000 -0.00000000
   0.75026643  0.00000000 -0.00000000
   0.75026643  0.50000000  0.50000000
   0.24973357  0.50000000  0.50000000
Direct configuration=     6
   0.80746862  0.58900893  0.92624241
   0.19253138  0.41099107  0.07375759
   0.19253138  0.91099107  0.42624241
   0.80746862  0.08900893  0.57375759
   0.19253138  0.08900893  0.57375759
   0.80746862  0.91099107  0.42624241
   0.80746862  0.41099107  0.07375759
   0.19253138  0.58900893  0.92624241
   0.30746862  0.08900893  0.92624241
   0.69253138  0.91099107  0.07375759
   0.69253138  0.41099107  0.42624241
   0.30746862  0.58900893  0.57375759
   0.69253138  0.58900893  0.57375759
   0.30746862  0.41099107  0.42624241
   0.30746862  0.91099107  0.07375759
   0.69253138  0.08900893  0.92624241
   0.69213648  0.57457425  0.08891454
   0.30786352  0.42542575  0.91108546
   0.30786352  0.92542575  0.58891454
   0.69213648  0.07457425  0.41108546
   0.30786352  0.07457425  0.41108546
   0.69213648  0.92542575  0.58891454
   0.69213648  0.42542575  0.91108546
   0.30786352  0.57457425  0.08891454
   0.19213648  0.07457425  0.08891454
   0.80786352  0.92542575  0.91108546
   0.80786352  0.42542575  0.58891454
   0.19213648  0.57457425  0.41108546
   0.80786352  0.57457425  0.41108546
   0.19213648  0.42542575  0.58891454
   0.19213648  0.92542575  0.91108546
   0.80786352  0.07457425  0.08891454
   0.08357996  0.79588813  0.19372388
   0.91642007  0.20411187  0.80627615
   0.91642007  0.70411187  0.69372385
   0.08357996  0.29588813  0.30627612
   0.91642007  0.29588813  0.30627612
   0.08357996  0.70411187  0.69372385
   0.08357996  0.20411187  0.80627615
   0.91642007  0.79588813  0.19372388
   0.58357993  0.29588813  0.19372388
   0.41642004  0.70411187  0.80627615
   0.41642004  0.20411187  0.69372385
   0.58357993  0.79588813  0.30627612
   0.41642004  0.79588813  0.30627612
   0.58357993  0.20411187  0.69372385
   0.58357993  0.70411187  0.80627615
   0.41642004  0.29588813  0.19372388
   0.00000000  0.58959916  0.21361745
   0.00000000  0.41040084  0.78638252
   0.00000000  0.91040084  0.71361748
   0.00000000  0.08959916  0.28638255
   0.50000000  0.08959916  0.21361745
   0.50000000  0.91040084  0.78638252
   0.50000000  0.41040084  0.71361748
   0.50000000  0.58959916  0.28638255
   0.00000000  0.72630860  0.19229116
   0.00000000  0.27369140  0.80770883
   0.00000000  0.77369140  0.69229117
   0.00000000  0.22630860  0.30770883
   0.50000000  0.22630860  0.19229116
   0.50000000  0.77369140  0.80770883
   0.50000000  0.27369140  0.69229117
   0.50000000  0.72630860  0.30770883
   0.74969841  0.50000000 -0.00000000
   0.25030159  0.50000000 -0.00000000
   0.25030159  0.00000000  0.50000000
   0.74969841  0.00000000  0.50000000
   0.24969841  0.00000000 -0.00000000
   0.75030159  0.00000000 -0.00000000
   0.75030159  0.50000000  0.50000000
   0.24969841  0.50000000  0.50000000
Direct configuration=     7
   0.80675167  0.58805743  0.92686001
   0.19324833  0.41194257  0.07313999
   0.19324833  0.91194257  0.42686001
   0.80675167  0.08805743  0.57313999
   0.19324833  0.08805743  0.57313999
   0.80675167  0.91194257  0.42686001
   0.80675167  0.41194257  0.07313999
   0.19324833  0.58805743  0.92686001
   0.30675167  0.08805743  0.92686001
   0.69324833  0.91194257  0.07313999
   0.69324833  0.41194257  0.42686001
   0.30675167  0.58805743  0.57313999
   0.69324833  0.58805743  0.57313999
   0.30675167  0.41194257  0.42686001
   0.30675167  0.91194257  0.07313999
   0.69324833  0.08805743  0.92686001
   0.69285463  0.57367451  0.08802086
   0.30714537  0.42632549  0.91197914
   0.30714537  0.92632549  0.58802086
   0.69285463  0.07367451  0.41197914
   0.30714537  0.07367451  0.41197914
   0.69285463  0.92632549  0.58802086
   0.69285463  0.42632549  0.91197914
   0.30714537  0.57367451  0.08802086
   0.19285463  0.07367451  0.08802086
   0.80714537  0.92632549  0.91197914
   0.80714537  0.42632549  0.58802086
   0.19285463  0.57367451  0.41197914
   0.80714537  0.57367451  0.41197914
   0.19285463  0.42632549  0.58802086
   0.19285463  0.92632549  0.91197914
   0.80714537  0.07367451  0.08802086
   0.08207123  0.79411762  0.18942996
   0.91792879  0.20588238  0.81057007
   0.91792879  0.70588238  0.68942993
   0.08207123  0.29411762  0.31057004
   0.91792879  0.29411762  0.31057004
   0.08207123  0.70588238  0.68942993
   0.08207123  0.20588238  0.81057007
   0.91792879  0.79411762  0.18942996
   0.58207121  0.29411762  0.18942996
   0.41792876  0.70588238  0.81057007
   0.41792876  0.20588238  0.68942993
   0.58207121  0.79411762  0.31057004
   0.41792876  0.79411762  0.31057004
   0.58207121  0.20588238  0.68942993
   0.58207121  0.70588238  0.81057007
   0.41792876  0.29411762  0.18942996
   0.00000000  0.59157687  0.20881319
   0.00000000  0.40842313  0.79118678
   0.00000000  0.90842313  0.70881322
   0.00000000  0.09157687  0.29118681
   0.50000000  0.09157687  0.20881319
   0.50000000  0.90842313  0.79118678
   0.50000000  0.40842313  0.70881322
   0.50000000  0.59157687  0.29118681
   0.00000000  0.72752280  0.20592735
   0.00000000  0.27247720  0.79407264
   0.00000000  0.77247720  0.70592736
   0.00000000  0.22752280  0.29407264
   0.50000000  0.22752280  0.20592735
   0.50000000  0.77247720  0.79407264
   0.50000000  0.27247720  0.70592736
   0.50000000  0.72752280  0.29407264
   0.74972470  0.50000000 -0.00000000
   0.25027530  0.50000000 -0.00000000
   0.25027530  0.00000000  0.50000000
   0.74972470  0.00000000  0.50000000
   0.24972470  0.00000000 -0.00000000
   0.75027530  0.00000000 -0.00000000
   0.75027530  0.50000000  0.50000000
   0.24972470  0.50000000  0.50000000
Direct configuration=     8
   0.80503546  0.58526699  0.92944126
   0.19496454  0.41473301  0.07055874
   0.19496454  0.91473301  0.42944126
   0.80503546  0.08526699  0.57055874
   0.19496454  0.08526699  0.57055874
   0.80503546  0.91473301  0.42944126
   0.80503546  0.41473301  0.07055874
   0.19496454  0.58526699  0.92944126
   0.30503546  0.08526699  0.92944126
   0.69496454  0.91473301  0.07055874
   0.69496454  0.41473301  0.42944126
   0.30503546  0.58526699  0.57055874
   0.69496454  0.58526699  0.57055874
   0.30503546  0.41473301  0.42944126
   0.30503546  0.91473301  0.07055874
   0.69496454  0.08526699  0.92944126
   0.69462025  0.57136498  0.08502629
   0.30537975  0.42863502  0.91497371
   0.30537975  0.92863502  0.58502629
   0.69462025  0.07136498  0.41497371
   0.30537975  0.07136498  0.41497371
   0.69462025  0.92863502  0.58502629
   0.69462025  0.42863502  0.91497371
   0.30537975  0.57136498  0.08502629
   0.19462025  0.07136498  0.08502629
   0.80537975  0.92863502  0.91497371
   0.80537975  0.42863502  0.58502629
   0.19462025  0.57136498  0.41497371
   0.80537975  0.57136498  0.41497371
   0.19462025  0.42863502  0.58502629
   0.19462025  0.92863502  0.91497371
   0.80537975  0.07136498  0.08502629
   0.08300157  0.79506017  0.19085861
   0.91699846  0.20493983  0.80914142
   0.91699846  0.70493983  0.69085858
   0.08300157  0.29506017  0.30914139
   0.91699846  0.29506017  0.30914139
   0.08300157  0.70493983  0.69085858
   0.08300157  0.20493983  0.80914142
   0.91699846  0.79506017  0.19085861
   0.58300154  0.29506017  0.19085861
   0.41699843  0.70493983  0.80914142
   0.41699843  0.20493983  0.69085858
   0.58300154  0.79506017  0.30914139
   0.41699843  0.79506017  0.30914139
   0.58300154  0.20493983  0.69085858
   0.58300154  0.70493983  0.80914142
   0.41699843  0.29506017  0.19085861
   0.00000000  0.59028839  0.21050003
   0.00000000  0.40971161  0.78949994
   0.00000000  0.90971161  0.71050006
   0.00000000  0.09028839  0.28949997
   0.50000000  0.09028839  0.21050003
   0.50000000  0.90971161  0.78949994
   0.50000000  0.40971161  0.71050006
   0.50000000  0.59028839  0.28949997
   0.00000000  0.72738942  0.20093623
   0.00000000  0.27261058  0.79906376
   0.00000000  0.77261058  0.70093624
   0.00000000  0.22738942  0.29906376
   0.50000000  0.22738942  0.20093623
   0.50000000  0.77261058  0.79906376
   0.50000000  0.27261058  0.70093624
   0.50000000  0.72738942  0.29906376
   0.74953864  0.50000000 -0.00000000
   0.25046136  0.50000000 -0.00000000
   0.25046136  0.00000000  0.50000000
   0.74953864  0.00000000  0.50000000
   0.24953864  0.00000000 -0.00000000
   0.75046136  0.00000000 -0.00000000
   0.75046136  0.50000000  0.50000000
   0.24953864  0.50000000  0.50000000
Direct configuration=     9
   0.80558257  0.58615656  0.92861838
   0.19441743  0.41384344  0.07138162
   0.19441743  0.91384344  0.42861838
   0.80558257  0.08615656  0.57138162
   0.19441743  0.08615656  0.57138162
   0.80558257  0.91384344  0.42861838
   0.80558257  0.41384344  0.07138162
   0.19441743  0.58615656  0.92861838
   0.30558257  0.08615656  0.92861838
   0.69441743  0.91384344  0.07138162
   0.69441743  0.41384344  0.42861838
   0.30558257  0.58615656  0.57138162
   0.69441743  0.58615656  0.57138162
   0.30558257  0.41384344  0.42861838
   0.30558257  0.91384344  0.07138162
   0.69441743  0.08615656  0.92861838
   0.69405738  0.57210123  0.08598093
   0.30594262  0.42789877  0.91401907
   0.30594262  0.92789877  0.58598093
   0.69405738  0.07210123  0.41401907
   0.30594262  0.07210123  0.41401907
   0.69405738  0.92789877  0.58598093
   0.69405738  0.42789877  0.91401907
   0.30594262  0.57210123  0.08598093
   0.19405738  0.07210123  0.08598093
   0.80594262  0.92789877  0.91401907
   0.80594262  0.42789877  0.58598093
   0.19405738  0.57210123  0.41401907
   0.80594262  0.57210123  0.41401907
   0.19405738  0.42789877  0.58598093
   0.19405738  0.92789877  0.91401907
   0.80594262  0.07210123  0.08598093
   0.08270499  0.79475970  0.19040317
   0.91729504  0.20524030  0.80959686
   0.91729504  0.70524030  0.69040314
   0.08270499  0.29475970  0.30959683
   0.91729504  0.29475970  0.30959683
   0.08270499  0.70524030  0.69040314
   0.08270499  0.20524030  0.80959686
   0.91729504  0.79475970  0.19040317
   0.58270496  0.29475970  0.19040317
   0.41729501  0.70524030  0.80959686
   0.41729501  0.20524030  0.69040314
   0.58270496  0.79475970  0.30959683
   0.41729501  0.79475970  0.30959683
   0.58270496  0.20524030  0.69040314
   0.58270496  0.70524030  0.80959686
   0.41729501  0.29475970  0.19040317
   0.00000000  0.59069915  0.20996228
   0.00000000  0.40930085  0.79003769
   0.00000000  0.90930085  0.70996231
   0.00000000  0.09069915  0.29003772
   0.50000000  0.09069915  0.20996228
   0.50000000  0.90930085  0.79003769
   0.50000000  0.40930085  0.70996231
   0.50000000  0.59069915  0.29003772
   0.00000000  0.72743194  0.20252735
   0.00000000  0.27256806  0.79747263
   0.00000000  0.77256806  0.70252737
   0.00000000  0.22743194  0.29747263
   0.50000000  0.22743194  0.20252735
   0.50000000  0.77256806  0.79747263
   0.50000000  0.27256806  0.70252737
   0.50000000  0.72743194  0.29747263
   0.74959796  0.50000000 -0.00000000
   0.25040204  0.50000000 -0.00000000
   0.25040204  0.00000000  0.50000000
   0.74959796  0.00000000  0.50000000
   0.24959796  0.00000000 -0.00000000
   0.75040204  0.00000000 -0.00000000
   0.75040204  0.50000000  0.50000000
   0.24959796  0.50000000  0.50000000
Direct configuration=    10
   0.80553661  0.58604637  0.92886127
   0.19446339  0.41395363  0.07113873
   0.19446339  0.91395363  0.42886127
   0.80553661  0.08604637  0.57113873
   0.19446339  0.08604637  0.57113873
   0.80553661  0.91395363  0.42886127
   0.80553661  0.41395363  0.07113873
   0.19446339  0.58604637  0.92886127
   0.30553661  0.08604637  0.92886127
   0.69446339  0.91395363  0.07113873
   0.69446339  0.41395363  0.42886127
   0.30553661  0.58604637  0.57113873
   0.69446339  0.58604637  0.57113873
   0.30553661  0.41395363  0.42886127
   0.30553661  0.91395363  0.07113873
   0.69446339  0.08604637  0.92886127
   0.69399753  0.57214617  0.08591815
   0.30600247  0.42785383  0.91408185
   0.30600247  0.92785383  0.58591815
   0.69399753  0.07214617  0.41408185
   0.30600247  0.07214617  0.41408185
   0.69399753  0.92785383  0.58591815
   0.69399753  0.42785383  0.91408185
   0.30600247  0.57214617  0.08591815
   0.19399753  0.07214617  0.08591815
   0.80600247  0.92785383  0.91408185
   0.80600247  0.42785383  0.58591815
   0.19399753  0.57214617  0.41408185
   0.80600247  0.57214617  0.41408185
   0.19399753  0.42785383  0.58591815
   0.19399753  0.92785383  0.91408185
   0.80600247  0.07214617  0.08591815
   0.08246615  0.79463133  0.19066089
   0.91753387  0.20536867  0.80933914
   0.91753387  0.70536867  0.69066086
   0.08246615  0.29463133  0.30933911
   0.91753387  0.29463133  0.30933911
   0.08246615  0.70536867  0.69066086
   0.08246615  0.20536867  0.80933914
   0.91753387  0.79463133  0.19066089
   0.58246613  0.29463133  0.19066089
   0.41753384  0.70536867  0.80933914
   0.41753384  0.20536867  0.69066086
   0.58246613  0.79463133  0.30933911
   0.41753384  0.79463133  0.30933911
   0.58246613  0.20536867  0.69066086
   0.58246613  0.70536867  0.80933914
   0.41753384  0.29463133  0.19066089
   0.00000000  0.59161580  0.21013430
   0.00000000  0.40838420  0.78986567
   0.00000000  0.90838420  0.71013433
   0.00000000  0.09161580  0.28986570
   0.50000000  0.09161580  0.21013430
   0.50000000  0.90838420  0.78986567
   0.50000000  0.40838420  0.71013433
   0.50000000  0.59161580  0.28986570
   0.00000000  0.72713773  0.20149179
   0.00000000  0.27286227  0.79850820
   0.00000000  0.77286227  0.70149180
   0.00000000  0.22713773  0.29850820
   0.50000000  0.22713773  0.20149179
   0.50000000  0.77286227  0.79850820
   0.50000000  0.27286227  0.70149180
   0.50000000  0.72713773  0.29850820
   0.74972958  0.50000000 -0.00000000
   0.25027042  0.50000000 -0.00000000
   0.25027042  0.00000000  0.50000000
   0.74972958  0.00000000  0.50000000
   0.24972958  0.00000000 -0.00000000
   0.75027042  0.00000000 -0.00000000
   0.75027042  0.50000000  0.50000000
   0.24972958  0.50000000  0.50000000
Direct configuration=    11
   0.80554972  0.58607781  0.92879197
   0.19445028  0.41392219  0.07120803
   0.19445028  0.91392219  0.42879197
   0.80554972  0.08607781  0.57120803
   0.19445028  0.08607781  0.57120803
   0.80554972  0.91392219  0.42879197
   0.80554972  0.41392219  0.07120803
   0.19445028  0.58607781  0.92879197
   0.30554972  0.08607781  0.92879197
   0.69445028  0.91392219  0.07120803
   0.69445028  0.41392219  0.42879197
   0.30554972  0.58607781  0.57120803
   0.69445028  0.58607781  0.57120803
   0.30554972  0.41392219  0.42879197
   0.30554972  0.91392219  0.07120803
   0.69445028  0.08607781  0.92879197
   0.69401460  0.57213335  0.08593606
   0.30598540  0.42786665  0.91406394
   0.30598540  0.92786665  0.58593606
   0.69401460  0.07213335  0.41406394
   0.30598540  0.07213335  0.41406394
   0.69401460  0.92786665  0.58593606
   0.69401460  0.42786665  0.91406394
   0.30598540  0.57213335  0.08593606
   0.19401460  0.07213335  0.08593606
   0.80598540  0.92786665  0.91406394
   0.80598540  0.42786665  0.58593606
   0.19401460  0.57213335  0.41406394
   0.80598540  0.57213335  0.41406394
   0.19401460  0.42786665  0.58593606
   0.19401460  0.92786665  0.91406394
   0.80598540  0.07213335  0.08593606
   0.08253429  0.79466796  0.19058736
   0.91746573  0.20533204  0.80941267
   0.91746573  0.70533204  0.69058733
   0.08253429  0.29466796  0.30941264
   0.91746573  0.29466796  0.30941264
   0.08253429  0.70533204  0.69058733
   0.08253429  0.20533204  0.80941267
   0.91746573  0.79466796  0.19058736
   0.58253427  0.29466796  0.19058736
   0.41746570  0.70533204  0.80941267
   0.41746570  0.20533204  0.69058733
   0.58253427  0.79466796  0.30941264
   0.41746570  0.79466796  0.30941264
   0.58253427  0.20533204  0.69058733
   0.58253427  0.70533204  0.80941267
   0.41746570  0.29466796  0.19058736
   0.00000000  0.59135427  0.21008522
   0.00000000  0.40864573  0.78991475
   0.00000000  0.90864573  0.71008525
   0.00000000  0.09135427  0.28991478
   0.50000000  0.09135427  0.21008522
   0.50000000  0.90864573  0.78991475
   0.50000000  0.40864573  0.71008525
   0.50000000  0.59135427  0.28991478