diamond                                 
           1
     6.175939    0.000000    0.000000
     0.000000    6.175939    0.000000
     0.000000    0.000000    6.175939
   H    C 
  16   4
Direct configuration=     1
   0.60030001  0.52968001  0.15026000
   0.54931998  0.63409001  0.89600998
   0.56970000  0.35765001  0.93207002
   0.34876001  0.49586999  0.03313000
   0.96934003  0.10341001  0.13061000
   0.95473999  0.05858004  0.85507000
   0.16532004  0.94997001  0.00338000
   0.90644997  0.84893000  0.03353000
   0.07562006  0.53223002  0.66030997
   0.02463996  0.63664001  0.40605000
   0.04501998  0.36019999  0.44211999
   0.82406998  0.49842000  0.54316997
   0.57178003  0.02575004  0.62698001
   0.52079999  0.13015997  0.37272999
   0.54118002  0.85372001  0.40878999
   0.32023999  0.99194002  0.50984001
   0.51703000  0.50432998  0.00287000
   0.99896002  0.99023002  0.00565000
   0.99234003  0.50687998  0.51292002
   0.48850000  0.00039995  0.47959000
Direct configuration=     2
   0.62128568  0.53867182  0.19501590
   0.56290221  0.67016524  0.86418390
   0.58653819  0.31965358  0.91242725
   0.30393431  0.49661812  0.04025569
   0.95671244  0.13062239  0.15982567
   0.94004887  0.08093524  0.81789032
   0.20885879  0.93645736  0.00186460
   0.88217425  0.81398740  0.05014937
   0.09858134  0.53538374  0.69937651
   0.03505931  0.66895121  0.37424544
   0.05491464  0.32372459  0.41979770
   0.77972761  0.49361466  0.54898603
   0.59115691  0.03067242  0.66663331
   0.53538053  0.16153072  0.34349493
   0.55543775  0.81897771  0.38897830
   0.27420685  0.98712505  0.52242409
   0.51569970  0.50354135  0.00207760
   0.99989620  0.99079816  0.00564215
   0.99265396  0.50700221  0.51368006
   0.48894056  0.00064713  0.47813116
Direct configuration=     3
   0.62478813  0.54017253  0.20248554
   0.56516904  0.67618610  0.85887220
   0.58934844  0.31331207  0.90914892
   0.29645302  0.49674298  0.04144495
   0.95460492  0.13516407  0.16470169
   0.93759696  0.08466627  0.81168512
   0.21612530  0.93420213  0.00161169
   0.87812269  0.80815557  0.05292310
   0.10241352  0.53591009  0.70589662
   0.03679827  0.67434386  0.36893733
   0.05656604  0.31763694  0.41607217
   0.77232698  0.49281266  0.54995671
   0.59439086  0.03149395  0.67325134
   0.53781398  0.16676642  0.33861567
   0.55781733  0.81317931  0.38567178
   0.26652403  0.98632145  0.52452434
   0.51547768  0.50340973  0.00194534
   0.00005245  0.99089298  0.00564084
   0.99270636  0.50702261  0.51380690
   0.48901408  0.00068838  0.47788768
Direct configuration=     4
   0.63179304  0.54317395  0.21742484
   0.56970272  0.68822783  0.84824882
   0.59496894  0.30062905  0.90259227
   0.28149043  0.49699270  0.04382346
   0.95038990  0.14424742  0.17445373
   0.93269314  0.09212832  0.79927474
   0.23065831  0.92969168  0.00110586
   0.87001957  0.79649190  0.05847056
   0.11007788  0.53696279  0.71893684
   0.04027620  0.68512918  0.35832113
   0.05986883  0.30546164  0.40862110
   0.75752573  0.49120866  0.55189808
   0.60085877  0.03313701  0.68648742
   0.54268089  0.17723781  0.32885715
   0.56257649  0.80158251  0.37905874
   0.25115840  0.98471424  0.52872484
   0.51503363  0.50314649  0.00168084
   0.00036494  0.99108263  0.00563821
   0.99281114  0.50706340  0.51406060
   0.48916114  0.00077089  0.47740073
