diamond                                 
           1
    11.386973    0.000000    0.000000
     0.000000    7.964821    0.000000
     0.000000    0.000000    7.959862
   H    C 
  64  16
Direct configuration=     1
   0.07873949  0.81895363  0.16649082
   0.92126053  0.18104637  0.83350921
   0.92126053  0.68104637  0.66649079
   0.07873949  0.31895363  0.33350918
   0.92126053  0.31895363  0.33350918
   0.07873949  0.68104637  0.66649079
   0.07873949  0.18104637  0.83350921
   0.92126053  0.81895363  0.16649082
   0.57873947  0.31895363  0.16649082
   0.42126050  0.68104637  0.83350921
   0.42126050  0.18104637  0.66649079
   0.57873947  0.81895363  0.33350918
   0.42126050  0.81895363  0.33350918
   0.57873947  0.18104637  0.66649079
   0.57873947  0.68104637  0.83350921
   0.42126050  0.31895363  0.16649082
   0.81355874  0.58725948  0.92950472
   0.18644126  0.41274052  0.07049528
   0.18644126  0.91274052  0.42950472
   0.81355874  0.08725948  0.57049528
   0.18644126  0.08725948  0.57049528
   0.81355874  0.91274052  0.42950472
   0.81355874  0.41274052  0.07049528
   0.18644126  0.58725948  0.92950472
   0.31355874  0.08725948  0.92950472
   0.68644126  0.91274052  0.07049528
   0.68644126  0.41274052  0.42950472
   0.31355874  0.58725948  0.57049528
   0.68644126  0.58725948  0.57049528
   0.31355874  0.41274052  0.42950472
   0.31355874  0.91274052  0.07049528
   0.68644126  0.08725948  0.92950472
   0.70249099  0.57075949  0.08715457
   0.29750901  0.42924051  0.91284543
   0.29750901  0.92924051  0.58715457
   0.70249099  0.07075949  0.41284543
   0.29750901  0.07075949  0.41284543
   0.70249099  0.92924051  0.58715457
   0.70249099  0.42924051  0.91284543
   0.29750901  0.57075949  0.08715457
   0.20249099  0.07075949  0.08715457
   0.79750901  0.92924051  0.91284543
   0.79750901  0.42924051  0.58715457
   0.20249099  0.57075949  0.41284543
   0.79750901  0.57075949  0.41284543
   0.20249099  0.42924051  0.58715457
   0.20249099  0.92924051  0.91284543
   0.79750901  0.07075949  0.08715457
   0.00000000  0.62598835  0.14222205
   0.00000000  0.37401165  0.85777792
   0.00000000  0.87401165  0.64222208
   0.00000000  0.12598835  0.35777795
   0.50000000  0.12598835  0.14222205
   0.50000000  0.87401165  0.85777792
   0.50000000  0.37401165  0.64222208
   0.50000000  0.62598835  0.35777795
   0.00000000  0.27794752  0.52285470
   0.00000000  0.72205248  0.47714530
   0.00000000  0.22205248  0.02285470
   0.00000000  0.77794752  0.97714530
   0.50000000  0.77794752  0.52285470
   0.50000000  0.22205248  0.47714530
   0.50000000  0.72205248  0.02285470
   0.50000000  0.27794752  0.97714530
   0.00000000  0.26039242  0.38622072
   0.00000000  0.73960758  0.61377927
   0.00000000  0.23960758  0.88622073
   0.00000000  0.76039242  0.11377927
   0.50000000  0.76039242  0.38622072
   0.50000000  0.23960758  0.61377927
   0.50000000  0.73960758  0.88622073
   0.50000000  0.26039242  0.11377927
   0.75800863  0.50000000  0.00000000
   0.24199137  0.50000000  0.00000000
   0.24199137  0.00000000  0.50000000
   0.75800863  0.00000000  0.50000000
   0.25800863  0.00000000  0.00000000
   0.74199137  0.00000000  0.00000000
   0.74199137  0.50000000  0.50000000
   0.25800863  0.50000000  0.50000000
Direct configuration=     2
   0.07873811  0.81895476  0.16665304
   0.92126191  0.18104524  0.83334699
   0.92126191  0.68104524  0.66665301
   0.07873811  0.31895476  0.33334696
   0.92126191  0.31895476  0.33334696
   0.07873811  0.68104524  0.66665301
   0.07873811  0.18104524  0.83334699
   0.92126191  0.81895476  0.16665304
   0.57873809  0.31895476  0.16665304
   0.42126188  0.68104524  0.83334699
   0.42126188  0.18104524  0.66665301
   0.57873809  0.81895476  0.33334696
   0.42126188  0.81895476  0.33334696
   0.57873809  0.18104524  0.66665301
   0.57873809  0.68104524  0.83334699
   0.42126188  0.31895476  0.16665304
   0.81357489  0.58726558  0.92950534
   0.18642511  0.41273442  0.07049466
   0.18642511  0.91273442  0.42950534
   0.81357489  0.08726558  0.57049466
   0.18642511  0.08726558  0.57049466
   0.81357489  0.91273442  0.42950534
   0.81357489  0.41273442  0.07049466
   0.18642511  0.58726558  0.92950534
   0.31357489  0.08726558  0.92950534
   0.68642511  0.91273442  0.07049466
   0.68642511  0.41273442  0.42950534
   0.31357489  0.58726558  0.57049466
   0.68642511  0.58726558  0.57049466
   0.31357489  0.41273442  0.42950534
   0.31357489  0.91273442  0.07049466
   0.68642511  0.08726558  0.92950534
   0.70251543  0.57077337  0.08714308
   0.29748457  0.42922663  0.91285692
   0.29748457  0.92922663  0.58714308
   0.70251543  0.07077337  0.41285692
   0.29748457  0.07077337  0.41285692
   0.70251543  0.92922663  0.58714308
   0.70251543  0.42922663  0.91285692
   0.29748457  0.57077337  0.08714308
   0.20251543  0.07077337  0.08714308
   0.79748457  0.92922663  0.91285692
   0.79748457  0.42922663  0.58714308
   0.20251543  0.57077337  0.41285692
   0.79748457  0.57077337  0.41285692
   0.20251543  0.42922663  0.58714308
   0.20251543  0.92922663  0.91285692
   0.79748457  0.07077337  0.08714308
   0.00000000  0.62582166  0.14236214
   0.00000000  0.37417834  0.85763783
   0.00000000  0.87417834  0.64236217
   0.00000000  0.12582166  0.35763786
   0.50000000  0.12582166  0.14236214
   0.50000000  0.87417834  0.85763783
   0.50000000  0.37417834  0.64236217
   0.50000000  0.62582166  0.35763786
   0.00000000  0.27793731  0.52258066
   0.00000000  0.72206269  0.47741934
   0.00000000  0.22206269  0.02258066
   0.00000000  0.77793731  0.97741934
   0.50000000  0.77793731  0.52258066
   0.50000000  0.22206269  0.47741934
   0.50000000  0.72206269  0.02258066
   0.50000000  0.27793731  0.97741934
   0.00000000  0.26040384  0.38628896
   0.00000000  0.73959616  0.61371103
   0.00000000  0.23959616  0.88628897
   0.00000000  0.76040384  0.11371103
   0.50000000  0.76040384  0.38628896
   0.50000000  0.23959616  0.61371103
   0.50000000  0.73959616  0.88628897
   0.50000000  0.26040384  0.11371103
   0.75801706  0.50000000 -0.00000000
   0.24198294  0.50000000 -0.00000000
   0.24198294  0.00000000  0.50000000
   0.75801706  0.00000000  0.50000000
   0.25801706  0.00000000 -0.00000000
   0.74198294  0.00000000 -0.00000000
   0.74198294  0.50000000  0.50000000
   0.25801706  0.50000000  0.50000000
Direct configuration=     3
   0.07873860  0.81895436  0.16659546
   0.92126142  0.18104564  0.83340457
   0.92126142  0.68104564  0.66659543
   0.07873860  0.31895436  0.33340454
   0.92126142  0.31895436  0.33340454
   0.07873860  0.68104564  0.66659543
   0.07873860  0.18104564  0.83340457
   0.92126142  0.81895436  0.16659546
   0.57873858  0.31895436  0.16659546
   0.42126139  0.68104564  0.83340457
   0.42126139  0.18104564  0.66659543
   0.57873858  0.81895436  0.33340454
   0.42126139  0.81895436  0.33340454
   0.57873858  0.18104564  0.66659543
   0.57873858  0.68104564  0.83340457
   0.42126139  0.31895436  0.16659546
   0.81356916  0.58726341  0.92950512
   0.18643084  0.41273659  0.07049488
   0.18643084  0.91273659  0.42950512
   0.81356916  0.08726341  0.57049488
   0.18643084  0.08726341  0.57049488
   0.81356916  0.91273659  0.42950512
   0.81356916  0.41273659  0.07049488
   0.18643084  0.58726341  0.92950512
   0.31356916  0.08726341  0.92950512
   0.68643084  0.91273659  0.07049488
   0.68643084  0.41273659  0.42950512
   0.31356916  0.58726341  0.57049488
   0.68643084  0.58726341  0.57049488
   0.31356916  0.41273659  0.42950512
   0.31356916  0.91273659  0.07049488
   0.68643084  0.08726341  0.92950512
   0.70250675  0.57076844  0.08714716
   0.29749325  0.42923156  0.91285284
   0.29749325  0.92923156  0.58714716
   0.70250675  0.07076844  0.41285284
   0.29749325  0.07076844  0.41285284
   0.70250675  0.92923156  0.58714716
   0.70250675  0.42923156  0.91285284
   0.29749325  0.57076844  0.08714716
   0.20250675  0.07076844  0.08714716
   0.79749325  0.92923156  0.91285284
   0.79749325  0.42923156  0.58714716
   0.20250675  0.57076844  0.41285284
   0.79749325  0.57076844  0.41285284
   0.20250675  0.42923156  0.58714716
   0.20250675  0.92923156  0.91285284
   0.79749325  0.07076844  0.08714716
   0.00000000  0.62588083  0.14231241
   0.00000000  0.37411917  0.85768756
   0.00000000  0.87411917  0.64231244
   0.00000000  0.12588083  0.35768759
   0.50000000  0.12588083  0.14231241
   0.50000000  0.87411917  0.85768756
   0.50000000  0.37411917  0.64231244
   0.50000000  0.62588083  0.35768759
   0.00000000  0.27794093  0.52267793
   0.00000000  0.72205907  0.47732207
   0.00000000  0.22205907  0.02267793
   0.00000000  0.77794093  0.97732207
   0.50000000  0.77794093  0.52267793
   0.50000000  0.22205907  0.47732207
   0.50000000  0.72205907  0.02267793
   0.50000000  0.27794093  0.97732207
   0.00000000  0.26039979  0.38626474
   0.00000000  0.73960021  0.61373525
   0.00000000  0.23960021  0.88626475
   0.00000000  0.76039979  0.11373525
   0.50000000  0.76039979  0.38626474
   0.50000000  0.23960021  0.61373525
   0.50000000  0.73960021  0.88626475
   0.50000000  0.26039979  0.11373525
   0.75801407  0.50000000 -0.00000000
   0.24198593  0.50000000 -0.00000000
   0.24198593  0.00000000  0.50000000
   0.75801407  0.00000000  0.50000000
   0.25801407  0.00000000 -0.00000000
   0.74198593  0.00000000 -0.00000000
   0.74198593  0.50000000  0.50000000
   0.25801407  0.50000000  0.50000000
