   4   4   0   0
  0.8730593E+01  0.2466437E-09  0.2466437E-09  0.6631751E-09  0.5000000E-15
  1.000000000000000E-004
  CAR 
 graphite                                
     18.63988943    -16.86328181  301      4.77487190      1.00000000
    -16.863  0.0000E+00  0.0000E+00
    -16.745  0.0000E+00  0.0000E+00
    -16.627  0.0000E+00  0.0000E+00
    -16.508  0.0000E+00  0.0000E+00
    -16.390  0.0000E+00  0.0000E+00
    -16.272  0.0000E+00  0.0000E+00
    -16.153  0.0000E+00  0.0000E+00
    -16.035  0.0000E+00  0.0000E+00
    -15.917  0.0000E+00  0.0000E+00
    -15.798  0.0000E+00  0.0000E+00
    -15.680  0.0000E+00  0.0000E+00
    -15.561  0.0000E+00  0.0000E+00
    -15.443  0.0000E+00  0.0000E+00
    -15.325  0.0000E+00  0.0000E+00
    -15.206  0.0000E+00  0.0000E+00
    -15.088  0.0000E+00  0.0000E+00
    -14.970  0.0000E+00  0.0000E+00
    -14.851  0.5097E-04  0.2013E-06
    -14.733  0.1194E-02  0.8880E-04
    -14.615  0.2016E-02  0.2783E-03
    -14.496  0.3096E-02  0.5721E-03
    -14.378  0.3127E-02  0.9351E-03
    -14.260  0.3038E-02  0.1303E-02
    -14.141  0.3086E-02  0.1665E-02
    -14.023  0.3080E-02  0.2032E-02
    -13.905  0.3089E-02  0.2398E-02
    -13.786  0.3105E-02  0.2764E-02
    -13.668  0.3095E-02  0.3132E-02
    -13.550  0.3100E-02  0.3497E-02
    -13.431  0.3128E-02  0.3866E-02
    -13.313  0.3128E-02  0.4237E-02
    -13.195  0.3120E-02  0.4607E-02
    -13.076  0.3107E-02  0.4974E-02
    -12.958  0.3138E-02  0.5344E-02
    -12.840  0.3163E-02  0.5717E-02
    -12.721  0.3161E-02  0.6091E-02
    -12.603  0.3148E-02  0.6465E-02
    -12.485  0.3140E-02  0.6836E-02
    -12.366  0.3158E-02  0.7209E-02
    -12.248  0.3187E-02  0.7584E-02
    -12.130  0.3204E-02  0.7963E-02
    -12.011  0.3202E-02  0.8342E-02
    -11.893  0.3191E-02  0.8720E-02
    -11.774  0.3193E-02  0.9098E-02
    -11.656  0.3210E-02  0.9477E-02
    -11.538  0.3232E-02  0.9858E-02
    -11.419  0.3260E-02  0.1024E-01
    -11.301  0.3269E-02  0.1063E-01
    -11.183  0.3274E-02  0.1102E-01
    -11.064  0.3272E-02  0.1140E-01
    -10.946  0.3290E-02  0.1179E-01
    -10.828  0.3314E-02  0.1218E-01
    -10.709  0.3343E-02  0.1258E-01
    -10.591  0.3379E-02  0.1297E-01
    -10.473  0.3416E-02  0.1338E-01
    -10.354  0.3449E-02  0.1378E-01
    -10.236  0.3494E-02  0.1419E-01
    -10.118  0.3573E-02  0.1461E-01
     -9.999  0.3716E-02  0.1504E-01
     -9.881  0.3910E-02  0.1549E-01
     -9.763  0.4508E-02  0.1597E-01
     -9.644  0.5097E-02  0.1655E-01
     -9.526  0.4623E-02  0.1716E-01
     -9.408  0.3305E-02  0.1762E-01
     -9.289  0.3561E-02  0.1808E-01
     -9.171  0.2314E-02  0.1847E-01
     -9.053  0.2059E-02  0.1873E-01
     -8.934  0.1805E-02  0.1896E-01
     -8.816  0.1551E-02  0.1915E-01
     -8.698  0.1686E-02  0.1933E-01
     -8.579  0.1634E-02  0.1955E-01
     -8.461  0.8813E-03  0.1971E-01
     -8.343  0.1129E-02  0.1982E-01
     -8.224  0.2173E-02  0.2000E-01
     -8.106  0.3593E-02  0.2039E-01
     -7.987  0.2854E-02  0.2080E-01
     -7.869  0.2828E-02  0.2113E-01
     -7.751  0.4104E-02  0.2155E-01
     -7.632  0.3930E-02  0.2208E-01
     -7.514  0.4629E-02  0.2259E-01
     -7.396  0.5372E-02  0.2318E-01
     -7.277  0.4709E-02  0.2380E-01
     -7.159  0.3835E-02  0.2428E-01
     -7.041  0.3679E-02  0.2473E-01
     -6.922  0.3533E-02  0.2515E-01
     -6.804  0.3390E-02  0.2556E-01
     -6.686  0.3250E-02  0.2596E-01
     -6.567  0.3108E-02  0.2633E-01
     -6.449  0.2994E-02  0.2669E-01
     -6.331  0.2956E-02  0.2705E-01
     -6.212  0.2920E-02  0.2739E-01
     -6.094  0.2884E-02  0.2774E-01
     -5.976  0.2847E-02  0.2808E-01
     -5.857  0.2704E-02  0.2841E-01
     -5.739  0.2571E-02  0.2872E-01
     -5.621  0.2961E-02  0.2904E-01
     -5.502  0.3395E-02  0.2942E-01
     -5.384  0.3828E-02  0.2985E-01
     -5.266  0.3835E-02  0.3031E-01
     -5.147  0.3712E-02  0.3075E-01
     -5.029  0.3655E-02  0.3119E-01
     -4.911  0.3598E-02  0.3162E-01
     -4.792  0.3623E-02  0.3204E-01
     -4.674  0.3724E-02  0.3248E-01
     -4.556  0.3818E-02  0.3292E-01
     -4.437  0.3904E-02  0.3338E-01
     -4.319  0.3943E-02  0.3385E-01
     -4.200  0.3955E-02  0.3431E-01
     -4.082  0.3925E-02  0.3478E-01
     -3.964  0.3929E-02  0.3524E-01
     -3.845  0.4029E-02  0.3572E-01
     -3.727  0.4150E-02  0.3620E-01
     -3.609  0.4515E-02  0.3672E-01
     -3.490  0.4789E-02  0.3727E-01
     -3.372  0.4975E-02  0.3784E-01
     -3.254  0.5246E-02  0.3845E-01
     -3.135  0.5474E-02  0.3908E-01
     -3.017  0.5640E-02  0.3974E-01
     -2.899  0.5823E-02  0.4042E-01
     -2.780  0.6011E-02  0.4112E-01
     -2.662  0.6189E-02  0.4184E-01
     -2.544  0.6898E-02  0.4263E-01
     -2.425  0.7125E-02  0.4345E-01
     -2.307  0.7273E-02  0.4431E-01
     -2.189  0.7324E-02  0.4517E-01
     -2.070  0.7510E-02  0.4604E-01
     -1.952  0.7214E-02  0.4688E-01
     -1.834  0.8390E-02  0.4778E-01
     -1.715  0.1123E-01  0.4895E-01
     -1.597  0.1240E-01  0.5038E-01
     -1.479  0.1008E-01  0.5172E-01
     -1.360  0.9254E-02  0.5286E-01
     -1.242  0.8533E-02  0.5390E-01
     -1.124  0.8288E-02  0.5492E-01
     -1.005  0.7375E-02  0.5584E-01
     -0.887  0.5728E-02  0.5656E-01
     -0.769  0.6356E-02  0.5727E-01
     -0.650  0.7286E-02  0.5812E-01
     -0.532  0.7448E-02  0.5899E-01
     -0.413  0.6189E-02  0.5988E-01
     -0.295  0.6001E-02  0.6059E-01
     -0.177  0.6210E-02  0.6131E-01
     -0.058  0.6648E-02  0.6207E-01
      0.060  0.7146E-02  0.6289E-01
      0.178  0.6418E-02  0.6371E-01
      0.297  0.6104E-02  0.6445E-01
      0.415  0.5975E-02  0.6516E-01
      0.533  0.5848E-02  0.6586E-01
      0.652  0.5735E-02  0.6655E-01
      0.770  0.5793E-02  0.6723E-01
      0.888  0.5846E-02  0.6792E-01
      1.007  0.5737E-02  0.6861E-01
      1.125  0.5606E-02  0.6928E-01
      1.243  0.5560E-02  0.6994E-01
      1.362  0.5736E-02  0.7061E-01
      1.480  0.5590E-02  0.7128E-01
      1.598  0.5557E-02  0.7196E-01
      1.717  0.5104E-02  0.7263E-01
      1.835  0.3827E-02  0.7313E-01
      1.953  0.4393E-02  0.7363E-01
      2.072  0.4225E-02  0.7413E-01
      2.190  0.4191E-02  0.7463E-01
      2.308  0.4205E-02  0.7513E-01
      2.427  0.4346E-02  0.7564E-01
      2.545  0.4356E-02  0.7615E-01
      2.663  0.4542E-02  0.7668E-01
      2.782  0.3798E-02  0.7720E-01
      2.900  0.3218E-02  0.7763E-01
      3.018  0.2661E-02  0.7797E-01
      3.137  0.2387E-02  0.7826E-01
      3.255  0.2157E-02  0.7853E-01
      3.374  0.2005E-02  0.7878E-01
      3.492  0.1787E-02  0.7900E-01
      3.610  0.1547E-02  0.7920E-01
      3.729  0.1279E-02  0.7937E-01
      3.847  0.1113E-02  0.7951E-01
      3.965  0.9466E-03  0.7963E-01
      4.084  0.7805E-03  0.7973E-01
      4.202  0.6352E-03  0.7981E-01
      4.320  0.5364E-03  0.7988E-01
      4.439  0.3839E-03  0.7994E-01
      4.557  0.2402E-03  0.7997E-01
      4.675  0.1029E-03  0.8000E-01
      4.794  0.1069E-04  0.8000E-01
      4.912  0.9679E-04  0.8001E-01
      5.030  0.1906E-03  0.8002E-01
      5.149  0.2931E-03  0.8005E-01
      5.267  0.4073E-03  0.8009E-01
      5.385  0.5358E-03  0.8015E-01
      5.504  0.6965E-03  0.8022E-01
      5.622  0.9485E-03  0.8032E-01
      5.740  0.1223E-02  0.8045E-01
      5.859  0.1487E-02  0.8061E-01
      5.977  0.1748E-02  0.8080E-01
      6.095  0.2126E-02  0.8104E-01
      6.214  0.3167E-02  0.8135E-01
      6.332  0.5252E-02  0.8183E-01
      6.450  0.4810E-02  0.8247E-01
      6.569  0.4481E-02  0.8303E-01
      6.687  0.4323E-02  0.8354E-01
      6.805  0.4098E-02  0.8406E-01
      6.924  0.4057E-02  0.8454E-01
      7.042  0.4113E-02  0.8502E-01
      7.161  0.3552E-02  0.8548E-01
      7.279  0.3299E-02  0.8589E-01
      7.397  0.3097E-02  0.8627E-01
      7.516  0.2949E-02  0.8662E-01
      7.634  0.2827E-02  0.8696E-01
      7.752  0.2722E-02  0.8729E-01
      7.871  0.2630E-02  0.8761E-01
      7.989  0.2558E-02  0.8792E-01
      8.107  0.2497E-02  0.8821E-01
      8.226  0.2439E-02  0.8851E-01
      8.344  0.2376E-02  0.8879E-01
      8.462  0.2312E-02  0.8907E-01
      8.581  0.2256E-02  0.8934E-01
      8.699  0.2204E-02  0.8960E-01
      8.817  0.2157E-02  0.8986E-01
      8.936  0.2110E-02  0.9011E-01
      9.054  0.2071E-02  0.9036E-01
      9.172  0.2041E-02  0.9060E-01
      9.291  0.2148E-02  0.9085E-01
      9.409  0.2289E-02  0.9111E-01
      9.527  0.2333E-02  0.9139E-01
      9.646  0.2348E-02  0.9166E-01
      9.764  0.2382E-02  0.9194E-01
      9.882  0.2422E-02  0.9223E-01
     10.001  0.2443E-02  0.9252E-01
     10.119  0.2464E-02  0.9281E-01
     10.237  0.2506E-02  0.9310E-01
     10.356  0.2550E-02  0.9340E-01
     10.474  0.2584E-02  0.9370E-01
     10.593  0.2626E-02  0.9401E-01
     10.711  0.2792E-02  0.9433E-01
     10.829  0.3153E-02  0.9468E-01
     10.948  0.3316E-02  0.9508E-01
     11.066  0.2703E-02  0.9543E-01
     11.184  0.2450E-02  0.9574E-01
     11.303  0.2354E-02  0.9602E-01
     11.421  0.2248E-02  0.9629E-01
     11.539  0.2104E-02  0.9655E-01
     11.658  0.2030E-02  0.9679E-01
     11.776  0.2280E-02  0.9705E-01
     11.894  0.2664E-02  0.9734E-01
     12.013  0.3170E-02  0.9767E-01
     12.131  0.4511E-02  0.9813E-01
     12.249  0.6030E-02  0.9875E-01
     12.368  0.7274E-02  0.9954E-01
     12.486  0.8597E-02  0.1005E+00
     12.604  0.9275E-02  0.1015E+00
     12.723  0.9159E-02  0.1026E+00
     12.841  0.7903E-02  0.1037E+00
     12.959  0.7671E-02  0.1046E+00
     13.078  0.7963E-02  0.1055E+00
     13.196  0.1359E-01  0.1069E+00
     13.314  0.1387E-01  0.1086E+00
     13.433  0.9273E-02  0.1099E+00
     13.551  0.6677E-02  0.1108E+00
     13.669  0.5570E-02  0.1115E+00
     13.788  0.5008E-02  0.1122E+00
     13.906  0.4975E-02  0.1128E+00
     14.024  0.4136E-02  0.1133E+00
     14.143  0.4116E-02  0.1138E+00
     14.261  0.4094E-02  0.1142E+00
     14.380  0.3678E-02  0.1147E+00
     14.498  0.2752E-02  0.1151E+00
     14.616  0.2783E-02  0.1154E+00
     14.735  0.2913E-02  0.1157E+00
     14.853  0.3328E-02  0.1161E+00
     14.971  0.2847E-02  0.1165E+00
     15.090  0.3458E-02  0.1168E+00
     15.208  0.4222E-02  0.1173E+00
     15.326  0.4769E-02  0.1178E+00
     15.445  0.3649E-02  0.1184E+00
     15.563  0.2896E-02  0.1187E+00
     15.681  0.2470E-02  0.1191E+00
     15.800  0.2135E-02  0.1193E+00
     15.918  0.1944E-02  0.1196E+00
     16.036  0.1617E-02  0.1198E+00
     16.155  0.7185E-03  0.1199E+00
     16.273  0.2927E-03  0.1200E+00
     16.391  0.7947E-04  0.1200E+00
     16.510  0.1225E-04  0.1200E+00
     16.628  0.4433E-07  0.1200E+00
     16.746  0.0000E+00  0.1200E+00
     16.865  0.0000E+00  0.1200E+00
     16.983  0.0000E+00  0.1200E+00
     17.101  0.0000E+00  0.1200E+00
     17.220  0.0000E+00  0.1200E+00
     17.338  0.0000E+00  0.1200E+00
     17.456  0.0000E+00  0.1200E+00
     17.575  0.0000E+00  0.1200E+00
     17.693  0.0000E+00  0.1200E+00
     17.811  0.0000E+00  0.1200E+00
     17.930  0.0000E+00  0.1200E+00
     18.048  0.0000E+00  0.1200E+00
     18.167  0.0000E+00  0.1200E+00
     18.285  0.0000E+00  0.1200E+00
     18.403  0.0000E+00  0.1200E+00
     18.522  0.0000E+00  0.1200E+00
     18.640  0.0000E+00  0.1200E+00
