    4    4  200    1
  0.8730593E+01  0.2466437E-09  0.2466437E-09  0.6631751E-09  0.5000000E-15
  1.000000000000000E-004
  CAR 
 graphite                                
     16    455     12
 
  0.0000000E+00  0.0000000E+00  0.0000000E+00  0.3858025E-03
    1      -14.863282
    2      -14.534914
    3       -3.770181
    4       -1.685057
    5        1.775487
    6        1.791915
    7        1.796682
    8        1.812429
    9        9.185490
   10       13.109737
   11       13.119890
   12       13.169089
 
  0.5555556E-01  0.6938894E-17  0.0000000E+00  0.1543210E-02
    1      -14.789510
    2      -14.462586
    3       -3.680645
    4       -1.601575
    5        1.485183
    6        1.514302
    7        1.620451
    8        1.647322
    9        9.273748
   10       13.144965
   11       13.216793
   12       13.453357
 
  0.1111111E+00  0.1387779E-16  0.0000000E+00  0.1543210E-02
    1      -14.568629
    2      -14.245955
    3       -3.412875
    4       -1.352400
    5        0.657175
    6        0.705453
    7        1.199166
    8        1.236128
    9        9.539240
   10       13.157038
   11       13.278418
   12       14.330575
 
  0.1666667E+00  0.4163336E-16  0.0000000E+00  0.1543210E-02
    1      -14.201662
    2      -13.886106
    3       -2.969381
    4       -0.941729
    5       -0.530221
    6       -0.458347
    7        0.635254
    8        0.680716
    9        9.982208
   10       13.051253
   11       13.250009
   12       13.936758
 
  0.2222222E+00  0.1387779E-16  0.0000000E+00  0.1543210E-02
    1      -13.690612
    2      -13.384931
    3       -2.355336
    4       -1.918484
    5       -1.821362
    6       -0.377726
    7        0.037323
    8        0.089146
    9       10.599787
   10       12.493360
   11       12.838079
   12       13.116790
 
  0.2777778E+00  0.2775558E-16  0.0000000E+00  0.1543210E-02
    1      -13.038568
    2      -12.745382
    3       -3.392882
    4       -3.270210
    5       -1.579936
    6       -0.518533
    7       -0.462644
    8        0.324108
    9       10.893343
   10       11.380921
   11       11.672903
   12       12.585547
 
  0.3333333E+00  0.8326673E-16  0.0000000E+00  0.1543210E-02
    1      -12.250677
    2      -11.972641
    3       -4.875658
    4       -4.727820
    5       -0.985119
    6       -0.926459
    7       -0.660827
    8        1.131304
    9        9.265610
   10       10.223626
   11       12.191752
   12       12.416429
 
  0.3888889E+00  0.0000000E+00  0.0000000E+00  0.1543210E-02
    1      -11.336477
    2      -11.076969
    3       -6.310984
    4       -6.140271
    5       -1.334388
    6       -1.273741
    7        0.364275
    8        1.964770
    9        7.760864
   10        8.820797
   11       12.122842
   12       12.506813
 
  0.4444444E+00  0.2775558E-16  0.0000000E+00  0.1543210E-02
    1      -10.323500
    2      -10.091661
    3       -7.637438
    4       -7.453892
    5       -1.549683
    6       -1.487736
    7        1.391132
    8        2.601322
    9        6.647023
   10        7.609102
   11       12.005193
   12       12.426029
 
  0.5000000E+00  0.0000000E+00  0.0000000E+00  0.7716049E-03
    1       -9.521918
    2       -9.397893
    3       -8.448004
    4       -8.354983
    5       -1.622197
    6       -1.559836
    7        1.990083
    8        2.724852
    9        6.301501
   10        7.005909
   11       11.964047
   12       12.394257
 
  0.5555556E-01  0.5555556E-01  0.0000000E+00  0.7716049E-03
    1      -14.642070
    2      -14.317989
    3       -3.501874
    4       -1.435138
    5        0.956097
    6        0.984494
    7        1.306836
    8        1.330387
    9        9.450977
   10       13.246845
   11       13.337796
   12       13.947933
 
  0.1111111E+00  0.5555556E-01  0.0000000E+00  0.1543210E-02
    1      -14.348054
    2      -14.029659
    3       -3.146061
    4       -1.105005
    5       -0.000434
    6        0.048544
    7        0.761043
    8        0.796593
    9        9.806306
   10       13.329823
   11       13.476625
   12       14.455817
 
  0.1666667E+00  0.5555556E-01  0.0000000E+00  0.1543210E-02
    1      -13.908905
    2      -13.599020
    3       -2.616898
    4       -1.249314
    5       -1.171510
    6       -0.617048
    7        0.134896
    8        0.183512
    9       10.338761
   10       13.132142
   11       13.234307
   12       13.467113
 
  0.2222222E+00  0.5555556E-01  0.0000000E+00  0.1543210E-02
    1      -13.327280
    2      -13.028569
    3       -2.656018
    4       -2.550109
    5       -1.921400
    6       -0.470559
    7       -0.413221
    8        0.017562
    9       11.043505
   10       11.632764
   11       12.276098
   12       13.020674
 
  0.2777778E+00  0.5555556E-01  0.0000000E+00  0.1543210E-02
    1      -12.607023
    2      -12.322195
    3       -4.120223
    4       -3.987493
    5       -1.072025
    6       -0.998410
    7       -0.935749
    8        0.777084
    9       10.032901
   10       10.866300
   11       11.902894
   12       12.782461
 
  0.3333333E+00  0.5555556E-01  0.0000000E+00  0.1543210E-02
    1      -11.755192
    2      -11.487222
    3       -5.571776
    4       -5.414182
    5       -1.415689
    6       -1.349497
    7       -0.093619
    8        1.612685
    9        8.464730
   10        9.451150
   11       12.510764
   12       12.798006
 
  0.3888889E+00  0.5555556E-01  0.0000000E+00  0.1543210E-02
    1      -10.786766
    2      -10.539868
    3       -6.954881
    4       -6.776765
    5       -1.702782
    6       -1.634525
    7        0.953977
    8        2.393602
    9        7.118659
   10        8.133752
   11       12.378292
   12       12.792257
 
  0.4444444E+00  0.5555556E-01  0.0000000E+00  0.1543210E-02
    1       -9.773839
    2       -9.576313
    3       -8.149427
    4       -7.983836
    5       -1.848884
    6       -1.779714
    7        1.872011
    8        2.784217
    9        6.370585
   10        7.139290
   11       12.297791
   12       12.734248
 
  0.5000000E+00  0.5555556E-01  0.0000000E+00  0.1543210E-02
    1       -9.775304
    2       -9.577611
    3       -8.147826
    4       -7.982118
    5       -1.849277
    6       -1.780073
    7        1.871205
    8        2.784170
    9        6.370391
   10        7.140333
   11       12.298259
   12       12.734722
 
 -0.4444444E+00  0.5555556E-01  0.0000000E+00  0.1543210E-02
    1      -10.788350
    2      -10.541439
    3       -6.952688
    4       -6.774519
    5       -1.703972
    6       -1.635677
    7        0.952726
    8        2.392835
    9        7.118909
   10        8.135440
   11       12.379685
   12       12.793599
 
 -0.3888889E+00  0.5555556E-01  0.0000000E+00  0.1543210E-02
    1      -11.756592
    2      -11.488617
    3       -5.569402
    4       -5.411757
    5       -1.417561
    6       -1.351313
    7       -0.094872
    8        1.611638
    9        8.464962
   10        9.452865
   11       12.512785
   12       12.798405
 
 -0.3333333E+00  0.5555556E-01  0.0000000E+00  0.1543210E-02
    1      -12.608213
    2      -12.323378
    3       -4.117864
    4       -3.985073
    5       -1.073162
    6       -1.000729
    7       -0.938005
    8        0.776045
    9       10.032610
   10       10.867850
   11       11.901383
   12       12.785451
 
 -0.2777778E+00  0.5555556E-01  0.0000000E+00  0.1543210E-02
    1      -13.328252
    2      -13.029534
    3       -2.654054
    4       -2.548095
    5       -1.922370
    6       -0.472788
    7       -0.415428
    8        0.016645
    9       11.042168
   10       11.631574
   11       12.277396
   12       13.024289
 
 -0.2222222E+00  0.5555556E-01  0.0000000E+00  0.1543210E-02
    1      -13.909650
    2      -13.599766
    3       -2.617672
    4       -1.248664
    5       -1.170878
    6       -0.617793
    7        0.133961
    8        0.182541
    9       10.337696
   10       13.129834
   11       13.238669
   12       13.471881
 
 -0.1666667E+00  0.5555556E-01  0.0000000E+00  0.1543210E-02
    1      -14.348583
    2      -14.030188
    3       -3.146623
    4       -1.105552
    5       -0.003272
    6        0.045633
    7        0.763956
    8        0.798988
    9        9.805523
   10       13.332921
   11       13.480821
   12       14.402635
 
 -0.1111111E+00  0.5555556E-01  0.0000000E+00  0.1543210E-02
    1      -14.642396
    2      -14.318319
    3       -3.502215
    4       -1.435471
    5        0.945855
    6        0.975002
    7        1.316711
    8        1.340031
    9        9.450488
   10       13.248534
   11       13.340818
   12       13.952311
 
 -0.5555556E-01  0.5555556E-01  0.0000000E+00  0.7716049E-03
    1      -14.789615
    2      -14.462691
    3       -3.680756
    4       -1.601679
    5        1.472877
    6        1.502452
    7        1.632720
    8        1.659325
    9        9.273582
   10       13.144337
   11       13.217241
   12       13.451748
 
  0.1111111E+00  0.1111111E+00  0.0000000E+00  0.7716049E-03
    1      -13.981838
    2      -13.670532
    3       -2.704393
    4       -0.900220
    5       -0.856268
    6       -0.697209
    7        0.059385
    8        0.090850
    9       10.252635
   10       13.380672
   11       13.740807
   12       13.794001
 
  0.1666667E+00  0.1111111E+00  0.0000000E+00  0.1543210E-02
    1      -13.472172
    2      -13.170665
    3       -2.093155
    4       -2.052057
    5       -1.981466
    6       -0.689672
    7       -0.641510
    8       -0.137181
    9       10.875455
   10       12.101180
   11       12.588002
   12       13.895163
 
  0.2222222E+00  0.1111111E+00  0.0000000E+00  0.1543210E-02
    1      -12.822286
    2      -12.533256
    3       -3.383747
    4       -3.277498
    5       -1.340458
    6       -1.321282
    7       -1.274008
    8        0.560214
    9       10.646983
   10       11.283385
   11       11.668524
   12       13.757628
 
  0.2777778E+00  0.1111111E+00  0.0000000E+00  0.1543210E-02
    1      -12.037589
    2      -11.763894
    3       -4.784826
    4       -4.647516
    5       -1.856146
    6       -1.779213
    7       -0.405843
    8        1.364597
    9        9.127287
   10        9.934826
   11       12.615730
   12       13.551188
 
  0.3333333E+00  0.1111111E+00  0.0000000E+00  0.1543210E-02
    1      -11.128317
    2      -10.873109
    3       -6.172253
    4       -6.009203
    5       -2.229500
    6       -2.146900
    7        0.617029
    8        2.201848
    9        7.688525
   10        8.612798
   11       13.318729
   12       13.637134
 
  0.3888889E+00  0.1111111E+00  0.0000000E+00  0.1543210E-02
    1      -10.123096
    2       -9.895322
    3       -7.469678
    4       -7.292044
    5       -2.456017
    6       -2.370492
    7        1.647533
    8        2.855172
    9        6.603418
   10        7.440810
   11       13.217829
   12       13.680386
 
  0.4444444E+00  0.1111111E+00  0.0000000E+00  0.1543210E-02
    1       -9.332958
    2       -9.211086
    3       -8.263883
    4       -8.174958
    5       -2.532492
    6       -2.446018
    7        2.256708
    8        2.985041
    9        6.286973
   10        6.821507
   11       13.177204
   12       13.653428
 
  0.5000000E+00  0.1111111E+00  0.0000000E+00  0.1543210E-02
    1      -10.126369
    2       -9.898506
    3       -7.465699
    4       -7.287890
    5       -2.457422
    6       -2.371895
    7        1.645259
    8        2.854286
    9        6.603062
   10        7.444084
   11       13.219447
   12       13.681949
 
 -0.4444444E+00  0.1111111E+00  0.0000000E+00  0.1543210E-02
    1      -11.131318
    2      -10.876097
    3       -6.167741
    4       -6.004551
    5       -2.232171
    6       -2.149557
    7        0.614494
    8        2.199887
    9        7.688626
   10        8.616440
   11       13.321611
   12       13.636093
 
 -0.3888889E+00  0.1111111E+00  0.0000000E+00  0.1543210E-02
    1      -12.040183
    2      -11.766556
    3       -4.780251
    4       -4.642808
    5       -1.859680
    6       -1.782574
    7       -0.408251
    8        1.362425
    9        9.126561
   10        9.938313
   11       12.612309
   12       13.555685
 
 -0.3333333E+00  0.1111111E+00  0.0000000E+00  0.1543210E-02
    1      -12.824461
    2      -12.535421
    3       -3.379983
    4       -3.273598
    5       -1.343778
    6       -1.323385
    7       -1.277263
    8        0.558221
    9       10.644525
   10       11.286518
   11       11.665578
   12       13.763896
 
 -0.2777778E+00  0.1111111E+00  0.0000000E+00  0.1543210E-02
    1      -13.473897
    2      -13.172378
    3       -2.094895
    4       -2.051246
    5       -1.980444
    6       -0.690434
    7       -0.642360
    8       -0.138862
    9       10.873077
   10       12.096644
   11       12.590589
   12       13.903450
 
 -0.2222222E+00  0.1111111E+00  0.0000000E+00  0.1543210E-02
    1      -13.983129
    2      -13.671812
    3       -2.705728
    4       -0.905980
    5       -0.860981
    6       -0.698512
    7        0.064543
    8        0.096281
    9       10.250822
   10       13.375831
   11       13.753687
   12       13.905689
 
 -0.1666667E+00  0.1111111E+00  0.0000000E+00  0.1543210E-02
    1      -14.348913
    2      -14.030511
    3       -3.146963
    4       -1.105890
    5       -0.012311
    6        0.037505
    7        0.772730
    8        0.808361
    9        9.805070
   10       13.343124
   11       13.490105
   12       14.400559
 
 -0.1111111E+00  0.1111111E+00  0.0000000E+00  0.7716049E-03
    1      -14.569058
    2      -14.246381
    3       -3.413329
    4       -1.352847
    5        0.644032
    6        0.692686
    7        1.212581
    8        1.249317
    9        9.538609
   10       13.166240
   11       13.287454
   12       14.361077
 
  0.1666667E+00  0.1666667E+00  0.0000000E+00  0.7716049E-03
    1      -12.894236
    2      -12.603806
    3       -2.968634
    4       -2.908733
    5       -1.606960
    6       -1.563152
    7       -1.404812
    8        0.487271
    9       10.903318
   10       11.414732
   11       11.586562
   12       14.689639
 
  0.2222222E+00  0.1666667E+00  0.0000000E+00  0.1543210E-02
    1      -12.179658
    2      -11.903156
    3       -4.097751
    4       -4.004778
    5       -2.382521
    6       -2.315586
    7       -0.563871
    8        1.236863
    9        9.575303
   10       10.174571
   11       12.463179
   12       14.867068
 
  0.2777778E+00  0.1666667E+00  0.0000000E+00  0.1543210E-02
    1      -11.336355
    2      -11.076627
    3       -5.372398
    4       -5.238658
    5       -2.928013
    6       -2.838247
    7        0.406672
    8        2.069814
    9        8.199429
   10        8.928985
   11       13.489843
   12       14.712792
 
  0.3333333E+00  0.1666667E+00  0.0000000E+00  0.1543210E-02
    1      -10.380759
    2      -10.142390
    3       -6.661596
    4       -6.499329
    5       -3.271602
    6       -3.170998
    7        1.453235
    8        2.872412
    9        6.951792
   10        7.736976
   11       14.487254
   12       14.699981
 
  0.3888889E+00  0.1666667E+00  0.0000000E+00  0.1543210E-02
    1       -9.386807
    2       -9.196876
    3       -7.804182
    4       -7.650456
    5       -3.439390
    6       -3.334198
    7        2.391798
    8        3.301612
    9        6.256262
   10        6.754726
   11       14.449296
   12       15.021421
 
  0.4444444E+00  0.1666667E+00  0.0000000E+00  0.1543210E-02
    1       -9.391205
    2       -9.200823
    3       -7.799744
    4       -7.645296
    5       -3.440274
    6       -3.335039
    7        2.389322
    8        3.301476
    9        6.253714
   10        6.759516
   11       14.450255
   12       15.022249
 
  0.5000000E+00  0.1666667E+00  0.0000000E+00  0.1543210E-02
    1      -10.385510
    2      -10.147115
    3       -6.655238
    4       -6.492709
    5       -3.274099
    6       -3.173376
    7        1.449542
    8        2.869927
    9        6.950653
   10        7.742956
   11       14.488121
   12       14.695302
 
 -0.4444444E+00  0.1666667E+00  0.0000000E+00  0.1543210E-02
    1      -11.340557
    2      -11.080818
    3       -5.366055
    4       -5.232016
    5       -2.931449
    6       -2.841526
    7        0.402994
    8        2.066554
    9        8.197491
   10        8.934939
   11       13.484067
   12       14.717457
 
 -0.3888889E+00  0.1666667E+00  0.0000000E+00  0.1543210E-02
    1      -12.183226
    2      -11.906707
    3       -4.093385
    4       -3.999950
    5       -2.384937
    6       -2.317857
    7       -0.567215
    8        1.233642
    9        9.571000
   10       10.180124
   11       12.458335
   12       14.875214
 
 -0.3333333E+00  0.1666667E+00  0.0000000E+00  0.1543210E-02
    1      -12.897133
    2      -12.606701
    3       -2.970163
    4       -2.908875
    5       -1.604910
    6       -1.560245
    7       -1.407673
    8        0.484470
    9       10.896534
   10       11.419025
   11       11.582630
   12       14.709234
 
 -0.2777778E+00  0.1666667E+00  0.0000000E+00  0.1543210E-02
    1      -13.474431
    2      -13.172912
    3       -2.095446
    4       -2.059900
    5       -1.988088
    6       -0.681401
    7       -0.632638
    8       -0.139450
    9       10.872396
   10       12.093194
   11       12.589845
   12       13.921655
 
 -0.2222222E+00  0.1666667E+00  0.0000000E+00  0.1543210E-02
    1      -13.910508
    2      -13.600623
    3       -2.618578
    4       -1.261114
    5       -1.182734
    6       -0.618712
    7        0.147744
    8        0.196480
    9       10.336561
   10       13.123419
   11       13.257825
   12       13.490775
 
 -0.1666667E+00  0.1666667E+00  0.0000000E+00  0.7716049E-03
    1      -14.202625
    2      -13.887065
    3       -2.970394
    4       -0.942739
    5       -0.543668
    6       -0.471432
    7        0.649842
    8        0.695145
    9        9.980869
   10       13.069695
   11       13.267778
   12       13.933063
 
  0.2222222E+00  0.2222222E+00  0.0000000E+00  0.7716049E-03
    1      -11.405977
    2      -11.144973
    3       -4.891642
    4       -4.815971
    5       -3.344545
    6       -3.287826
    7        0.335332
    8        2.023109
    9        8.423691
   10        9.024471
   11       13.412090
   12       15.979275
 
  0.2777778E+00  0.2222222E+00  0.0000000E+00  0.1543210E-02
    1      -10.513526
    2      -10.271090
    3       -5.911299
    4       -5.796981
    5       -4.018721
    6       -3.933097
    7        1.345773
    8        2.865204
    9        7.234434
   10        7.897103
   11       14.491377
   12       16.024131
 
  0.3333333E+00  0.2222222E+00  0.0000000E+00  0.1543210E-02
    1       -9.533121
    2       -9.318124
    3       -7.039806
    4       -6.890609
    5       -4.373752
    6       -4.263769
    7        2.387078
    8        3.587533
    9        6.228405
   10        6.848314
   11       15.626384
   12       15.910574
 
  0.3888889E+00  0.2222222E+00  0.0000000E+00  0.1543210E-02
    1       -8.767435
    2       -8.651866
    3       -7.773851
    4       -7.708298
    5       -4.482847
    6       -4.366249
    7        3.045893
    8        3.750312
    9        6.070308
   10        6.084645
   11       15.812760
   12       16.610012
 
  0.4444444E+00  0.2222222E+00  0.0000000E+00  0.1543210E-02
    1       -9.539667
    2       -9.324560
    3       -7.032344
    4       -6.882478
    5       -4.375374
    6       -4.265287
    7        2.382616
    8        3.585311
    9        6.224324
   10        6.857195
   11       15.617915
   12       15.910262
 
  0.5000000E+00  0.2222222E+00  0.0000000E+00  0.1543210E-02
    1      -10.519539
    2      -10.277106
    3       -5.904291
    4       -5.789235
    5       -4.020668
    6       -3.934745
    7        1.340921
    8        2.860863
    9        7.230652
   10        7.905835
   11       14.482848
   12       16.028121
 
 -0.4444444E+00  0.2222222E+00  0.0000000E+00  0.1543210E-02
    1      -11.411166
    2      -11.150161
    3       -4.889472
    4       -4.812008
    5       -3.343519
    6       -3.285656
    7        0.330736
    8        2.018565
    9        8.417797
   10        9.032122
   11       13.405042
   12       15.999854
 
 -0.3888889E+00  0.2222222E+00  0.0000000E+00  0.1543210E-02
    1      -12.183983
    2      -11.907463
    3       -4.101654
    4       -4.007191
    5       -2.375931
    6       -2.308094
    7       -0.567909
    8        1.232702
    9        9.567658
   10       10.179430
   11       12.457445
   12       14.902109
 
 -0.3333333E+00  0.2222222E+00  0.0000000E+00  0.1543210E-02
    1      -12.825747
    2      -12.536706
    3       -3.391875
    4       -3.284882
    5       -1.329448
    6       -1.324675
    7       -1.262692
    8        0.556746
    9       10.638431
   10       11.284567
   11       11.664036
   12       13.790849
 
 -0.2777778E+00  0.2222222E+00  0.0000000E+00  0.1543210E-02
    1      -13.329859
    2      -13.031133
    3       -2.667180
    4       -2.560848
    5       -1.924012
    6       -0.456496
    7       -0.399175
    8        0.014891
    9       11.040189
   10       11.623905
   11       12.274433
   12       13.050101
 
 -0.2222222E+00  0.2222222E+00  0.0000000E+00  0.7716049E-03
    1      -13.692327
    2      -13.386636
    3       -2.357108
    4       -1.931602
    5       -1.834157
    6       -0.379538
    7        0.053073
    8        0.104769
    9       10.597557
   10       12.485164
   11       12.863097
   12       13.139685
 
  0.2777778E+00  0.2777778E+00  0.0000000E+00  0.7716049E-03
    1       -9.589488
    2       -9.369838
    3       -6.531579
    4       -6.441266
    5       -4.883839
    6       -4.820890
    7        2.373854
    8        3.694335
    9        6.227498
   10        6.900959
   11       15.571066
   12       16.522925
 
  0.3333333E+00  0.2777778E+00  0.0000000E+00  0.1543210E-02
    1       -8.635112
    2       -8.458883
    3       -7.351787
    4       -7.243269
    5       -5.327843
    6       -5.240920
    7        3.368389
    8        4.291544
    9        5.446077
   10        6.026362
   11       16.164465
   12       16.235878
 
  0.3888889E+00  0.2777778E+00  0.0000000E+00  0.1543210E-02
    1       -8.642958
    2       -8.466125
    3       -7.345248
    4       -7.234555
    5       -5.328075
    6       -5.240951
    7        3.364183
    8        4.291271
    9        5.439397
   10        6.035845
   11       16.188182
   12       16.214504
 
  0.4444444E+00  0.2777778E+00  0.0000000E+00  0.1543210E-02
    1       -9.597523
    2       -9.377943
    3       -6.526412
    4       -6.433977
    5       -4.882523
    6       -4.818250
    7        2.368293
    8        3.688662
    9        6.223010
   10        6.911420
   11       15.559235
   12       16.445683
 
  0.5000000E+00  0.2777778E+00  0.0000000E+00  0.1543210E-02
    1      -10.520588
    2      -10.278199
    3       -5.911445
    4       -5.795506
    5       -4.012563
    6       -3.925829
    7        1.340158
    8        2.858926
    9        7.228757
   10        7.905356
   11       14.481803
   12       16.062151
 
 -0.4444444E+00  0.2777778E+00  0.0000000E+00  0.1543210E-02
    1      -11.342325
    2      -11.082615
    3       -5.376664
    4       -5.242106
    5       -2.917830
    6       -2.827639
    7        0.401452
    8        2.064008
    9        8.192702
   10        8.933192
   11       13.482240
   12       14.750659
 
 -0.3888889E+00  0.2777778E+00  0.0000000E+00  0.1543210E-02
    1      -12.042457
    2      -11.768840
    3       -4.792268
    4       -4.654487
    5       -1.843038
    6       -1.766031
    7       -0.410395
    8        1.359596
    9        9.119554
   10        9.934895
   11       12.610159
   12       13.586747
 
 -0.3333333E+00  0.2777778E+00  0.0000000E+00  0.1543210E-02
    1      -12.610791
    2      -12.325958
    3       -4.130332
    4       -3.997267
    5       -1.075701
    6       -0.983129
    7       -0.920505
    8        0.773103
    9       10.024261
   10       10.863369
   11       11.899029
   12       12.814917
 
 -0.2777778E+00  0.2777778E+00  0.0000000E+00  0.7716049E-03
    1      -13.041251
    2      -12.748056
    3       -3.405096
    4       -3.282122
    5       -1.582624
    6       -0.501712
    7       -0.445976
    8        0.321218
    9       10.884431
   10       11.377934
   11       11.668842
   12       12.614554
 
  0.3333333E+00  0.3333333E+00  0.0000000E+00  0.7716049E-03
    1       -7.880909
    2       -7.774585
    3       -7.772400
    4       -7.670114
    5       -5.725029
    6       -5.724000
    7        4.104646
    8        4.753062
    9        4.762472
   10        5.549313
   11       15.962906
   12       15.988223
 
  0.3888889E+00  0.3333333E+00  0.0000000E+00  0.1543210E-02
    1       -8.645462
    2       -8.469911
    3       -7.347328
    4       -7.237320
    5       -5.322516
    6       -5.234375
    7        3.364487
    8        4.281250
    9        5.444551
   10        6.036821
   11       16.167536
   12       16.233484
 
  0.4444444E+00  0.3333333E+00  0.0000000E+00  0.1543210E-02
    1       -9.542450
    2       -9.327756
    3       -7.039754
    4       -6.889858
    5       -4.364031
    6       -4.253592
    7        2.381612
    8        3.577921
    9        6.224917
   10        6.856316
   11       15.618422
   12       15.943987
 
  0.5000000E+00  0.3333333E+00  0.0000000E+00  0.1543210E-02
    1      -10.388699
    2      -10.150478
    3       -6.664911
    4       -6.502254
    5       -3.259120
    6       -3.158358
    7        1.447419
    8        2.863954
    9        6.947514
   10        7.740092
   11       14.509117
   12       14.707323
 
 -0.4444444E+00  0.3333333E+00  0.0000000E+00  0.1543210E-02
    1      -11.134879
    2      -10.879737
    3       -6.178417
    4       -6.015085
    5       -2.214901
    6       -2.132278
    7        0.611554
    8        2.194677
    9        7.682880
   10        8.611698
   11       13.350833
   12       13.653671
 
 -0.3888889E+00  0.3333333E+00  0.0000000E+00  0.1543210E-02
    1      -11.760402
    2      -11.492459
    3       -5.580458
    4       -5.422627
    5       -1.399310
    6       -1.333171
    7       -0.098335
    8        1.606880
    9        8.457550
   10        9.447128
   11       12.540159
   12       12.818242
 
 -0.3333333E+00  0.3333333E+00  0.0000000E+00  0.7716049E-03
    1      -12.254560
    2      -11.976535
    3       -4.886539
    4       -4.738468
    5       -0.967499
    6       -0.908948
    7       -0.664531
    8        1.126915
    9        9.257297
   10       10.218351
   11       12.202046
   12       12.440231
 
  0.3888889E+00  0.3888889E+00  0.0000000E+00  0.7716049E-03
    1       -8.776534
    2       -8.663605
    3       -7.772967
    4       -7.708979
    5       -4.471437
    6       -4.354599
    7        3.045909
    8        3.734136
    9        6.070859
   10        6.089773
   11       15.848898
   12       16.639889
 
  0.4444444E+00  0.3888889E+00  0.0000000E+00  0.1543210E-02
    1       -9.397283
    2       -9.208319
    3       -7.805064
    4       -7.651646
    5       -3.425395
    6       -3.320165
    7        2.388353
    8        3.287578
    9        6.257166
   10        6.754968
   11       14.486603
   12       15.059131
 
  0.5000000E+00  0.3888889E+00  0.0000000E+00  0.1543210E-02
    1      -10.131869
    2       -9.904461
    3       -7.473779
    4       -7.296165
    5       -2.440185
    6       -2.354739
    7        1.642394
    8        2.843895
    9        6.602100
   10        7.437804
   11       13.254078
   12       13.716650
 
 -0.4444444E+00  0.3888889E+00  0.0000000E+00  0.1543210E-02
    1      -10.793784
    2      -10.547049
    3       -6.961691
    4       -6.783477
    5       -1.685494
    6       -1.617312
    7        0.948735
    8        2.384701
    9        7.114766
   10        8.128478
   11       12.412790
   12       12.826495
 
 -0.3888889E+00  0.3888889E+00  0.0000000E+00  0.7716049E-03
    1      -11.341860
    2      -11.082424
    3       -6.320121
    4       -6.149259
    5       -1.316153
    6       -1.255614
    7        0.359718
    8        1.958009
    9        7.754760
   10        8.814489
   11       12.155332
   12       12.538546
 
  0.4444444E+00  0.4444444E+00  0.0000000E+00  0.7716049E-03
    1       -9.343043
    2       -9.223946
    3       -8.264919
    4       -8.177985
    5       -2.515782
    6       -2.429369
    7        2.256076
    8        2.967516
    9        6.292486
   10        6.812999
   11       13.213061
   12       13.689600
 
  0.5000000E+00  0.4444444E+00  0.0000000E+00  0.1543210E-02
    1       -9.783526
    2       -9.587132
    3       -8.152717
    4       -7.987907
    5       -1.830916
    6       -1.761809
    7        1.868963
    8        2.769132
    9        6.373269
   10        7.130657
   11       12.332623
   12       12.769157
 
 -0.4444444E+00  0.4444444E+00  0.0000000E+00  0.7716049E-03
    1      -10.330951
    2      -10.099533
    3       -7.644041
    4       -7.460649
    5       -1.531080
    6       -1.469232
    7        1.386845
    8        2.589895
    9        6.645968
   10        7.601017
   11       12.039048
   12       12.459852
 
  0.5000000E+00  0.5000000E+00  0.0000000E+00  0.3858025E-03
    1       -9.532329
    2       -9.411130
    3       -8.449454
    4       -8.358461
    5       -1.603467
    6       -1.541209
    7        1.989200
    8        2.706905
    9        6.306690
   10        6.994342
   11       11.998252
   12       12.428495
 