32   
4    

1    
  0.0034858585821386  -0.0000013562800853   0.0093727684333837
  -0.2270246100    0.0072529600   -0.1341637300
   0.0272703000    0.0062587500   -0.0046611400
  -0.0098476500   -0.0151811600   -0.0045949800
  -0.0099422500    0.0278239400   -0.0048195400
  -0.0117366500    0.0061529700    0.0021237900
  -0.0116995400    0.0061512600    0.0021640500
  -0.0117225300    0.0061287300    0.0021617000
  -0.0117145800    0.0061455300    0.0021591400
   0.0109981500   -0.0067334000   -0.0022962000
   0.0107671500   -0.0068362500   -0.0023803300
   0.0109701500   -0.0065815400   -0.0023335500
   0.0107802300   -0.0067130200   -0.0015238200
   0.0109889300   -0.0057864300   -0.0023961100
   0.0111767900   -0.0058595200   -0.0023234300
   0.0111397600   -0.0059968700   -0.0023618300
   0.0109695900   -0.0058872100   -0.0014567700
   0.0103510200   -0.0058367500    0.0122759000
   0.0379272400   -0.0065559900    0.0468727800
   0.0839734400    0.0206176100    0.0472973800
   0.0841365600   -0.0325724200    0.0463927400
   0.0109943800   -0.0057593000   -0.0003624600
   0.0109827800   -0.0057665900   -0.0003346900
   0.0109875900   -0.0057429100   -0.0003369200
   0.0109857700   -0.0057528800   -0.0003354500
  -0.0105882100    0.0064302800    0.0008534700
  -0.0099867700    0.0065449400    0.0008811000
  -0.0103887600    0.0059623500    0.0008651700
  -0.0101936200    0.0063143100    0.0000446800
  -0.0098750400    0.0052365800    0.0008779800
  -0.0103770500    0.0053566400    0.0008221900
  -0.0102350700    0.0057364600    0.0008368800
  -0.0100675200    0.0054489100    0.0000519900

1    
 -0.0034858585821386   0.0000013562800853  -0.0093727684333837
   0.2054314500    0.0070981800    0.1343132700
  -0.0487430800    0.0060696500    0.0048137100
  -0.0115694500    0.0275590100    0.0048773600
  -0.0116699400   -0.0153932300    0.0048459400
  -0.0097663200    0.0062949900   -0.0021002200
  -0.0097858800    0.0062922600   -0.0021381100
  -0.0097761000    0.0062974400   -0.0021372600
  -0.0097781500    0.0062868400   -0.0021377200
   0.0109492100   -0.0069031700    0.0022200400
   0.0111447600   -0.0068149000    0.0022948500
   0.0109714600   -0.0070399500    0.0022551400
   0.0111588000   -0.0069151500    0.0013515400
   0.0113257600   -0.0061295200    0.0022847200
   0.0111124800   -0.0060409600    0.0022097100
   0.0111432200   -0.0059049700    0.0022497500
   0.0113358000   -0.0060251400    0.0014263300
   0.0097274200   -0.0057164900   -0.0121727300
  -0.0179082700   -0.0062455900   -0.0467607900
  -0.0642811400   -0.0324787400   -0.0463221800
  -0.0637120400    0.0206700900   -0.0471437300
   0.0090294100   -0.0058337200    0.0003462000
   0.0090313500   -0.0058353800    0.0003246100
   0.0090307500   -0.0058360400    0.0003241300
   0.0090305600   -0.0058350000    0.0003240100
  -0.0102629900    0.0064195800   -0.0008873500
  -0.0107781100    0.0063001200   -0.0009189500
  -0.0104160300    0.0067961700   -0.0009056300
  -0.0105973400    0.0065098600   -0.0001042800
  -0.0106469300    0.0058178400   -0.0009276600
  -0.0100605800    0.0056858000   -0.0008577900
  -0.0102393200    0.0052556200   -0.0008747500
  -0.0104307700    0.0055945000   -0.0000721500

17   
  0.0034858585821386  -0.0000013562800853   0.0093727684333837
  -0.0108662100    0.0064901200    0.0105232200
   0.0166962700    0.0070259900    0.0451223400
   0.0630908700    0.0332550100    0.0446795000
   0.0625347100   -0.0199188300    0.0455053000
  -0.0117382100    0.0065814300   -0.0020335500
  -0.0117358400    0.0065828100   -0.0020125700
  -0.0117384800    0.0065807300   -0.0020140700
  -0.0117370800    0.0065829100   -0.0020091400
   0.0107176200   -0.0067167100    0.0024688900
   0.0108593200   -0.0066138300    0.0026572100
   0.0107026300   -0.0067533900    0.0025577300
   0.0108620200   -0.0066903800    0.0017487600
   0.0106194500   -0.0057520100    0.0026604200
   0.0104943900   -0.0056021100    0.0024402400
   0.0104319200   -0.0055975600    0.0025404100
   0.0106337400   -0.0056551800    0.0017471100
  -0.2058090900   -0.0069936800   -0.1355615300
   0.0482093300   -0.0059774000   -0.0071760500
   0.0116877200   -0.0270880500   -0.0072363400
   0.0117868900    0.0151247900   -0.0072222000
   0.0109315800   -0.0061299000    0.0003443500
   0.0109218300   -0.0061294300    0.0001997000
   0.0109254900   -0.0061280700    0.0001996900
   0.0109250600   -0.0061318800    0.0002003000
  -0.0104002900    0.0063530300    0.0000020300
  -0.0100382800    0.0063422300    0.0001113700
  -0.0102070400    0.0060392000    0.0000434600
  -0.0102435000    0.0062349900   -0.0003036100
  -0.0094381000    0.0050711700    0.0001294700
  -0.0098031800    0.0050557900   -0.0000314300
  -0.0096031500    0.0053790200    0.0000337100
  -0.0096724000    0.0051791900   -0.0003147500

17   
 -0.0034858585821386   0.0000013562800853  -0.0093727684333837
  -0.0114879300    0.0065223100   -0.0104601600
  -0.0390755300    0.0072454400   -0.0450517500
  -0.0850963100   -0.0199222600   -0.0454825800
  -0.0852651900    0.0332406500   -0.0445688600
  -0.0112927600    0.0064523100    0.0021738600
  -0.0112951500    0.0064504100    0.0021527400
  -0.0112929500    0.0064520900    0.0021513000
  -0.0112932900    0.0064511700    0.0021529100
   0.0108410400   -0.0066348200   -0.0025613700
   0.0107051000   -0.0067312500   -0.0027474700
   0.0108535700   -0.0065956900   -0.0026471400
   0.0106946200   -0.0066574400   -0.0018538400
   0.0104767500   -0.0054915000   -0.0027768500
   0.0106050300   -0.0056495200   -0.0025644700
   0.0106728800   -0.0056586400   -0.0026633300
   0.0104745400   -0.0055984000   -0.0018522800
   0.2266926100   -0.0071041100    0.1354348800
  -0.0272863900   -0.0060936600    0.0070357000
   0.0091183800    0.0149335600    0.0069747000
   0.0092141100   -0.0272549000    0.0072060400
   0.0106208600   -0.0060587800   -0.0003985600
   0.0106296900   -0.0060590200   -0.0002541400
   0.0106260900   -0.0060618900   -0.0002536500
   0.0106277900   -0.0060578800   -0.0002542300
  -0.0100503700    0.0061686800    0.0001036800
  -0.0104087900    0.0061850900   -0.0000072900
  -0.0102457800    0.0064865000    0.0000575500
  -0.0102106000    0.0062909800    0.0003994500
  -0.0098346100    0.0052953300   -0.0000372400
  -0.0094675700    0.0052917400    0.0001221300
  -0.0096534800    0.0049814500    0.0000552600
  -0.0095964100    0.0051820600    0.0004150200
