  32  32   0   0
  0.7090409E+01  0.4934311E-09  0.4934311E-09  0.1076119E-08  0.5000000E-15
  1.000000000000000E-004
  CAR 
 graphite                                
     18.64023814    -15.28174230  301      6.77261015      1.00000000
    -15.282  0.0000E+00  0.0000E+00
    -15.169  0.0000E+00  0.0000E+00
    -15.056  0.0000E+00  0.0000E+00
    -14.943  0.0000E+00  0.0000E+00
    -14.829  0.0000E+00  0.0000E+00
    -14.716  0.0000E+00  0.0000E+00
    -14.603  0.0000E+00  0.0000E+00
    -14.490  0.0000E+00  0.0000E+00
    -14.377  0.0000E+00  0.0000E+00
    -14.264  0.0000E+00  0.0000E+00
    -14.151  0.0000E+00  0.0000E+00
    -14.038  0.0000E+00  0.0000E+00
    -13.925  0.0000E+00  0.0000E+00
    -13.812  0.0000E+00  0.0000E+00
    -13.699  0.0000E+00  0.0000E+00
    -13.586  0.0000E+00  0.0000E+00
    -13.473  0.0000E+00  0.0000E+00
    -13.359  0.0000E+00  0.0000E+00
    -13.246  0.1994E+00  0.2348E-02
    -13.133  0.1001E+01  0.8469E-01
    -13.020  0.1491E+01  0.2285E+00
    -12.907  0.1792E+01  0.4131E+00
    -12.794  0.2118E+01  0.6333E+00
    -12.681  0.2392E+01  0.8896E+00
    -12.568  0.2637E+01  0.1174E+01
    -12.455  0.2921E+01  0.1488E+01
    -12.342  0.3228E+01  0.1836E+01
    -12.229  0.3488E+01  0.2215E+01
    -12.116  0.3820E+01  0.2626E+01
    -12.003  0.4450E+01  0.3094E+01
    -11.890  0.5270E+01  0.3649E+01
    -11.776  0.5795E+01  0.4279E+01
    -11.663  0.5152E+01  0.4920E+01
    -11.550  0.4018E+01  0.5431E+01
    -11.437  0.4864E+01  0.5911E+01
    -11.324  0.6015E+01  0.6540E+01
    -11.211  0.4758E+01  0.7192E+01
    -11.098  0.5011E+01  0.7739E+01
    -10.985  0.2789E+01  0.8135E+01
    -10.872  0.5724E+01  0.8609E+01
    -10.759  0.4606E+01  0.9175E+01
    -10.646  0.3470E+01  0.9667E+01
    -10.533  0.5939E+01  0.1017E+02
    -10.420  0.6543E+01  0.1091E+02
    -10.307  0.4725E+01  0.1152E+02
    -10.193  0.4716E+01  0.1208E+02
    -10.080  0.4927E+01  0.1261E+02
     -9.967  0.4961E+01  0.1322E+02
     -9.854  0.4948E+01  0.1378E+02
     -9.741  0.5061E+01  0.1434E+02
     -9.628  0.5016E+01  0.1491E+02
     -9.515  0.5302E+01  0.1549E+02
     -9.402  0.5351E+01  0.1610E+02
     -9.289  0.5391E+01  0.1671E+02
     -9.176  0.5532E+01  0.1733E+02
     -9.063  0.5548E+01  0.1795E+02
     -8.950  0.5848E+01  0.1859E+02
     -8.837  0.6093E+01  0.1926E+02
     -8.723  0.6290E+01  0.1995E+02
     -8.610  0.6557E+01  0.2068E+02
     -8.497  0.5435E+01  0.2136E+02
     -8.384  0.4421E+01  0.2191E+02
     -8.271  0.3983E+01  0.2238E+02
     -8.158  0.3788E+01  0.2282E+02
     -8.045  0.4249E+01  0.2326E+02
     -7.932  0.5254E+01  0.2380E+02
     -7.819  0.5698E+01  0.2443E+02
     -7.706  0.6239E+01  0.2510E+02
     -7.593  0.7852E+01  0.2590E+02
     -7.480  0.7278E+01  0.2675E+02
     -7.367  0.7010E+01  0.2757E+02
     -7.254  0.8708E+01  0.2845E+02
     -7.140  0.4690E+01  0.2917E+02
     -7.027  0.3836E+01  0.2964E+02
     -6.914  0.3969E+01  0.3007E+02
     -6.801  0.3380E+01  0.3049E+02
     -6.688  0.2738E+01  0.3084E+02
     -6.575  0.2136E+01  0.3111E+02
     -6.462  0.1810E+01  0.3133E+02
     -6.349  0.2403E+01  0.3154E+02
     -6.236  0.5628E+01  0.3198E+02
     -6.123  0.4209E+01  0.3244E+02
     -6.010  0.4354E+01  0.3293E+02
     -5.897  0.4999E+01  0.3345E+02
     -5.784  0.5036E+01  0.3403E+02
     -5.671  0.5148E+01  0.3460E+02
     -5.557  0.6696E+01  0.3526E+02
     -5.444  0.8333E+01  0.3610E+02
     -5.331  0.7617E+01  0.3698E+02
     -5.218  0.6958E+01  0.3780E+02
     -5.105  0.7037E+01  0.3860E+02
     -4.992  0.6576E+01  0.3938E+02
     -4.879  0.5609E+01  0.4004E+02
     -4.766  0.5413E+01  0.4066E+02
     -4.653  0.5229E+01  0.4126E+02
     -4.540  0.5101E+01  0.4185E+02
     -4.427  0.5029E+01  0.4242E+02
     -4.314  0.4882E+01  0.4298E+02
     -4.201  0.4790E+01  0.4353E+02
     -4.087  0.4747E+01  0.4406E+02
     -3.974  0.4150E+01  0.4457E+02
     -3.861  0.3715E+01  0.4501E+02
     -3.748  0.3694E+01  0.4542E+02
     -3.635  0.4113E+01  0.4586E+02
     -3.522  0.5426E+01  0.4639E+02
     -3.409  0.6818E+01  0.4707E+02
     -3.296  0.8003E+01  0.4793E+02
     -3.183  0.7832E+01  0.4884E+02
     -3.070  0.7340E+01  0.4969E+02
     -2.957  0.7471E+01  0.5051E+02
     -2.844  0.3985E+01  0.5125E+02
     -2.731  0.2791E+01  0.5159E+02
     -2.618  0.3623E+01  0.5194E+02
     -2.504  0.5760E+01  0.5246E+02
     -2.391  0.7658E+01  0.5324E+02
     -2.278  0.9148E+01  0.5419E+02
     -2.165  0.8604E+01  0.5522E+02
     -2.052  0.7105E+01  0.5610E+02
     -1.939  0.5950E+01  0.5681E+02
     -1.826  0.6516E+01  0.5750E+02
     -1.713  0.7798E+01  0.5830E+02
     -1.600  0.9082E+01  0.5929E+02
     -1.487  0.9641E+01  0.6033E+02
     -1.374  0.9260E+01  0.6142E+02
     -1.261  0.8080E+01  0.6238E+02
     -1.148  0.8713E+01  0.6330E+02
     -1.035  0.8468E+01  0.6435E+02
     -0.921  0.8514E+01  0.6536E+02
     -0.808  0.7799E+01  0.6629E+02
     -0.695  0.8056E+01  0.6716E+02
     -0.582  0.9285E+01  0.6815E+02
     -0.469  0.9628E+01  0.6923E+02
     -0.356  0.9911E+01  0.7034E+02
     -0.243  0.1113E+02  0.7150E+02
     -0.130  0.1333E+02  0.7289E+02
     -0.017  0.1272E+02  0.7436E+02
      0.096  0.1336E+02  0.7584E+02
      0.209  0.1187E+02  0.7728E+02
      0.322  0.1219E+02  0.7869E+02
      0.435  0.1155E+02  0.8004E+02
      0.549  0.1567E+02  0.8159E+02
      0.662  0.1561E+02  0.8340E+02
      0.775  0.1447E+02  0.8512E+02
      0.888  0.1289E+02  0.8664E+02
      1.001  0.1130E+02  0.8803E+02
      1.114  0.9581E+01  0.8920E+02
      1.227  0.9633E+01  0.9028E+02
      1.340  0.1017E+02  0.9139E+02
      1.453  0.1208E+02  0.9263E+02
      1.566  0.1027E+02  0.9394E+02
      1.679  0.1053E+02  0.9518E+02
      1.792  0.9166E+01  0.9625E+02
      1.905  0.9534E+01  0.9731E+02
      2.018  0.9782E+01  0.9840E+02
      2.132  0.9600E+01  0.9948E+02
      2.245  0.9816E+01  0.1006E+03
      2.358  0.9852E+01  0.1017E+03
      2.471  0.1024E+02  0.1028E+03
      2.584  0.1051E+02  0.1040E+03
      2.697  0.1036E+02  0.1052E+03
      2.810  0.9858E+01  0.1064E+03
      2.923  0.9113E+01  0.1074E+03
      3.036  0.8880E+01  0.1085E+03
      3.149  0.8025E+01  0.1094E+03
      3.262  0.8088E+01  0.1103E+03
      3.375  0.8853E+01  0.1113E+03
      3.488  0.1127E+02  0.1124E+03
      3.601  0.1013E+02  0.1137E+03
      3.715  0.8625E+01  0.1147E+03
      3.828  0.7308E+01  0.1156E+03
      3.941  0.5818E+01  0.1163E+03
      4.054  0.5375E+01  0.1169E+03
      4.167  0.5578E+01  0.1176E+03
      4.280  0.4276E+01  0.1182E+03
      4.393  0.3748E+01  0.1186E+03
      4.506  0.4019E+01  0.1190E+03
      4.619  0.4745E+01  0.1195E+03
      4.732  0.5857E+01  0.1201E+03
      4.845  0.6743E+01  0.1208E+03
      4.958  0.9975E+01  0.1218E+03
      5.071  0.6611E+01  0.1227E+03
      5.185  0.6137E+01  0.1234E+03
      5.298  0.4809E+01  0.1241E+03
      5.411  0.5798E+01  0.1246E+03
      5.524  0.3504E+01  0.1251E+03
      5.637  0.3749E+01  0.1255E+03
      5.750  0.3605E+01  0.1260E+03
      5.863  0.3223E+01  0.1263E+03
      5.976  0.2860E+01  0.1267E+03
      6.089  0.2421E+01  0.1270E+03
      6.202  0.2021E+01  0.1272E+03
      6.315  0.1872E+01  0.1275E+03
      6.428  0.2485E+01  0.1277E+03
      6.541  0.1209E+01  0.1279E+03
      6.654  0.2379E+00  0.1280E+03
      6.768  0.5419E-02  0.1280E+03
      6.881  0.1070E+00  0.1280E+03
      6.994  0.3224E+00  0.1280E+03
      7.107  0.5448E+00  0.1281E+03
      7.220  0.7727E+00  0.1282E+03
      7.333  0.9833E+00  0.1283E+03
      7.446  0.1073E+01  0.1284E+03
      7.559  0.1187E+01  0.1285E+03
      7.672  0.1338E+01  0.1286E+03
      7.785  0.1511E+01  0.1288E+03
      7.898  0.1659E+01  0.1290E+03
      8.011  0.1824E+01  0.1292E+03
      8.124  0.2652E+01  0.1294E+03
      8.237  0.3140E+01  0.1298E+03
      8.351  0.4127E+01  0.1302E+03
      8.464  0.7150E+01  0.1308E+03
      8.577  0.9606E+01  0.1317E+03
      8.690  0.6695E+01  0.1328E+03
      8.803  0.6893E+01  0.1335E+03
      8.916  0.5909E+01  0.1343E+03
      9.029  0.6605E+01  0.1349E+03
      9.142  0.6590E+01  0.1357E+03
      9.255  0.5562E+01  0.1364E+03
      9.368  0.5161E+01  0.1370E+03
      9.481  0.4697E+01  0.1376E+03
      9.594  0.4407E+01  0.1381E+03
      9.707  0.4118E+01  0.1386E+03
      9.821  0.4296E+01  0.1390E+03
      9.934  0.4894E+01  0.1396E+03
     10.047  0.5170E+01  0.1401E+03
     10.160  0.4265E+01  0.1407E+03
     10.273  0.3802E+01  0.1411E+03
     10.386  0.3823E+01  0.1415E+03
     10.499  0.4268E+01  0.1420E+03
     10.612  0.4572E+01  0.1425E+03
     10.725  0.4197E+01  0.1430E+03
     10.838  0.3936E+01  0.1435E+03
     10.951  0.3746E+01  0.1439E+03
     11.064  0.3564E+01  0.1443E+03
     11.177  0.3468E+01  0.1447E+03
     11.290  0.3413E+01  0.1451E+03
     11.404  0.3376E+01  0.1455E+03
     11.517  0.3252E+01  0.1459E+03
     11.630  0.3198E+01  0.1462E+03
     11.743  0.3132E+01  0.1466E+03
     11.856  0.3071E+01  0.1469E+03
     11.969  0.3056E+01  0.1473E+03
     12.082  0.3010E+01  0.1476E+03
     12.195  0.3096E+01  0.1480E+03
     12.308  0.2998E+01  0.1483E+03
     12.421  0.2843E+01  0.1486E+03
     12.534  0.3341E+01  0.1490E+03
     12.647  0.3202E+01  0.1494E+03
     12.760  0.3134E+01  0.1498E+03
     12.874  0.2665E+01  0.1501E+03
     12.987  0.2121E+01  0.1504E+03
     13.100  0.1712E+01  0.1506E+03
     13.213  0.2131E+01  0.1508E+03
     13.326  0.2433E+01  0.1510E+03
     13.439  0.2836E+01  0.1513E+03
     13.552  0.3778E+01  0.1518E+03
     13.665  0.3193E+01  0.1521E+03
     13.778  0.3904E+01  0.1525E+03
     13.891  0.4972E+01  0.1530E+03
     14.004  0.6103E+01  0.1536E+03
     14.117  0.6748E+01  0.1544E+03
     14.230  0.6713E+01  0.1551E+03
     14.343  0.6004E+01  0.1558E+03
     14.457  0.7661E+01  0.1566E+03
     14.570  0.9787E+01  0.1576E+03
     14.683  0.9237E+01  0.1586E+03
     14.796  0.1111E+02  0.1598E+03
     14.909  0.1204E+02  0.1611E+03
     15.022  0.1114E+02  0.1624E+03
     15.135  0.1230E+02  0.1638E+03
     15.248  0.1134E+02  0.1650E+03
     15.361  0.6582E+01  0.1660E+03
     15.474  0.3796E+01  0.1666E+03
     15.587  0.2707E+01  0.1669E+03
     15.700  0.2158E+01  0.1672E+03
     15.813  0.1739E+01  0.1674E+03
     15.926  0.1322E+01  0.1676E+03
     16.040  0.1089E+01  0.1677E+03
     16.153  0.8132E+00  0.1679E+03
     16.266  0.5368E+00  0.1679E+03
     16.379  0.2921E+00  0.1680E+03
     16.492  0.8470E-01  0.1680E+03
     16.605  0.3203E-02  0.1680E+03
     16.718  0.0000E+00  0.1680E+03
     16.831  0.0000E+00  0.1680E+03
     16.944  0.0000E+00  0.1680E+03
     17.057  0.0000E+00  0.1680E+03
     17.170  0.0000E+00  0.1680E+03
     17.283  0.0000E+00  0.1680E+03
     17.396  0.0000E+00  0.1680E+03
     17.510  0.0000E+00  0.1680E+03
     17.623  0.0000E+00  0.1680E+03
     17.736  0.0000E+00  0.1680E+03
     17.849  0.0000E+00  0.1680E+03
     17.962  0.0000E+00  0.1680E+03
     18.075  0.0000E+00  0.1680E+03
     18.188  0.0000E+00  0.1680E+03
     18.301  0.0000E+00  0.1680E+03
     18.414  0.0000E+00  0.1680E+03
     18.527  0.0000E+00  0.1680E+03
     18.640  0.0000E+00  0.1680E+03
