   32   32    1    1
  0.7090409E+01  0.4934311E-09  0.4934311E-09  0.1076119E-08  0.5000000E-15
  1.000000000000000E-004
  CAR 
 graphite                                
    128    163     84
 
  0.0000000E+00  0.0000000E+00  0.0000000E+00  0.3086420E-02
    1      -13.281772
    2      -12.692418
    3      -12.690601
    4      -11.936600
    5       -7.768937
    6       -7.767935
    7       -7.766713
    8       -7.413668
    9       -7.409752
   10       -7.408908
   11       -7.408507
   12       -7.407703
   13       -7.404020
   14       -7.309332
   15       -7.306798
   16       -7.303304
   17       -6.370305
   18       -6.365820
   19       -6.364890
   20       -6.364191
   21       -6.363501
   22       -6.359749
   23       -6.304682
   24       -6.301813
   25       -6.298642
   26       -6.001770
   27       -5.998637
   28       -5.996899
   29       -2.930132
   30       -0.610582
   31       -0.606622
   32        0.334839
   33        0.337597
   34        0.342063
   35        0.513392
   36        0.517974
   37        0.518058
   38        0.518703
   39        0.521130
   40        0.525322
   41        0.704541
   42        0.707287
   43        0.711955
   44        2.313614
   45        3.086944
   46        3.088167
   47        3.089376
   48        3.824605
   49        3.836784
   50        3.892911
   51        3.900406
   52        3.905179
   53        3.912622
   54        3.968661
   55        3.980994
   56        4.530957
   57        4.538415
   58        4.538698
   59        4.539329
   60        4.539898
   61        4.546936
   62        4.751894
   63        4.753651
   64        4.755825
   65        8.483125
   66        8.491558
   67        8.492271
   68        8.493384
   69        8.494090
   70        8.501874
   71        9.120677
   72        9.124271
   73        9.127467
   74        9.954531
   75        9.958431
   76        9.960689
   77       13.432760
   78       13.436940
   79       13.441668
   80       14.196766
   81       14.202382
   82       14.203459
   83       14.206452
   84       14.211415
 
  0.1111111E+00 -0.6938894E-17  0.0000000E+00  0.6172840E-02
    1      -13.206535
    2      -12.618856
    3      -12.617043
    4      -11.865907
    5       -8.638548
    6       -8.170482
    7       -8.168994
    8       -8.062270
    9       -8.060139
   10       -7.635467
   11       -7.633342
   12       -7.632565
   13       -7.630242
   14       -7.625026
   15       -7.232288
   16       -7.228384
   17       -6.272777
   18       -6.268562
   19       -6.024425
   20       -6.021015
   21       -6.019564
   22       -6.018501
   23       -5.859129
   24       -5.576431
   25       -5.573246
   26       -5.494580
   27       -5.491760
   28       -5.030392
   29       -2.839425
   30       -0.525589
   31       -0.521631
   32        0.097220
   33        0.102291
   34        0.290139
   35        0.291102
   36        0.294092
   37        0.298121
   38        0.408624
   39        0.495982
   40        0.501299
   41        0.587374
   42        0.590390
   43        0.776967
   44        2.390860
   45        2.415131
   46        2.943582
   47        2.945260
   48        3.513480
   49        3.603964
   50        3.609905
   51        3.654146
   52        3.701161
   53        3.738778
   54        3.744706
   55        3.829758
   56        4.119960
   57        4.125072
   58        4.485671
   59        4.488580
   60        4.489375
   61        4.496113
   62        4.967650
   63        4.970275
   64        5.171819
   65        8.610952
   66        8.618842
   67        8.619791
   68        8.623456
   69        8.878137
   70        8.992725
   71        8.997447
   72        9.017436
   73        9.024191
   74       10.102913
   75       10.106720
   76       10.675660
   77       13.483893
   78       13.782184
   79       13.788969
   80       14.247518
   81       14.250146
   82       14.528574
   83       14.536485
   84       14.543279
 
  0.2222222E+00 -0.2775558E-16  0.0000000E+00  0.6172840E-02
    1      -12.981141
    2      -12.398485
    3      -12.396685
    4      -11.654201
    5       -9.680171
    6       -9.176194
    7       -9.174618
    8       -8.561927
    9       -8.435687
   10       -8.433593
   11       -7.974021
   12       -7.972157
   13       -7.971553
   14       -7.968974
   15       -7.438343
   16       -7.435574
   17       -5.685900
   18       -5.682306
   19       -5.330559
   20       -5.327375
   21       -5.325869
   22       -5.324737
   23       -4.879863
   24       -4.876535
   25       -4.532876
   26       -4.167209
   27       -4.164619
   28       -3.735494
   29       -2.568003
   30       -0.538108
   31       -0.533439
   32       -0.317443
   33       -0.316678
   34       -0.313914
   35       -0.310018
   36       -0.271434
   37       -0.267502
   38       -0.074022
   39       -0.069058
   40        0.625712
   41        0.801759
   42        0.804982
   43        0.988674
   44        1.311621
   45        2.621035
   46        2.642923
   47        2.670121
   48        2.672079
   49        2.780761
   50        2.786300
   51        2.926319
   52        3.210136
   53        3.252734
   54        3.257182
   55        3.322527
   56        3.328156
   57        3.442675
   58        4.368532
   59        4.371606
   60        4.372355
   61        4.378943
   62        5.273179
   63        5.425647
   64        5.428603
   65        8.787864
   66        8.792854
   67        8.934007
   68        8.941406
   69        8.942511
   70        8.946114
   71        9.332703
   72       10.203119
   73       10.208546
   74       10.353779
   75       10.357383
   76       11.851449
   77       13.627738
   78       14.386473
   79       14.389128
   80       14.515720
   81       14.737522
   82       14.744098
   83       15.084047
   84       15.175394
 
  0.3333333E+00 -0.5551115E-16  0.0000000E+00  0.6172840E-02
    1      -12.606827
    2      -12.032472
    3      -12.030695
    4      -11.302445
    5      -10.615336
    6      -10.087099
    7      -10.085448
    8       -9.433459
    9       -8.703658
   10       -8.701654
   11       -8.228713
   12       -8.226805
   13       -8.226277
   14       -8.223915
   15       -7.660243
   16       -7.657850
   17       -4.869696
   18       -4.866153
   19       -4.522516
   20       -4.519042
   21       -4.517534
   22       -4.516522
   23       -4.114598
   24       -4.111232
   25       -3.067638
   26       -2.735848
   27       -2.733100
   28       -2.353463
   29       -2.117900
   30       -1.372637
   31       -1.368699
   32       -1.135889
   33       -1.135341
   34       -1.133089
   35       -1.129125
   36       -0.856083
   37       -0.851655
   38        0.147113
   39        0.150994
   40        0.243229
   41        0.978413
   42        1.149608
   43        1.153121
   44        1.331505
   45        1.407263
   46        1.600667
   47        1.605301
   48        1.802047
   49        2.321022
   50        2.325236
   51        2.438046
   52        2.440189
   53        2.627181
   54        2.762985
   55        2.767825
   56        2.907501
   57        2.997733
   58        4.248557
   59        4.251752
   60        4.252463
   61        4.258907
   62        4.778286
   63        5.876695
   64        5.880064
   65        8.656104
   66        8.660592
   67        9.308796
   68        9.316194
   69        9.317362
   70        9.320847
   71       10.524210
   72       10.528001
   73       10.623682
   74       11.626458
   75       11.631652
   76       13.128272
   77       13.856727
   78       14.615509
   79       14.618524
   80       14.696727
   81       14.941000
   82       14.946112
   83       14.986855
   84       15.247857
 
  0.4444444E+00 -0.5551115E-16  0.0000000E+00  0.6172840E-02
    1      -12.085395
    2      -11.522799
    3      -11.521051
    4      -11.419756
    5      -10.872603
    6      -10.870905
    7      -10.812495
    8      -10.187862
    9       -8.841222
   10       -8.839268
   11       -8.360475
   12       -8.358552
   13       -8.358059
   14       -8.355779
   15       -7.781382
   16       -7.779115
   17       -4.064126
   18       -4.060963
   19       -3.787328
   20       -3.782771
   21       -3.782086
   22       -3.781295
   23       -3.525810
   24       -3.523150
   25       -2.046638
   26       -2.044656
   27       -1.901553
   28       -1.900428
   29       -1.899678
   30       -1.895494
   31       -1.638144
   32       -1.634942
   33       -1.546645
   34       -1.493261
   35       -1.259073
   36       -1.255798
   37       -0.930795
   38       -0.701764
   39       -0.028780
   40        0.200035
   41        0.203760
   42        0.479648
   43        0.745529
   44        0.749871
   45        1.450923
   46        1.465597
   47        1.469739
   48        1.614448
   49        1.618412
   50        1.788767
   51        2.015882
   52        2.168322
   53        2.172685
   54        2.311704
   55        2.313938
   56        2.331166
   57        3.507807
   58        4.123794
   59        4.176392
   60        4.179593
   61        4.180278
   62        4.186711
   63        6.148750
   64        6.152339
   65        8.615392
   66        8.618668
   67        9.562616
   68        9.569944
   69        9.571143
   70        9.574521
   71       10.582422
   72       10.586542
   73       12.239794
   74       13.070927
   75       13.076409
   76       13.900061
   77       14.151051
   78       14.288867
   79       14.294777
   80       14.423928
   81       14.471551
   82       14.943338
   83       14.946948
   84       15.319450
 
  0.1694066E-20  0.1111111E+00  0.0000000E+00  0.6172840E-02
    1      -13.206537
    2      -12.618858
    3      -12.617045
    4      -11.865909
    5       -8.638513
    6       -8.170381
    7       -8.168916
    8       -8.062779
    9       -8.059798
   10       -7.636330
   11       -7.633187
   12       -7.632579
   13       -7.630683
   14       -7.624308
   15       -7.231431
   16       -7.229998
   17       -6.272418
   18       -6.267143
   19       -6.024912
   20       -6.020958
   21       -6.019428
   22       -6.015399
   23       -5.860442
   24       -5.576867
   25       -5.571588
   26       -5.494904
   27       -5.493644
   28       -5.031492
   29       -2.839421
   30       -0.525582
   31       -0.521625
   32        0.095963
   33        0.102025
   34        0.287917
   35        0.291070
   36        0.294095
   37        0.297252
   38        0.410195
   39        0.494739
   40        0.500948
   41        0.590140
   42        0.590802
   43        0.778549
   44        2.390928
   45        2.415706
   46        2.942636
   47        2.945344
   48        3.510364
   49        3.602713
   50        3.604024
   51        3.657735
   52        3.697453
   53        3.744656
   54        3.746105
   55        3.833036
   56        4.121368
   57        4.125925
   58        4.483609
   59        4.488933
   60        4.489473
   61        4.494809
   62        4.967130
   63        4.969376
   64        5.173539
   65        8.611863
   66        8.618865
   67        8.620251
   68        8.626990
   69        8.875552
   70        8.992959
   71        8.999499
   72        9.016292
   73        9.020796
   74       10.103048
   75       10.109004
   76       10.673920
   77       13.484491
   78       13.782230
   79       13.788238
   80       14.248293
   81       14.252389
   82       14.516256
   83       14.537277
   84       14.540485
 
  0.1111111E+00  0.1111111E+00  0.0000000E+00  0.6172840E-02
    1      -13.056206
    2      -12.471847
    3      -12.470043
    4      -11.724713
    5       -9.119458
    6       -9.115875
    7       -8.633160
    8       -8.629373
    9       -8.629355
   10       -8.625437
   11       -8.046288
   12       -8.042430
   13       -7.573540
   14       -7.220264
   15       -7.218170
   16       -7.115852
   17       -6.185336
   18       -6.181372
   19       -6.120145
   20       -5.831081
   21       -5.184642
   22       -5.180817
   23       -4.812191
   24       -4.809278
   25       -4.809223
   26       -4.804025
   27       -4.363802
   28       -4.359636
   29       -2.658364
   30       -0.611311
   31       -0.389264
   32       -0.386329
   33       -0.355906
   34       -0.351959
   35       -0.142605
   36        0.242796
   37        0.245988
   38        0.431768
   39        0.436338
   40        0.436423
   41        0.438256
   42        0.636854
   43        0.640082
   44        1.933371
   45        1.935982
   46        2.544680
   47        2.970432
   48        3.070829
   49        3.076852
   50        3.133376
   51        3.348883
   52        3.381749
   53        3.423378
   54        3.429342
   55        3.517857
   56        3.768949
   57        3.774589
   58        3.775010
   59        3.779077
   60        4.798631
   61        4.804460
   62        4.996624
   63        5.383055
   64        5.386544
   65        8.411673
   66        8.418543
   67        8.948866
   68        8.952933
   69        9.168364
   70        9.539785
   71        9.544428
   72        9.544956
   73        9.546138
   74        9.552040
   75       11.154613
   76       11.157464
   77       13.877792
   78       13.882458
   79       14.459785
   80       14.623058
   81       14.629261
   82       14.629941
   83       14.633740
   84       14.693965
 
  0.2222222E+00  0.1111111E+00  0.0000000E+00  0.6172840E-02
    1      -12.756302
    2      -12.178701
    3      -12.176915
    4      -11.442931
    5      -10.109561
    6       -9.594124
    7       -9.592521
    8       -9.468826
    9       -8.970791
   10       -8.969132
   11       -8.960361
   12       -8.364696
   13       -7.664932
   14       -7.248640
   15       -7.247016
   16       -6.857946
   17       -5.914555
   18       -5.679089
   19       -5.675860
   20       -5.261142
   21       -4.382475
   22       -4.028414
   23       -4.027222
   24       -3.776039
   25       -3.616335
   26       -3.428882
   27       -3.426267
   28       -3.025932
   29       -2.297539
   30       -1.546846
   31       -1.297926
   32       -1.295004
   33       -1.008094
   34       -0.305413
   35       -0.092488
   36       -0.091573
   37       -0.019272
   38       -0.015363
   39        0.144430
   40        0.534390
   41        0.719080
   42        0.722212
   43        0.829668
   44        0.918343
   45        1.567884
   46        1.976365
   47        2.121617
   48        2.127804
   49        2.250795
   50        2.792657
   51        2.842346
   52        2.846851
   53        2.849638
   54        2.880385
   55        2.886676
   56        3.004281
   57        3.453663
   58        3.493412
   59        3.497792
   60        4.997724
   61        5.003370
   62        5.125073
   63        5.456952
   64        5.510964
   65        8.413643
   66        8.420284
   67        8.747525
   68        9.231550
   69        9.546128
   70        9.888571
   71       10.094772
   72       10.099246
   73       10.871894
   74       10.876955
   75       11.477136
   76       12.377853
   77       14.067606
   78       14.717957
   79       14.809995
   80       14.812853
   81       14.882785
   82       15.202142
   83       15.242364
   84       15.249341
 
  0.3333333E+00  0.1111111E+00  0.0000000E+00  0.6172840E-02
    1      -12.308454
    2      -11.740801
    3      -11.739042
    4      -11.022212
    5      -10.979822
    6      -10.442918
    7      -10.441246
    8       -9.775222
    9       -9.682252
   10       -9.177830
   11       -9.176251
   12       -8.561948
   13       -7.829974
   14       -7.385925
   15       -7.384467
   16       -6.876483
   17       -5.220717
   18       -4.905863
   19       -4.902796
   20       -4.535689
   21       -3.543496
   22       -3.235860
   23       -3.234307
   24       -2.902390
   25       -2.469544
   26       -2.288376
   27       -2.241926
   28       -2.238774
   29       -1.982603
   30       -1.979939
   31       -1.933404
   32       -1.760046
   33       -1.634412
   34       -0.999043
   35       -0.798024
   36       -0.796279
   37       -0.540417
   38       -0.181686
   39        0.468875
   40        0.472289
   41        0.674930
   42        0.894370
   43        0.899235
   44        0.958640
   45        1.091879
   46        1.133853
   47        1.137233
   48        1.324502
   49        1.341038
   50        1.940697
   51        1.944854
   52        2.126033
   53        2.260091
   54        2.265389
   55        2.415749
   56        3.292714
   57        3.315184
   58        3.319435
   59        3.408507
   60        4.507669
   61        5.087229
   62        5.092399
   63        5.556660
   64        6.167049
   65        8.065016
   66        8.522222
   67        8.528119
   68        9.587599
   69        9.706246
   70       10.532145
   71       10.536861
   72       11.376546
   73       11.598210
   74       12.315546
   75       12.320585
   76       13.646372
   77       14.329860
   78       14.579717
   79       14.775881
   80       14.782508
   81       14.883656
   82       15.074388
   83       15.077412
   84       15.235414
 
  0.4444444E+00  0.1111111E+00  0.0000000E+00  0.6172840E-02
    1      -11.716746
    2      -11.713370
    3      -11.163691
    4      -11.160093
    5      -11.159962
    6      -11.156323
    7      -10.466668
    8      -10.463085
    9       -9.753874
   10       -9.247602
   11       -9.246017
   12       -8.628458
   13       -7.890682
   14       -7.440770
   15       -7.439336
   16       -6.913297
   17       -4.661237
   18       -4.416594
   19       -4.413773
   20       -4.238106
   21       -2.993909
   22       -2.832027
   23       -2.786928
   24       -2.784314
   25       -2.779141
   26       -2.776148
   27       -2.624296
   28       -2.550803
   29       -1.299931
   30       -1.238538
   31       -1.234674
   32       -1.052947
   33       -1.050233
   34       -1.030879
   35       -0.782893
   36       -0.779375
   37       -0.527186
   38       -0.526653
   39       -0.526351
   40       -0.519413
   41       -0.240206
   42       -0.236221
   43        1.142464
   44        1.147828
   45        1.148398
   46        1.152069
   47        1.263680
   48        1.495620
   49        1.501694
   50        1.654180
   51        1.663785
   52        1.663845
   53        1.665714
   54        1.833563
   55        1.839131
   56        3.254143
   57        3.258438
   58        3.379099
   59        3.857905
   60        3.861346
   61        5.109329
   62        5.114087
   63        5.565676
   64        6.667251
   65        7.592130
   66        8.584584
   67        8.589736
   68        9.760277
   69        9.766187
   70       10.701958
   71       10.707026
   72       11.604049
   73       13.008545
   74       13.012855
   75       13.699558
   76       13.702057
   77       13.703806
   78       13.710490
   79       14.630521
   80       14.634428
   81       14.908816
   82       14.912494
   83       15.425459
   84       15.448377
 
 -0.4444444E+00  0.1111111E+00  0.0000000E+00  0.6172840E-02
    1      -12.308564
    2      -11.740911
    3      -11.739153
    4      -11.022325
    5      -10.979651
    6      -10.442748
    7      -10.441070
    8       -9.775015
    9       -9.682515
   10       -9.178056
   11       -9.176476
   12       -8.562158
   13       -7.829826
   14       -7.385814
   15       -7.384415
   16       -6.876548
   17       -5.217725
   18       -4.902396
   19       -4.901089
   20       -4.533598
   21       -3.546422
   22       -3.239345
   23       -3.236195
   24       -2.904653
   25       -2.472135
   26       -2.288418
   27       -2.244015
   28       -2.242686
   29       -1.982728
   30       -1.979668
   31       -1.936645
   32       -1.760084
   33       -1.634191
   34       -0.996175
   35       -0.795676
   36       -0.791874
   37       -0.536740
   38       -0.181638
   39        0.468828
   40        0.472221
   41        0.673989
   42        0.893863
   43        0.897098
   44        0.958343
   45        1.089725
   46        1.133540
   47        1.137321
   48        1.324475
   49        1.341093
   50        1.940700
   51        1.944893
   52        2.128234
   53        2.262441
   54        2.265879
   55        2.416738
   56        3.292617
   57        3.315365
   58        3.319850
   59        3.408115
   60        4.507544
   61        5.086689
   62        5.091309
   63        5.557394
   64        6.165978
   65        8.067808
   66        8.524910
   67        8.529593
   68        9.584808
   69        9.706914
   70       10.530285
   71       10.535653
   72       11.376790
   73       11.598022
   74       12.315705
   75       12.321053
   76       13.647241
   77       14.328886
   78       14.579155
   79       14.777662
   80       14.783397
   81       14.885591
   82       15.073180
   83       15.076719
   84       15.237131
 
 -0.3333333E+00  0.1111111E+00  0.0000000E+00  0.6172840E-02
    1      -12.756381
    2      -12.178780
    3      -12.176994
    4      -11.443011
    5      -10.109360
    6       -9.593906
    7       -9.592291
    8       -9.469311
    9       -8.970812
   10       -8.969251
   11       -8.960906
   12       -8.365100
   13       -7.664751
   14       -7.248461
   15       -7.247197
   16       -6.858151
   17       -5.911083
   18       -5.674878
   19       -5.673845
   20       -5.258332
   21       -4.385506
   22       -4.032042
   23       -4.029415
   24       -3.776197
   25       -3.619164
   26       -3.429087
   27       -3.426343
   28       -3.025985
   29       -2.297568
   30       -1.550539
   31       -1.300704
   32       -1.299818
   33       -1.011985
   34       -0.301303
   35       -0.089456
   36       -0.086084
   37       -0.019285
   38       -0.015377
   39        0.148818
   40        0.534288
   41        0.718907
   42        0.722336
   43        0.829716
   44        0.918373
   45        1.568025
   46        1.973989
   47        2.120157
   48        2.122931
   49        2.246368
   50        2.797318
   51        2.842299
   52        2.846920
   53        2.849670
   54        2.885472
   55        2.888158
   56        3.006744
   57        3.452786
   58        3.493746
   59        3.498426
   60        4.996706
   61        5.001434
   62        5.124976
   63        5.456489
   64        5.512259
   65        8.418367
   66        8.422969
   67        8.751036
   68        9.227175
   69        9.547622
   70        9.888679
   71       10.091474
   72       10.097067
   73       10.872005
   74       10.877386
   75       11.476015
   76       12.378596
   77       14.066993
   78       14.718723
   79       14.809411
   80       14.812389
   81       14.887764
   82       15.206846
   83       15.248189
   84       15.254286
 
 -0.2222222E+00  0.1111111E+00  0.0000000E+00  0.6172840E-02
    1      -13.056254
    2      -12.471895
    3      -12.470091
    4      -11.724762
    5       -9.118292
    6       -9.117428
    7       -8.630976
    8       -8.629604
    9       -8.629445
   10       -8.628082
   11       -8.044858
   12       -8.044223
   13       -7.573465
   14       -7.219828
   15       -7.218934
   16       -7.115302
   17       -6.180184
   18       -6.179587
   19       -6.117573
   20       -5.827891
   21       -5.186221
   22       -5.182322
   23       -4.813332
   24       -4.810866
   25       -4.809574
   26       -4.806929
   27       -4.365060
   28       -4.361328
   29       -2.658382
   30       -0.615479
   31       -0.392403
   32       -0.391652
   33       -0.355907
   34       -0.351960
   35       -0.146899
   36        0.243618
   37        0.249726
   38        0.433360
   39        0.436498
   40        0.439446
   41        0.442721
   42        0.637702
   43        0.643910
   44        1.934450
   45        1.935216
   46        2.544706
   47        2.964638
   48        3.067302
   49        3.067840
   50        3.128235
   51        3.347798
   52        3.387051
   53        3.432453
   54        3.433042
   55        3.523843
   56        3.770168
   57        3.774584
   58        3.774971
   59        3.779416
   60        4.797444
   61        4.802252
   62        4.996436
   63        5.383827
   64        5.387226
   65        8.417285
   66        8.421949
   67        8.944671
   68        8.952132
   69        9.171450
   70        9.537458
   71        9.543465
   72        9.544604
   73        9.546973
   74        9.551256
   75       11.152963
   76       11.157508
   77       13.879411
   78       13.885609
   79       14.570902
   80       14.628380
   81       14.631072
   82       14.635147
   83       14.639917
   84       14.690658
 
 -0.1111111E+00  0.1111111E+00  0.0000000E+00  0.6172840E-02
    1      -13.206552
    2      -12.618873
    3      -12.617061
    4      -11.865925
    5       -8.639249
    6       -8.171020
    7       -8.169536
    8       -8.061912
    9       -8.059839
   10       -7.636005
   11       -7.632383
   12       -7.632026
   13       -7.630675
   14       -7.625261
   15       -7.232615
   16       -7.228653
   17       -6.269710
   18       -6.266633
   19       -6.020690
   20       -6.019706
   21       -6.019205
   22       -6.015677
   23       -5.863400
   24       -5.574081
   25       -5.571892
   26       -5.498255
   27       -5.495786
   28       -5.034102
   29       -2.839427
   30       -0.525584
   31       -0.521627
   32        0.095327
   33        0.098178
   34        0.286687
   35        0.291032
   36        0.291130
   37        0.292523
   38        0.414785
   39        0.494139
   40        0.497041
   41        0.593472
   42        0.596741
   43        0.783266
   44        2.390880
   45        2.416263
   46        2.942727
   47        2.944425
   48        3.503713
   49        3.593966
   50        3.600510
   51        3.663992
   52        3.691284
   53        3.748194
   54        3.754887
   55        3.839845
   56        4.122183
   57        4.127400
   58        4.482238
   59        4.488898
   60        4.489969
   61        4.492636
   62        4.966442
   63        4.969450
   64        5.174755
   65        8.617198
   66        8.620483
   67        8.621235
   68        8.628383
   69        8.870911
   70        8.996008
   71        8.999101
   72        9.012188
   73        9.017395
   74       10.106552
   75       10.109352
   76       10.670901
   77       13.489645
   78       13.780330
   79       13.784706
   80       14.253171
   81       14.255388
   82       14.523055
   83       14.531492
   84       14.536235
 
  0.0000000E+00  0.2222222E+00  0.0000000E+00  0.6172840E-02
    1      -12.981148
    2      -12.398492
    3      -12.396693
    4      -11.654209
    5       -9.680227
    6       -9.176237
    7       -9.174662
    8       -8.561963
    9       -8.436293
   10       -8.432986
   11       -7.975091
   12       -7.972012
   13       -7.971505
   14       -7.968260
   15       -7.438600
   16       -7.435585
   17       -5.686158
   18       -5.680670
   19       -5.331374
   20       -5.327354
   21       -5.325703
   22       -5.321580
   23       -4.880274
   24       -4.874827
   25       -4.533960
   26       -4.167588
   27       -4.166394
   28       -3.736607
   29       -2.567985
   30       -0.539490
   31       -0.533683
   32       -0.319930
   33       -0.316748
   34       -0.313908
   35       -0.310642
   36       -0.271418
   37       -0.267477
   38       -0.075367
   39       -0.069306
   40        0.627350
   41        0.804695
   42        0.805320
   43        0.990315
   44        1.312008
   45        2.621062
   46        2.640314
   47        2.669057
   48        2.672344
   49        2.780424
   50        2.781021
   51        2.923267
   52        3.213236
   53        3.253471
   54        3.257753
   55        3.328015
   56        3.328603
   57        3.445530
   58        4.366482
   59        4.371930
   60        4.372458
   61        4.377890
   62        5.274685
   63        5.424880
   64        5.427752
   65        8.787637
   66        8.794948
   67        8.934895
   68        8.941547
   69        8.942883
   70        8.949690
   71        9.330199
   72       10.202033
   73       10.206407
   74       10.354389
   75       10.359699
   76       11.850041
   77       13.628441
   78       14.387447
   79       14.389486
   80       14.515833
   81       14.737065
   82       14.743535
   83       15.056031
   84       15.176880
 
  0.1111111E+00  0.2222222E+00  0.0000000E+00  0.6172840E-02
    1      -12.756307
    2      -12.178706
    3      -12.176920
    4      -11.442936
    5      -10.109631
    6       -9.594188
    7       -9.592583
    8       -9.468768
    9       -8.970727
   10       -8.969105
   11       -8.960420
   12       -8.364687
   13       -7.664906
   14       -7.248633
   15       -7.247000
   16       -6.857944
   17       -5.914544
   18       -5.678949
   19       -5.675859
   20       -5.261004
   21       -4.381275
   22       -4.027803
   23       -4.025409
   24       -3.777210
   25       -3.615051
   26       -3.429336
   27       -3.428202
   28       -3.027199
   29       -2.297525
   30       -1.546980
   31       -1.297929
   32       -1.295201
   33       -1.008171
   34       -0.307080
   35       -0.095074
   36       -0.092252
   37       -0.019255
   38       -0.015343
   39        0.142802
   40        0.536130
   41        0.721995
   42        0.722743
   43        0.829995
   44        0.920058
   45        1.567448
   46        1.974891
   47        2.121608
   48        2.125070
   49        2.249896