   32   32    1    1
  0.7090409E+01  0.4934311E-09  0.4934311E-09  0.1076119E-08  0.5000000E-15
  1.000000000000000E-004
  CAR 
 graphite                                
    128    163     84
 
  0.0000000E+00  0.0000000E+00  0.0000000E+00  0.3086420E-02
    1      -13.281742
    2      -12.692351
    3      -12.690619
    4      -11.936575
    5       -7.768834
    6       -7.767865
    7       -7.766626
    8       -7.413610
    9       -7.409731
   10       -7.408890
   11       -7.408437
   12       -7.407655
   13       -7.404018
   14       -7.309393
   15       -7.306853
   16       -7.303360
   17       -6.370225
   18       -6.365735
   19       -6.364864
   20       -6.364186
   21       -6.363521
   22       -6.359795
   23       -6.304580
   24       -6.301718
   25       -6.298528
   26       -6.001718
   27       -5.998701
   28       -5.996966
   29       -2.930094
   30       -0.610505
   31       -0.606639
   32        0.334892
   33        0.337636
   34        0.342077
   35        0.513422
   36        0.518025
   37        0.518106
   38        0.518726
   39        0.521152
   40        0.525318
   41        0.704579
   42        0.707324
   43        0.711971
   44        2.313635
   45        3.087113
   46        3.088331
   47        3.089542
   48        3.824706
   49        3.836783
   50        3.892960
   51        3.900483
   52        3.905188
   53        3.912599
   54        3.968703
   55        3.981006
   56        4.531001
   57        4.538448
   58        4.538754
   59        4.539369
   60        4.539927
   61        4.546945
   62        4.751711
   63        4.753451
   64        4.755624
   65        8.483115
   66        8.491629
   67        8.492261
   68        8.493359
   69        8.494144
   70        8.501911
   71        9.121059
   72        9.124641
   73        9.127845
   74        9.954353
   75        9.958211
   76        9.960469
   77       13.432791
   78       13.436968
   79       13.441669
   80       14.196223
   81       14.202413
   82       14.203381
   83       14.206422
   84       14.211109
 
  0.1111111E+00 -0.6938894E-17  0.0000000E+00  0.6172840E-02
    1      -13.206505
    2      -12.618789
    3      -12.617060
    4      -11.865882
    5       -8.638501
    6       -8.170418
    7       -8.168984
    8       -8.062228
    9       -8.060091
   10       -7.635437
   11       -7.633315
   12       -7.632517
   13       -7.630246
   14       -7.625003
   15       -7.232300
   16       -7.228401
   17       -6.272672
   18       -6.268521
   19       -6.024368
   20       -6.020945
   21       -6.019541
   22       -6.018517
   23       -5.859113
   24       -5.576379
   25       -5.573244
   26       -5.494554
   27       -5.491776
   28       -5.030385
   29       -2.839388
   30       -0.525512
   31       -0.521649
   32        0.097262
   33        0.102304
   34        0.290170
   35        0.291145
   36        0.294113
   37        0.298116
   38        0.408672
   39        0.496019
   40        0.501314
   41        0.587404
   42        0.590438
   43        0.777005
   44        2.390881
   45        2.415229
   46        2.943719
   47        2.945396
   48        3.513498
   49        3.603992
   50        3.609905
   51        3.654218
   52        3.701183
   53        3.738813
   54        3.744764
   55        3.829791
   56        4.120018
   57        4.125095
   58        4.485720
   59        4.488610
   60        4.489421
   61        4.496119
   62        4.967484
   63        4.970097
   64        5.171707
   65        8.610949
   66        8.618903
   67        8.619786
   68        8.623504
   69        8.878335
   70        8.993006
   71        8.997714
   72        9.017436
   73        9.024233
   74       10.102828
   75       10.106614
   76       10.675600
   77       13.483931
   78       13.782214
   79       13.788960
   80       14.247360
   81       14.249822
   82       14.454301
   83       14.535314
   84       14.542563
 
  0.2222222E+00 -0.2775558E-16  0.0000000E+00  0.6172840E-02
    1      -12.981111
    2      -12.398418
    3      -12.396702
    4      -11.654176
    5       -9.680134
    6       -9.176130
    7       -9.174622
    8       -8.561899
    9       -8.435651
   10       -8.433555
   11       -7.973991
   12       -7.972120
   13       -7.971517
   14       -7.968977
   15       -7.438331
   16       -7.435562
   17       -5.685824
   18       -5.682280
   19       -5.330509
   20       -5.327313
   21       -5.325835
   22       -5.324745
   23       -4.879813
   24       -4.876518
   25       -4.532858
   26       -4.167176
   27       -4.164627
   28       -3.735479
   29       -2.567965
   30       -0.538068
   31       -0.533428
   32       -0.317410
   33       -0.316642
   34       -0.313894
   35       -0.310025
   36       -0.271357
   37       -0.267519
   38       -0.073987
   39       -0.069047
   40        0.625761
   41        0.801790
   42        0.805030
   43        0.988713
   44        1.311684
   45        2.621055
   46        2.642942
   47        2.670222
   48        2.672178
   49        2.780789
   50        2.786300
   51        2.926338
   52        3.210201
   53        3.252804
   54        3.257184
   55        3.322563
   56        3.328213
   57        3.442713
   58        4.368588
   59        4.371626
   60        4.372409
   61        4.378943
   62        5.273135
   63        5.425523
   64        5.428460
   65        8.788054
   66        8.793006
   67        8.934008
   68        8.941445
   69        8.942528
   70        8.946152
   71        9.332825
   72       10.203142
   73       10.208558
   74       10.353805
   75       10.357405
   76       11.851440
   77       13.627777
   78       14.386530
   79       14.389150
   80       14.515488
   81       14.737396
   82       14.744060
   83       15.069241
   84       15.159629
 
  0.3333333E+00 -0.5551115E-16  0.0000000E+00  0.6172840E-02
    1      -12.606796
    2      -12.032406
    3      -12.030711
    4      -11.302420
    5      -10.615303
    6      -10.087036
    7      -10.085457
    8       -9.433432
    9       -8.703623
   10       -8.701620
   11       -8.228680
   12       -8.226759
   13       -8.226250
   14       -8.223919
   15       -7.660224
   16       -7.657832
   17       -4.869628
   18       -4.866122
   19       -4.522469
   20       -4.518980
   21       -4.517492
   22       -4.516520
   23       -4.114549
   24       -4.111205
   25       -3.067619
   26       -2.735815
   27       -2.733104
   28       -2.353446
   29       -2.117861
   30       -1.372602
   31       -1.368690
   32       -1.135847
   33       -1.135325
   34       -1.133074
   35       -1.129137
   36       -0.856054
   37       -0.851650
   38        0.147190
   39        0.150976
   40        0.243279
   41        0.978463
   42        1.149639
   43        1.153171
   44        1.331543
   45        1.407283
   46        1.600697
   47        1.605301
   48        1.802066
   49        2.321098
   50        2.325228
   51        2.438128
   52        2.440269
   53        2.627240
   54        2.763020
   55        2.767879
   56        2.907541
   57        2.997751
   58        4.248620
   59        4.251764
   60        4.252525
   61        4.258900
   62        4.778279
   63        5.876598
   64        5.879950
   65        8.656203
   66        8.660658
   67        9.308816
   68        9.316220
   69        9.317400
   70        9.320870
   71       10.524324
   72       10.528117
   73       10.623765
   74       11.626492
   75       11.631653
   76       13.128281
   77       13.856766
   78       14.615559
   79       14.618560
   80       14.696786
   81       14.941001
   82       14.946103
   83       14.986830
   84       15.247798
 
  0.4444444E+00 -0.5551115E-16  0.0000000E+00  0.6172840E-02
    1      -12.085364
    2      -11.522734
    3      -11.521065
    4      -11.419725
    5      -10.872539
    6      -10.870917
    7      -10.812469
    8      -10.187836
    9       -8.841186
   10       -8.839235
   11       -8.360441
   12       -8.358502
   13       -8.358037
   14       -8.355783
   15       -7.781361
   16       -7.779095
   17       -4.064051
   18       -4.060909
   19       -3.787280
   20       -3.782704
   21       -3.782039
   22       -3.781262
   23       -3.525776
   24       -3.523116
   25       -2.046610
   26       -2.044635
   27       -1.901527
   28       -1.900422
   29       -1.899673
   30       -1.895512
   31       -1.638136
   32       -1.634951
   33       -1.546625
   34       -1.493221
   35       -1.259043
   36       -1.255800
   37       -0.930778
   38       -0.701720
   39       -0.028760
   40        0.200063
   41        0.203759
   42        0.479664
   43        0.745607
   44        0.749859
   45        1.450976
   46        1.465675
   47        1.469726
   48        1.614480
   49        1.618463
   50        1.788807
   51        2.015936
   52        2.168355
   53        2.172738
   54        2.311776
   55        2.314010
   56        2.331208
   57        3.507822
   58        4.123803
   59        4.176458
   60        4.179600
   61        4.180345
   62        4.186701
   63        6.148669
   64        6.152250
   65        8.615418
   66        8.618685
   67        9.562644
   68        9.569962
   69        9.571192
   70        9.574534
   71       10.582598
   72       10.586716
   73       12.239864
   74       13.070966
   75       13.076398
   76       13.900132
   77       14.151091
   78       14.288897
   79       14.294765
   80       14.423945
   81       14.471582
   82       14.943228
   83       14.946879
   84       15.308028
 
  0.1694066E-20  0.1111111E+00  0.0000000E+00  0.6172840E-02
    1      -13.206506
    2      -12.618791
    3      -12.617062
    4      -11.865884
    5       -8.638467
    6       -8.170317
    7       -8.168908
    8       -8.062734
    9       -8.059751
   10       -7.636301
   11       -7.633167
   12       -7.632528
   13       -7.630679
   14       -7.624288
   15       -7.231434
   16       -7.230023
   17       -6.272307
   18       -6.267113
   19       -6.024856
   20       -6.020886
   21       -6.019416
   22       -6.015411
   23       -5.860423
   24       -5.576818
   25       -5.571585
   26       -5.494872
   27       -5.493662
   28       -5.031483
   29       -2.839384
   30       -0.525505
   31       -0.521642
   32        0.096010
   33        0.102037
   34        0.287946
   35        0.291117
   36        0.294116
   37        0.297247
   38        0.410239
   39        0.494776
   40        0.500961
   41        0.590188
   42        0.590829
   43        0.778588
   44        2.390948
   45        2.415803
   46        2.942773
   47        2.945480
   48        3.510396
   49        3.602723
   50        3.604050
   51        3.657790
   52        3.697463
   53        3.744715
   54        3.746135
   55        3.833078
   56        4.121432
   57        4.125940
   58        4.483655
   59        4.488964
   60        4.489514
   61        4.494822
   62        4.966972
   63        4.969190
   64        5.173427
   65        8.611866
   66        8.618934
   67        8.620247
   68        8.627018
   69        8.875757
   70        8.993243
   71        8.999765
   72        9.016284
   73        9.020841
   74       10.102964
   75       10.108895
   76       10.673861
   77       13.484526
   78       13.782266
   79       13.788233
   80       14.248172
   81       14.250109
   82       14.333127
   83       14.536847
   84       14.539937
 
  0.1111111E+00  0.1111111E+00  0.0000000E+00  0.6172840E-02
    1      -13.056176
    2      -12.471780
    3      -12.470060
    4      -11.724688
    5       -9.119415
    6       -9.115839
    7       -8.633122
    8       -8.629327
    9       -8.629318
   10       -8.625433
   11       -8.046260
   12       -8.042404
   13       -7.573503
   14       -7.220254
   15       -7.218205
   16       -7.115909
   17       -6.185239
   18       -6.181279
   19       -6.120036
   20       -5.831029
   21       -5.184619
   22       -5.180801
   23       -4.812177
   24       -4.809257
   25       -4.809198
   26       -4.804035
   27       -4.363787
   28       -4.359622
   29       -2.658326
   30       -0.611300
   31       -0.389243
   32       -0.386337
   33       -0.355829
   34       -0.351976
   35       -0.142595
   36        0.242846
   37        0.246027
   38        0.431797
   39        0.436387
   40        0.436469
   41        0.438278
   42        0.636891
   43        0.640120
   44        1.933449
   45        1.936056
   46        2.544700
   47        2.970427
   48        3.070839
   49        3.076821
   50        3.133403
   51        3.349058
   52        3.381834
   53        3.423421
   54        3.429417
   55        3.517915
   56        3.769009
   57        3.774642
   58        3.775049
   59        3.779075
   60        4.798669
   61        4.804467
   62        4.996401
   63        5.382983
   64        5.386462
   65        8.411676
   66        8.418616
   67        8.949016
   68        8.953080
   69        9.168755
   70        9.539749
   71        9.544383
   72        9.544950
   73        9.546094
   74        9.552067
   75       11.154603
   76       11.157455
   77       13.877830
   78       13.882494
   79       14.459478
   80       14.622994
   81       14.629281
   82       14.629542
   83       14.633746
   84       14.693938
 
  0.2222222E+00  0.1111111E+00  0.0000000E+00  0.6172840E-02
    1      -12.756271
    2      -12.178634
    3      -12.176931
    4      -11.442905
    5      -10.109527
    6       -9.594062
    7       -9.592528
    8       -9.468790
    9       -8.970738
   10       -8.969127
   11       -8.960337
   12       -8.364671
   13       -7.664902
   14       -7.248609
   15       -7.247038
   16       -6.857983
   17       -5.914439
   18       -5.679020
   19       -5.675787
   20       -5.261083
   21       -4.382449
   22       -4.028378
   23       -4.027219
   24       -3.776018
   25       -3.616314
   26       -3.428847
   27       -3.426271
   28       -3.025913
   29       -2.297501
   30       -1.546837
   31       -1.297908
   32       -1.295016
   33       -1.008088
   34       -0.305375
   35       -0.092441
   36       -0.091557
   37       -0.019195
   38       -0.015381
   39        0.144464
   40        0.534436
   41        0.719108
   42        0.722258
   43        0.829723
   44        0.918379
   45        1.567948
   46        1.976367
   47        2.121629
   48        2.127784
   49        2.250801
   50        2.792741
   51        2.842413
   52        2.846861
   53        2.849649
   54        2.880435
   55        2.886748
   56        3.004335
   57        3.453813
   58        3.493486
   59        3.497787
   60        4.997767
   61        5.003379
   62        5.125050
   63        5.456750
   64        5.510912
   65        8.413659
   66        8.420345
   67        8.747572
   68        9.231646
   69        9.546305
   70        9.888663
   71       10.094796
   72       10.099266
   73       10.871926
   74       10.876962
   75       11.477178
   76       12.377867
   77       14.067645
   78       14.717999
   79       14.810047
   80       14.812877
   81       14.882772
   82       15.201433
   83       15.241825
   84       15.249182
 
  0.3333333E+00  0.1111111E+00  0.0000000E+00  0.6172840E-02
    1      -12.308423
    2      -11.740735
    3      -11.739057
    4      -11.022186
    5      -10.979790
    6      -10.442855
    7      -10.441256
    8       -9.775196
    9       -9.682218
   10       -9.177770
   11       -9.176257
   12       -8.561923
   13       -7.829941
   14       -7.385879
   15       -7.384479
   16       -6.876484
   17       -5.220630
   18       -4.905802
   19       -4.902730
   20       -4.535636
   21       -3.543458
   22       -3.235827
   23       -3.234280
   24       -2.902362
   25       -2.469533
   26       -2.288352
   27       -2.241913
   28       -2.238791
   29       -1.982566
   30       -1.979938
   31       -1.933407
   32       -1.760006
   33       -1.634390
   34       -0.999013
   35       -0.797986
   36       -0.796272
   37       -0.540393
   38       -0.181640
   39        0.468947
   40        0.472271
   41        0.674940
   42        0.894392
   43        0.899226
   44        0.958686
   45        1.091885
   46        1.133880
   47        1.137278
   48        1.324537
   49        1.341096
   50        1.940774
   51        1.944843
   52        2.126104
   53        2.260136
   54        2.265453
   55        2.415799
   56        3.292731
   57        3.315260
   58        3.319425
   59        3.408625
   60        4.507670
   61        5.087287
   62        5.092401
   63        5.556625
   64        6.166873
   65        8.065002
   66        8.522244
   67        8.528154
   68        9.587650
   69        9.706513
   70       10.532181
   71       10.536875
   72       11.376617
   73       11.598304
   74       12.315586
   75       12.320583
   76       13.646396
   77       14.329900
   78       14.579797
   79       14.775896
   80       14.782515
   81       14.883651
   82       15.074422
   83       15.077423
   84       15.235357
 
  0.4444444E+00  0.1111111E+00  0.0000000E+00  0.6172840E-02
    1      -11.716711
    2      -11.713342
    3      -11.163650
    4      -11.160053
    5      -11.159937
    6      -11.156326
    7      -10.466640
    8      -10.463060
    9       -9.753841
   10       -9.247544
   11       -9.246025
   12       -8.628435
   13       -7.890645
   14       -7.440716
   15       -7.439340
   16       -6.913284
   17       -4.661163
   18       -4.416547
   19       -4.413714
   20       -4.238079
   21       -2.993828
   22       -2.831985
   23       -2.786918
   24       -2.784315
   25       -2.779099
   26       -2.776087
   27       -2.624276
   28       -2.550821
   29       -1.299895
   30       -1.238527
   31       -1.234681
   32       -1.052902
   33       -1.050195
   34       -1.030893
   35       -0.782869
   36       -0.779358
   37       -0.527162
   38       -0.526627
   39       -0.526342
   40       -0.519415
   41       -0.240188
   42       -0.236206
   43        1.142535
   44        1.147882
   45        1.148414
   46        1.152057
   47        1.263736
   48        1.495687
   49        1.501735
   50        1.654215
   51        1.663840
   52        1.663893
   53        1.665741
   54        1.833601
   55        1.839172
   56        3.254218
   57        3.258425
   58        3.379208
   59        3.857920
   60        3.861355
   61        5.109399
   62        5.114087
   63        5.565641
   64        6.667082
   65        7.592097
   66        8.584616
   67        8.589752
   68        9.760334
   69        9.766456
   70       10.701997
   71       10.707042
   72       11.604170
   73       13.008612
   74       13.012922
   75       13.699585
   76       13.702095
   77       13.703800
   78       13.710477
   79       14.630518
   80       14.634452
   81       14.908111
   82       14.911475
   83       15.422342
   84       15.425224
 
 -0.4444444E+00  0.1111111E+00  0.0000000E+00  0.6172840E-02
    1      -12.308533
    2      -11.740846
    3      -11.739168
    4      -11.022299
    5      -10.979619
    6      -10.442684
    7      -10.441080
    8       -9.774988
    9       -9.682483
   10       -9.177999
   11       -9.176485
   12       -8.562137
   13       -7.829782
   14       -7.385755
   15       -7.384412
   16       -6.876529
   17       -5.217694
   18       -4.902365
   19       -4.901077
   20       -4.533574
   21       -3.546353
   22       -3.239293
   23       -3.236135
   24       -2.904604
   25       -2.472101
   26       -2.288402
   27       -2.243972
   28       -2.242678
   29       -1.982702
   30       -1.979675
   31       -1.936619
   32       -1.760045
   33       -1.634180
   34       -0.996166
   35       -0.795663
   36       -0.791889
   37       -0.536740
   38       -0.181591
   39        0.468902
   40        0.472204
   41        0.674022
   42        0.893906
   43        0.897111
   44        0.958399
   45        1.089755
   46        1.133576
   47        1.137376
   48        1.324518
   49        1.341150
   50        1.940778
   51        1.944883
   52        2.128277
   53        2.262463
   54        2.265920
   55        2.416767
   56        3.292633
   57        3.315436
   58        3.319838
   59        3.408234
   60        4.507547
   61        5.086759
   62        5.091318
   63        5.557348
   64        6.165831
   65        8.067756
   66        8.524926
   67        8.529610
   68        9.584876
   69        9.707183
   70       10.530322
   71       10.535677
   72       11.376862
   73       11.598117
   74       12.315740
   75       12.321048
   76       13.647256
   77       14.328926
   78       14.579234
   79       14.777689
   80       14.783398
   81       14.885596
   82       15.073200
   83       15.076737
   84       15.236760
 
 -0.3333333E+00  0.1111111E+00  0.0000000E+00  0.6172840E-02
    1      -12.756350
    2      -12.178714
    3      -12.177010
    4      -11.442986
    5      -10.109325
    6       -9.593843
    7       -9.592298
    8       -9.469280
    9       -8.970757
   10       -8.969261
   11       -8.960879
   12       -8.365081
   13       -7.664689
   14       -7.248394
   15       -7.247179
   16       -6.858145
   17       -5.911049
   18       -5.674857
   19       -5.673861
   20       -5.258331
   21       -4.385443
   22       -4.031989
   23       -4.029363
   24       -3.776181
   25       -3.619112
   26       -3.429058
   27       -3.426352
   28       -3.025973
   29       -2.297530
   30       -1.550499
   31       -1.300654
   32       -1.299800
   33       -1.011949
   34       -0.301293
   35       -0.089438
   36       -0.086093
   37       -0.019208
   38       -0.015394
   39        0.148826
   40        0.534341
   41        0.718941
   42        0.722388
   43        0.829772
   44        0.918415
   45        1.568088
   46        1.974031
   47        2.120206
   48        2.122952
   49        2.246402
   50        2.797360
   51        2.842366
   52        2.846931
   53        2.849681
   54        2.885488
   55        2.888193
   56        3.006764
   57        3.452936
   58        3.493812
   59        3.498416
   60        4.996765
   61        5.001458
   62        5.124955
   63        5.456316
   64        5.512186
   65        8.418357
   66        8.423010
   67        8.751047
   68        9.227299
   69        9.547796
   70        9.888774
   71       10.091504
   72       10.097102
   73       10.872033
   74       10.877391
   75       11.476065
   76       12.378601
   77       14.067032
   78       14.718758
   79       14.809465
   80       14.812406
   81       14.887752
   82       15.206213
   83       15.247574
   84       15.251414
 
 -0.2222222E+00  0.1111111E+00  0.0000000E+00  0.6172840E-02
    1      -13.056224
    2      -12.471828
    3      -12.470108
    4      -11.724737
    5       -9.118262
    6       -9.117388
    7       -8.630923
    8       -8.629541
    9       -8.629453
   10       -8.628085
   11       -8.044845
   12       -8.044195
   13       -7.573354
   14       -7.219752
   15       -7.218892
   16       -7.115358
   17       -6.180180
   18       -6.179611
   19       -6.117475
   20       -5.827956
   21       -5.186155
   22       -5.182308
   23       -4.813278
   24       -4.810817
   25       -4.809545
   26       -4.806941
   27       -4.365008
   28       -4.361318
   29       -2.658344
   30       -0.615436
   31       -0.392355
   32       -0.391626
   33       -0.355830
   34       -0.351977
   35       -0.146860
   36        0.243668
   37        0.249738
   38        0.433392
   39        0.436547
   40        0.439468
   41        0.442715
   42        0.637742
   43        0.643923
   44        1.934527
   45        1.935289
   46        2.544725
   47        2.964705
   48        3.067347
   49        3.067893
   50        3.128264
   51        3.347973
   52        3.387094
   53        3.432473
   54        3.433041
   55        3.523849
   56        3.770230
   57        3.774646
   58        3.774978
   59        3.779416
   60        4.797497
   61        4.802284
   62        4.996241
   63        5.383750
   64        5.387120
   65        8.417257
   66        8.422001
   67        8.944850
   68        8.952284
   69        9.171834
   70        9.537468
   71        9.543503
   72        9.544613
   73        9.546806
   74        9.551248
   75       11.152972
   76       11.157489
   77       13.879449
   78       13.885603
   79       14.460045
   80       14.626754
   81       14.629478
   82       14.632965
   83       14.635253
   84       14.688607
 
 -0.1111111E+00  0.1111111E+00  0.0000000E+00  0.6172840E-02
    1      -13.206522
    2      -12.618806
    3      -12.617078
    4      -11.865900
    5       -8.639220
    6       -8.170974
    7       -8.169551
    8       -8.061844
    9       -8.059777
   10       -7.635955
   11       -7.632320
   12       -7.631982
   13       -7.630650
   14       -7.625259
   15       -7.232604
   16       -7.228647
   17       -6.269675
   18       -6.266605
   19       -6.020683
   20       -6.019694
   21       -6.019220
   22       -6.015698
   23       -5.863323
   24       -5.574088
   25       -5.571900
   26       -5.498196
   27       -5.495733
   28       -5.034049
   29       -2.839390
   30       -0.525508
   31       -0.521645
   32        0.095379
   33        0.098219
   34        0.286718
   35        0.291083
   36        0.291178
   37        0.292548
   38        0.414798
   39        0.494178
   40        0.497081
   41        0.593495
   42        0.596737
   43        0.783279
   44        2.390901
   45        2.416358
   46        2.942867
   47        2.944560
   48        3.503804
   49        3.594019
   50        3.600586
   51        3.663991
   52        3.691334
   53        3.748205
   54        3.754867
   55        3.839852
   56        4.122231
   57        4.127402
   58        4.482291
   59        4.488949
   60        4.490003
   61        4.492668
   62        4.966289
   63        4.969287
   64        5.174612
   65        8.617181
   66        8.620462
   67        8.621285
   68        8.628414
   69        8.871146
   70        8.996273
   71        8.999366
   72        9.012217
   73        9.017452
   74       10.106431
   75       10.109236
   76       10.670871
   77       13.489639
   78       13.780366
   79       13.784740
   80       14.252987
   81       14.255272
   82       14.404488
   83       14.530242
   84       14.535873
 
  0.0000000E+00  0.2222222E+00  0.0000000E+00  0.6172840E-02
    1      -12.981118
    2      -12.398426
    3      -12.396710
    4      -11.654183
    5       -9.680190
    6       -9.176175
    7       -9.174666
    8       -8.561936
    9       -8.436255
   10       -8.432948
   11       -7.975063
   12       -7.971983
   13       -7.971465
   14       -7.968256
   15       -7.438588
   16       -7.435572
   17       -5.686084
   18       -5.680647
   19       -5.331329
   20       -5.327290
   21       -5.325679
   22       -5.321579
   23       -4.880228
   24       -4.874808
   25       -4.533940
   26       -4.167552
   27       -4.166403
   28       -3.736591
   29       -2.567947
   30       -0.539446
   31       -0.533672
   32       -0.319904
   33       -0.316704
   34       -0.313888
   35       -0.310648
   36       -0.271341
   37       -0.267494
   38       -0.075332
   39       -0.069295
   40        0.627394
   41        0.804742
   42        0.805349
   43        0.990356
   44        1.312071
   45        2.621082
   46        2.640342
   47        2.669157
   48        2.672444
   49        2.780443
   50        2.781035
   51        2.923282
   52        3.213291
   53        3.253546
   54        3.257750
   55        3.328071
   56        3.328636
   57        3.445574
   58        4.366535
   59        4.371950
   60        4.372509
   61        4.377898
   62        5.274641
   63        5.424762
   64        5.427603
   65        8.787828
   66        8.795094
   67        8.934902
   68        8.941600
   69        8.942889
   70        8.949721
   71        9.330323
   72       10.202051
   73       10.206424
   74       10.354416
   75       10.359719
   76       11.850033
   77       13.628477
   78       14.387513
   79       14.389497
   80       14.515839
   81       14.736970
   82       14.743517
   83       15.052529
   84       15.160581
 
  0.1111111E+00  0.2222222E+00  0.0000000E+00  0.6172840E-02
    1      -12.756277
    2      -12.178639
    3      -12.176936
    4      -11.442910
    5      -10.109597
    6       -9.594126
    7       -9.592589
    8       -9.468732
    9       -8.970672
   10       -8.969100
   11       -8.960396
   12       -8.364661
   13       -7.664876
   14       -7.248602
   15       -7.247022
   16       -6.857981
   17       -5.914428
   18       -5.678881
   19       -5.675786
   20       -5.260946
   21       -4.381252
   22       -4.027766
   23       -4.025411
   24       -3.777185
   25       -3.615031
   26       -3.429299
   27       -3.428204
   28       -3.027179
   29       -2.297486
   30       -1.546971
   31       -1.297912
   32       -1.295213
   33       -1.008166
   34       -0.307038
   35       -0.095048
   36       -0.092211
   37       -0.019177
   38       -0.015361
   39        0.142836
   40        0.536171
   41        0.722043
   42        0.722765
   43        0.830050
   44        0.920095
   45        1.567513
   46        1.974898
   47        2.121621
   48        2.125052
   49        2.249899