  32  32   0   0
  0.8951641E+01  0.4934311E-09  0.4934311E-09  0.1358600E-08  0.5000000E-15
  1.000000000000000E-004
  CAR 
 graphite                                
     15.38950078    -17.04644707  301      4.56023055      1.00000000
    -17.046  0.0000E+00  0.0000E+00
    -16.938  0.0000E+00  0.0000E+00
    -16.830  0.0000E+00  0.0000E+00
    -16.722  0.0000E+00  0.0000E+00
    -16.614  0.0000E+00  0.0000E+00
    -16.506  0.0000E+00  0.0000E+00
    -16.398  0.0000E+00  0.0000E+00
    -16.290  0.0000E+00  0.0000E+00
    -16.181  0.0000E+00  0.0000E+00
    -16.073  0.0000E+00  0.0000E+00
    -15.965  0.0000E+00  0.0000E+00
    -15.857  0.0000E+00  0.0000E+00
    -15.749  0.0000E+00  0.0000E+00
    -15.641  0.0000E+00  0.0000E+00
    -15.533  0.0000E+00  0.0000E+00
    -15.425  0.0000E+00  0.0000E+00
    -15.317  0.0000E+00  0.0000E+00
    -15.208  0.0000E+00  0.0000E+00
    -15.100  0.0000E+00  0.0000E+00
    -14.992  0.1140E+01  0.2387E-01
    -14.884  0.2524E+01  0.2327E+00
    -14.776  0.4177E+01  0.5900E+00
    -14.668  0.4807E+01  0.1108E+01
    -14.560  0.5029E+01  0.1643E+01
    -14.452  0.4909E+01  0.2176E+01
    -14.343  0.4954E+01  0.2710E+01
    -14.235  0.4914E+01  0.3243E+01
    -14.127  0.4983E+01  0.3779E+01
    -14.019  0.4985E+01  0.4317E+01
    -13.911  0.5006E+01  0.4858E+01
    -13.803  0.5628E+01  0.5428E+01
    -13.695  0.5903E+01  0.6055E+01
    -13.587  0.6808E+01  0.6768E+01
    -13.478  0.4592E+01  0.7358E+01
    -13.370  0.1791E+01  0.7722E+01
    -13.262  0.3340E+01  0.7968E+01
    -13.154  0.4259E+01  0.8412E+01
    -13.046  0.4630E+01  0.8896E+01
    -12.938  0.5924E+01  0.9642E+01
    -12.830  0.6718E+01  0.1034E+02
    -12.722  0.4356E+01  0.1089E+02
    -12.614  0.4530E+01  0.1137E+02
    -12.505  0.4665E+01  0.1187E+02
    -12.397  0.4781E+01  0.1238E+02
    -12.289  0.5146E+01  0.1292E+02
    -12.181  0.5493E+01  0.1349E+02
    -12.073  0.5672E+01  0.1412E+02
    -11.965  0.5528E+01  0.1472E+02
    -11.857  0.5137E+01  0.1529E+02
    -11.749  0.4948E+01  0.1584E+02
    -11.640  0.4929E+01  0.1636E+02
    -11.532  0.5026E+01  0.1690E+02
    -11.424  0.5085E+01  0.1745E+02
    -11.316  0.5228E+01  0.1800E+02
    -11.208  0.5500E+01  0.1858E+02
    -11.100  0.5907E+01  0.1920E+02
    -10.992  0.5795E+01  0.1983E+02
    -10.884  0.5746E+01  0.2045E+02
    -10.775  0.5805E+01  0.2108E+02
    -10.667  0.5339E+01  0.2170E+02
    -10.559  0.4542E+01  0.2221E+02
    -10.451  0.5149E+01  0.2274E+02
    -10.343  0.5344E+01  0.2331E+02
    -10.235  0.5445E+01  0.2389E+02
    -10.127  0.5644E+01  0.2449E+02
    -10.019  0.5894E+01  0.2512E+02
     -9.911  0.7289E+01  0.2582E+02
     -9.802  0.1061E+02  0.2676E+02
     -9.694  0.7160E+01  0.2772E+02
     -9.586  0.6742E+01  0.2838E+02
     -9.478  0.5961E+01  0.2909E+02
     -9.370  0.3637E+01  0.2962E+02
     -9.262  0.3266E+01  0.2999E+02
     -9.154  0.2894E+01  0.3032E+02
     -9.046  0.2523E+01  0.3062E+02
     -8.937  0.2400E+01  0.3087E+02
     -8.829  0.3090E+01  0.3119E+02
     -8.721  0.2027E+01  0.3147E+02
     -8.613  0.1534E+01  0.3163E+02
     -8.505  0.2426E+01  0.3184E+02
     -8.397  0.6049E+01  0.3223E+02
     -8.289  0.4513E+01  0.3299E+02
     -8.181  0.3883E+01  0.3344E+02
     -8.073  0.4215E+01  0.3387E+02
     -7.964  0.6817E+01  0.3448E+02
     -7.856  0.6190E+01  0.3526E+02
     -7.748  0.7255E+01  0.3599E+02
     -7.640  0.8354E+01  0.3683E+02
     -7.532  0.8294E+01  0.3778E+02
     -7.424  0.6325E+01  0.3855E+02
     -7.316  0.6061E+01  0.3922E+02
     -7.208  0.5801E+01  0.3986E+02
     -7.099  0.5565E+01  0.4047E+02
     -6.991  0.5371E+01  0.4107E+02
     -6.883  0.5190E+01  0.4164E+02
     -6.775  0.4996E+01  0.4219E+02
     -6.667  0.4857E+01  0.4272E+02
     -6.559  0.4829E+01  0.4324E+02
     -6.451  0.4798E+01  0.4376E+02
     -6.343  0.4653E+01  0.4428E+02
     -6.234  0.4434E+01  0.4477E+02
     -6.126  0.4381E+01  0.4525E+02
     -6.018  0.4065E+01  0.4565E+02
     -5.910  0.4220E+01  0.4610E+02
     -5.802  0.4853E+01  0.4659E+02
     -5.694  0.5651E+01  0.4715E+02
     -5.586  0.6444E+01  0.4781E+02
     -5.478  0.9876E+01  0.4868E+02
     -5.370  0.8893E+01  0.4976E+02
     -5.261  0.6586E+01  0.5059E+02
     -5.153  0.4278E+01  0.5118E+02
     -5.045  0.2617E+01  0.5153E+02
     -4.937  0.2936E+01  0.5182E+02
     -4.829  0.4146E+01  0.5220E+02
     -4.721  0.5479E+01  0.5272E+02
     -4.613  0.7032E+01  0.5339E+02
     -4.505  0.8138E+01  0.5424E+02
     -4.396  0.6983E+01  0.5506E+02
     -4.288  0.5726E+01  0.5575E+02
     -4.180  0.6664E+01  0.5637E+02
     -4.072  0.7350E+01  0.5718E+02
     -3.964  0.6829E+01  0.5795E+02
     -3.856  0.6349E+01  0.5866E+02
     -3.748  0.6453E+01  0.5936E+02
     -3.640  0.7742E+01  0.6004E+02
     -3.531  0.1237E+02  0.6116E+02
     -3.423  0.8807E+01  0.6225E+02
     -3.315  0.7920E+01  0.6316E+02
     -3.207  0.7297E+01  0.6398E+02
     -3.099  0.6802E+01  0.6473E+02
     -2.991  0.7541E+01  0.6550E+02
     -2.883  0.8605E+01  0.6637E+02
     -2.775  0.1036E+02  0.6737E+02
     -2.667  0.1429E+02  0.6871E+02
     -2.558  0.1254E+02  0.7024E+02
     -2.450  0.1154E+02  0.7150E+02
     -2.342  0.1269E+02  0.7285E+02
     -2.234  0.1398E+02  0.7422E+02
     -2.126  0.1359E+02  0.7580E+02
     -2.018  0.1489E+02  0.7725E+02
     -1.910  0.1258E+02  0.7907E+02
     -1.802  0.1348E+02  0.8031E+02
     -1.693  0.1642E+02  0.8239E+02
     -1.585  0.1840E+02  0.8433E+02
     -1.477  0.1486E+02  0.8618E+02
     -1.369  0.1217E+02  0.8765E+02
     -1.261  0.1058E+02  0.8886E+02
     -1.153  0.8953E+01  0.8995E+02
     -1.045  0.7569E+01  0.9086E+02
     -0.937  0.1082E+02  0.9183E+02
     -0.828  0.1342E+02  0.9319E+02
     -0.720  0.1628E+02  0.9465E+02
     -0.612  0.9079E+01  0.9613E+02
     -0.504  0.9773E+01  0.9712E+02
     -0.396  0.1088E+02  0.9824E+02
     -0.288  0.1047E+02  0.9937E+02
     -0.180  0.1118E+02  0.1005E+03
     -0.072  0.9529E+01  0.1016E+03
      0.036  0.9226E+01  0.1026E+03
      0.145  0.1012E+02  0.1037E+03
      0.253  0.9765E+01  0.1048E+03
      0.361  0.9328E+01  0.1058E+03
      0.469  0.9241E+01  0.1068E+03
      0.577  0.9463E+01  0.1078E+03
      0.685  0.9398E+01  0.1088E+03
      0.793  0.9265E+01  0.1099E+03
      0.901  0.9395E+01  0.1109E+03
      1.010  0.9120E+01  0.1119E+03
      1.118  0.9490E+01  0.1129E+03
      1.226  0.9596E+01  0.1139E+03
      1.334  0.9705E+01  0.1150E+03
      1.442  0.9924E+01  0.1160E+03
      1.550  0.7263E+01  0.1170E+03
      1.658  0.6614E+01  0.1177E+03
      1.766  0.6231E+01  0.1184E+03
      1.875  0.4983E+01  0.1190E+03
      1.983  0.3797E+01  0.1194E+03
      2.091  0.4246E+01  0.1199E+03
      2.199  0.6876E+01  0.1204E+03
      2.307  0.8590E+01  0.1213E+03
      2.415  0.5423E+01  0.1222E+03
      2.523  0.8449E+01  0.1229E+03
      2.631  0.6793E+01  0.1238E+03
      2.739  0.5245E+01  0.1244E+03
      2.848  0.4396E+01  0.1250E+03
      2.956  0.3740E+01  0.1254E+03
      3.064  0.3292E+01  0.1258E+03
      3.172  0.3142E+01  0.1261E+03
      3.280  0.2833E+01  0.1264E+03
      3.388  0.2433E+01  0.1267E+03
      3.496  0.2063E+01  0.1270E+03
      3.604  0.1830E+01  0.1272E+03
      3.713  0.1593E+01  0.1274E+03
      3.821  0.1352E+01  0.1275E+03
      3.929  0.1117E+01  0.1277E+03
      4.037  0.9217E+00  0.1278E+03
      4.145  0.7020E+00  0.1279E+03
      4.253  0.5000E+00  0.1279E+03
      4.361  0.3113E+00  0.1280E+03
      4.469  0.1334E+00  0.1280E+03
      4.578  0.1067E-01  0.1280E+03
      4.686  0.1346E+00  0.1280E+03
      4.794  0.2699E+00  0.1280E+03
      4.902  0.4190E+00  0.1281E+03
      5.010  0.5848E+00  0.1281E+03
      5.118  0.7741E+00  0.1282E+03
      5.226  0.1006E+01  0.1283E+03
      5.334  0.1378E+01  0.1284E+03
      5.442  0.1754E+01  0.1286E+03
      5.551  0.2095E+01  0.1288E+03
      5.659  0.2482E+01  0.1290E+03
      5.767  0.3215E+01  0.1293E+03
      5.875  0.3448E+01  0.1297E+03
      5.983  0.4414E+01  0.1301E+03
      6.091  0.7470E+01  0.1308E+03
      6.199  0.8188E+01  0.1318E+03
      6.307  0.8275E+01  0.1327E+03
      6.416  0.8000E+01  0.1336E+03
      6.524  0.7544E+01  0.1345E+03
      6.632  0.6302E+01  0.1352E+03
      6.740  0.6079E+01  0.1359E+03
      6.848  0.5578E+01  0.1365E+03
      6.956  0.4892E+01  0.1371E+03
      7.064  0.4276E+01  0.1376E+03
      7.172  0.3638E+01  0.1380E+03
      7.281  0.3581E+01  0.1384E+03
      7.389  0.3927E+01  0.1388E+03
      7.497  0.4436E+01  0.1392E+03
      7.605  0.4673E+01  0.1397E+03
      7.713  0.4697E+01  0.1402E+03
      7.821  0.4533E+01  0.1407E+03
      7.929  0.4377E+01  0.1412E+03
      8.037  0.4218E+01  0.1417E+03
      8.145  0.4044E+01  0.1421E+03
      8.254  0.3858E+01  0.1426E+03
      8.362  0.3717E+01  0.1430E+03
      8.470  0.3603E+01  0.1434E+03
      8.578  0.3525E+01  0.1437E+03
      8.686  0.3440E+01  0.1441E+03
      8.794  0.3347E+01  0.1445E+03
      8.902  0.3559E+01  0.1449E+03
      9.010  0.3759E+01  0.1453E+03
      9.119  0.3925E+01  0.1457E+03
      9.227  0.4082E+01  0.1461E+03
      9.335  0.4168E+01  0.1466E+03
      9.443  0.4062E+01  0.1470E+03
      9.551  0.3970E+01  0.1474E+03
      9.659  0.3958E+01  0.1479E+03
      9.767  0.3939E+01  0.1483E+03
      9.875  0.3959E+01  0.1487E+03
      9.984  0.3974E+01  0.1491E+03
     10.092  0.4032E+01  0.1496E+03
     10.200  0.4098E+01  0.1500E+03
     10.308  0.4246E+01  0.1505E+03
     10.416  0.4301E+01  0.1509E+03
     10.524  0.5456E+01  0.1514E+03
     10.632  0.5477E+01  0.1521E+03
     10.740  0.5342E+01  0.1526E+03
     10.848  0.4497E+01  0.1532E+03
     10.957  0.4490E+01  0.1537E+03
     11.065  0.3892E+01  0.1542E+03
     11.173  0.3468E+01  0.1546E+03
     11.281  0.3673E+01  0.1550E+03
     11.389  0.4370E+01  0.1554E+03
     11.497  0.3297E+01  0.1558E+03
     11.605  0.2452E+01  0.1561E+03
     11.713  0.3498E+01  0.1564E+03
     11.822  0.6483E+01  0.1569E+03
     11.930  0.7065E+01  0.1576E+03
     12.038  0.1068E+02  0.1586E+03
     12.146  0.1298E+02  0.1599E+03
     12.254  0.1389E+02  0.1614E+03
     12.362  0.1360E+02  0.1629E+03
     12.470  0.1048E+02  0.1642E+03
     12.578  0.7705E+01  0.1652E+03
     12.687  0.6275E+01  0.1659E+03
     12.795  0.5493E+01  0.1666E+03
     12.903  0.5440E+01  0.1672E+03
     13.011  0.2971E+01  0.1676E+03
     13.119  0.1693E+01  0.1679E+03
     13.227  0.5435E+00  0.1680E+03
     13.335  0.2162E-02  0.1680E+03
     13.443  0.0000E+00  0.1680E+03
     13.551  0.0000E+00  0.1680E+03
     13.660  0.0000E+00  0.1680E+03
     13.768  0.0000E+00  0.1680E+03
     13.876  0.0000E+00  0.1680E+03
     13.984  0.0000E+00  0.1680E+03
     14.092  0.0000E+00  0.1680E+03
     14.200  0.0000E+00  0.1680E+03
     14.308  0.0000E+00  0.1680E+03
     14.416  0.0000E+00  0.1680E+03
     14.525  0.0000E+00  0.1680E+03
     14.633  0.0000E+00  0.1680E+03
     14.741  0.0000E+00  0.1680E+03
     14.849  0.0000E+00  0.1680E+03
     14.957  0.0000E+00  0.1680E+03
     15.065  0.0000E+00  0.1680E+03
     15.173  0.0000E+00  0.1680E+03
     15.281  0.0000E+00  0.1680E+03
     15.390  0.0000E+00  0.1680E+03
