  32  32   0   0
  0.8643287E+01  0.4932875E-09  0.4932875E-09  0.1313087E-08  0.5000000E-15
  1.000000000000000E-004
  CAR 
 graphite                                
     16.11845512    -16.78464722  301      4.86263798      1.00000000
    -16.785  0.0000E+00  0.0000E+00
    -16.675  0.0000E+00  0.0000E+00
    -16.565  0.0000E+00  0.0000E+00
    -16.456  0.0000E+00  0.0000E+00
    -16.346  0.0000E+00  0.0000E+00
    -16.236  0.0000E+00  0.0000E+00
    -16.127  0.0000E+00  0.0000E+00
    -16.017  0.0000E+00  0.0000E+00
    -15.907  0.0000E+00  0.0000E+00
    -15.798  0.0000E+00  0.0000E+00
    -15.688  0.0000E+00  0.0000E+00
    -15.578  0.0000E+00  0.0000E+00
    -15.469  0.0000E+00  0.0000E+00
    -15.359  0.0000E+00  0.0000E+00
    -15.249  0.0000E+00  0.0000E+00
    -15.139  0.0000E+00  0.0000E+00
    -15.030  0.0000E+00  0.0000E+00
    -14.920  0.0000E+00  0.0000E+00
    -14.810  0.0000E+00  0.0000E+00
    -14.701  0.1483E+01  0.6090E-01
    -14.591  0.2477E+01  0.2726E+00
    -14.481  0.3516E+01  0.6049E+00
    -14.372  0.5093E+01  0.1081E+01
    -14.262  0.5028E+01  0.1621E+01
    -14.152  0.4850E+01  0.2163E+01
    -14.043  0.4939E+01  0.2700E+01
    -13.933  0.4962E+01  0.3245E+01
    -13.823  0.4934E+01  0.3788E+01
    -13.714  0.4966E+01  0.4330E+01
    -13.604  0.5176E+01  0.4879E+01
    -13.494  0.5631E+01  0.5477E+01
    -13.385  0.6311E+01  0.6112E+01
    -13.275  0.6908E+01  0.6857E+01
    -13.165  0.4315E+01  0.7396E+01
    -13.056  0.1968E+01  0.7739E+01
    -12.946  0.3694E+01  0.8039E+01
    -12.836  0.4158E+01  0.8458E+01
    -12.727  0.9657E+01  0.9040E+01
    -12.617  0.5527E+01  0.9742E+01
    -12.507  0.6296E+01  0.1040E+02
    -12.398  0.4411E+01  0.1097E+02
    -12.288  0.4640E+01  0.1147E+02
    -12.178  0.4806E+01  0.1199E+02
    -12.069  0.4985E+01  0.1252E+02
    -11.959  0.5121E+01  0.1307E+02
    -11.849  0.5394E+01  0.1364E+02
    -11.740  0.5703E+01  0.1428E+02
    -11.630  0.5156E+01  0.1487E+02
    -11.520  0.5051E+01  0.1543E+02
    -11.410  0.4981E+01  0.1598E+02
    -11.301  0.5022E+01  0.1653E+02
    -11.191  0.5111E+01  0.1708E+02
    -11.081  0.5164E+01  0.1765E+02
    -10.972  0.5400E+01  0.1823E+02
    -10.862  0.5591E+01  0.1883E+02
    -10.752  0.5927E+01  0.1946E+02
    -10.643  0.5852E+01  0.2011E+02
    -10.533  0.5866E+01  0.2075E+02
    -10.423  0.5756E+01  0.2139E+02
    -10.314  0.4592E+01  0.2197E+02
    -10.204  0.4414E+01  0.2245E+02
    -10.094  0.5140E+01  0.2298E+02
     -9.985  0.5343E+01  0.2356E+02
     -9.875  0.5513E+01  0.2415E+02
     -9.765  0.5745E+01  0.2477E+02
     -9.656  0.6668E+01  0.2543E+02
     -9.546  0.8208E+01  0.2623E+02
     -9.436  0.9200E+01  0.2726E+02
     -9.327  0.6094E+01  0.2809E+02
     -9.217  0.5797E+01  0.2881E+02
     -9.107  0.6171E+01  0.2943E+02
     -8.998  0.3425E+01  0.2984E+02
     -8.888  0.3047E+01  0.3019E+02
     -8.778  0.2669E+01  0.3051E+02
     -8.669  0.2353E+01  0.3078E+02
     -8.559  0.3275E+01  0.3108E+02
     -8.449  0.2354E+01  0.3138E+02
     -8.340  0.1435E+01  0.3158E+02
     -8.230  0.2220E+01  0.3178E+02
     -8.120  0.4736E+01  0.3211E+02
     -8.010  0.5592E+01  0.3285E+02
     -7.901  0.4110E+01  0.3333E+02
     -7.791  0.4144E+01  0.3377E+02
     -7.681  0.6502E+01  0.3433E+02
     -7.572  0.7809E+01  0.3510E+02
     -7.462  0.6983E+01  0.3583E+02
     -7.352  0.8130E+01  0.3666E+02
     -7.243  0.8429E+01  0.3761E+02
     -7.133  0.6360E+01  0.3844E+02
     -7.023  0.6087E+01  0.3912E+02
     -6.914  0.5817E+01  0.3977E+02
     -6.804  0.5580E+01  0.4040E+02
     -6.694  0.5379E+01  0.4100E+02
     -6.585  0.5198E+01  0.4158E+02
     -6.475  0.5005E+01  0.4214E+02
     -6.365  0.4857E+01  0.4268E+02
     -6.256  0.4825E+01  0.4321E+02
     -6.146  0.4795E+01  0.4373E+02
     -6.036  0.4639E+01  0.4425E+02
     -5.927  0.4484E+01  0.4476E+02
     -5.817  0.4182E+01  0.4524E+02
     -5.707  0.3854E+01  0.4564E+02
     -5.598  0.4305E+01  0.4609E+02
     -5.488  0.4954E+01  0.4660E+02
     -5.378  0.5741E+01  0.4719E+02
     -5.269  0.6772E+01  0.4787E+02
     -5.159  0.9653E+01  0.4879E+02
     -5.049  0.8727E+01  0.4986E+02
     -4.940  0.6306E+01  0.5068E+02
     -4.830  0.3884E+01  0.5124E+02
     -4.720  0.2506E+01  0.5157E+02
     -4.610  0.3065E+01  0.5186E+02
     -4.501  0.4352E+01  0.5227E+02
     -4.391  0.5762E+01  0.5282E+02
     -4.281  0.7526E+01  0.5354E+02
     -4.172  0.8012E+01  0.5442E+02
     -4.062  0.6736E+01  0.5523E+02
     -3.952  0.5678E+01  0.5590E+02
     -3.843  0.7392E+01  0.5655E+02
     -3.733  0.7275E+01  0.5738E+02
     -3.623  0.7294E+01  0.5817E+02
     -3.514  0.6972E+01  0.5895E+02
     -3.404  0.7208E+01  0.5971E+02
     -3.294  0.9001E+01  0.6059E+02
     -3.185  0.1125E+02  0.6175E+02
     -3.075  0.8855E+01  0.6266E+02
     -2.965  0.8205E+01  0.6361E+02
     -2.856  0.6988E+01  0.6445E+02
     -2.746  0.7162E+01  0.6520E+02
     -2.636  0.8096E+01  0.6604E+02
     -2.527  0.9506E+01  0.6699E+02
     -2.417  0.1220E+02  0.6819E+02
     -2.307  0.1428E+02  0.6966E+02
     -2.198  0.1076E+02  0.7100E+02
     -2.088  0.1165E+02  0.7223E+02
     -1.978  0.1216E+02  0.7356E+02
     -1.869  0.1510E+02  0.7508E+02
     -1.759  0.1339E+02  0.7660E+02
     -1.649  0.1626E+02  0.7832E+02
     -1.540  0.1008E+02  0.7963E+02
     -1.430  0.1988E+02  0.8132E+02
     -1.320  0.1867E+02  0.8339E+02
     -1.211  0.1585E+02  0.8541E+02
     -1.101  0.1354E+02  0.8700E+02
     -0.991  0.1247E+02  0.8840E+02
     -0.881  0.9716E+01  0.8967E+02
     -0.772  0.7685E+01  0.9056E+02
     -0.662  0.9180E+01  0.9147E+02
     -0.552  0.1350E+02  0.9267E+02
     -0.443  0.1436E+02  0.9422E+02
     -0.333  0.1047E+02  0.9588E+02
     -0.223  0.8723E+01  0.9684E+02
     -0.114  0.9751E+01  0.9784E+02
     -0.004  0.1089E+02  0.9895E+02
      0.106  0.1104E+02  0.1001E+03
      0.215  0.1024E+02  0.1014E+03
      0.325  0.9450E+01  0.1024E+03
      0.435  0.9603E+01  0.1035E+03
      0.544  0.9672E+01  0.1045E+03
      0.654  0.9754E+01  0.1056E+03
      0.764  0.9287E+01  0.1066E+03
      0.873  0.9373E+01  0.1077E+03
      0.983  0.9265E+01  0.1087E+03
      1.093  0.9259E+01  0.1097E+03
      1.202  0.9286E+01  0.1107E+03
      1.312  0.9407E+01  0.1117E+03
      1.422  0.9710E+01  0.1128E+03
      1.531  0.8962E+01  0.1138E+03
      1.641  0.9582E+01  0.1148E+03
      1.751  0.9953E+01  0.1159E+03
      1.860  0.7448E+01  0.1169E+03
      1.970  0.6495E+01  0.1176E+03
      2.080  0.5984E+01  0.1183E+03
      2.189  0.4999E+01  0.1189E+03
      2.299  0.3812E+01  0.1194E+03
      2.409  0.4512E+01  0.1199E+03
      2.519  0.7536E+01  0.1206E+03
      2.628  0.8503E+01  0.1214E+03
      2.738  0.6090E+01  0.1223E+03
      2.848  0.7100E+01  0.1228E+03
      2.957  0.7365E+01  0.1236E+03
      3.067  0.5816E+01  0.1244E+03
      3.177  0.4617E+01  0.1249E+03
      3.286  0.3894E+01  0.1254E+03
      3.396  0.3413E+01  0.1258E+03
      3.506  0.3074E+01  0.1262E+03
      3.615  0.2773E+01  0.1265E+03
      3.725  0.2411E+01  0.1268E+03
      3.835  0.2013E+01  0.1270E+03
      3.944  0.1768E+01  0.1272E+03
      4.054  0.1522E+01  0.1274E+03
      4.164  0.1274E+01  0.1275E+03
      4.273  0.1066E+01  0.1277E+03
      4.383  0.9229E+00  0.1278E+03
      4.493  0.7096E+00  0.1279E+03
      4.602  0.4848E+00  0.1279E+03
      4.712  0.2695E+00  0.1280E+03
      4.822  0.6259E-01  0.1280E+03
      4.931  0.6568E-01  0.1280E+03
      5.041  0.2028E+00  0.1280E+03
      5.151  0.3498E+00  0.1280E+03
      5.260  0.5092E+00  0.1281E+03
      5.370  0.6843E+00  0.1282E+03
      5.480  0.8767E+00  0.1282E+03
      5.589  0.1131E+01  0.1284E+03
      5.699  0.1464E+01  0.1285E+03
      5.809  0.1829E+01  0.1287E+03
      5.918  0.2190E+01  0.1289E+03
      6.028  0.2605E+01  0.1292E+03
      6.138  0.3783E+01  0.1295E+03
      6.248  0.4105E+01  0.1299E+03
      6.357  0.7502E+01  0.1305E+03
      6.467  0.8353E+01  0.1315E+03
      6.577  0.8231E+01  0.1324E+03
      6.686  0.7449E+01  0.1333E+03
      6.796  0.7521E+01  0.1341E+03
      6.906  0.7155E+01  0.1350E+03
      7.015  0.5992E+01  0.1357E+03
      7.125  0.5636E+01  0.1363E+03
      7.235  0.5220E+01  0.1369E+03
      7.344  0.4220E+01  0.1374E+03
      7.454  0.3629E+01  0.1378E+03
      7.564  0.3484E+01  0.1382E+03
      7.673  0.3790E+01  0.1386E+03
      7.783  0.4196E+01  0.1391E+03
      7.893  0.4540E+01  0.1395E+03
      8.002  0.4856E+01  0.1401E+03
      8.112  0.4716E+01  0.1406E+03
      8.222  0.4512E+01  0.1411E+03
      8.331  0.4326E+01  0.1416E+03
      8.441  0.4110E+01  0.1420E+03
      8.551  0.3904E+01  0.1425E+03
      8.660  0.3785E+01  0.1429E+03
      8.770  0.3644E+01  0.1433E+03
      8.880  0.3556E+01  0.1437E+03
      8.989  0.3472E+01  0.1441E+03
      9.099  0.3332E+01  0.1445E+03
      9.209  0.3220E+01  0.1448E+03
      9.318  0.3178E+01  0.1452E+03
      9.428  0.3277E+01  0.1455E+03
      9.538  0.3633E+01  0.1459E+03
      9.648  0.3863E+01  0.1463E+03
      9.757  0.3714E+01  0.1467E+03
      9.867  0.3696E+01  0.1471E+03
      9.977  0.3761E+01  0.1475E+03
     10.086  0.3816E+01  0.1480E+03
     10.196  0.3882E+01  0.1484E+03
     10.306  0.3872E+01  0.1488E+03
     10.415  0.3832E+01  0.1492E+03
     10.525  0.3820E+01  0.1496E+03
     10.635  0.3813E+01  0.1501E+03
     10.744  0.4256E+01  0.1505E+03
     10.854  0.4756E+01  0.1510E+03
     10.964  0.4984E+01  0.1515E+03
     11.073  0.4935E+01  0.1521E+03
     11.183  0.4750E+01  0.1526E+03
     11.293  0.5262E+01  0.1531E+03
     11.402  0.3610E+01  0.1537E+03
     11.512  0.3495E+01  0.1541E+03
     11.622  0.3076E+01  0.1544E+03
     11.731  0.3123E+01  0.1547E+03
     11.841  0.3626E+01  0.1551E+03
     11.951  0.3743E+01  0.1555E+03
     12.060  0.2843E+01  0.1559E+03
     12.170  0.6556E+01  0.1564E+03
     12.280  0.7363E+01  0.1571E+03
     12.389  0.1042E+02  0.1581E+03
     12.499  0.1351E+02  0.1594E+03
     12.609  0.1364E+02  0.1609E+03
     12.718  0.1269E+02  0.1624E+03
     12.828  0.1136E+02  0.1637E+03
     12.938  0.9032E+01  0.1649E+03
     13.047  0.6527E+01  0.1657E+03
     13.157  0.5764E+01  0.1664E+03
     13.267  0.5691E+01  0.1670E+03
     13.377  0.3483E+01  0.1675E+03
     13.486  0.1957E+01  0.1678E+03
     13.596  0.6450E+00  0.1680E+03
     13.706  0.4686E-01  0.1680E+03
     13.815  0.2527E-01  0.1680E+03
     13.925  0.1030E-01  0.1680E+03
     14.035  0.1933E-02  0.1680E+03
     14.144  0.0000E+00  0.1680E+03
     14.254  0.0000E+00  0.1680E+03
     14.364  0.0000E+00  0.1680E+03
     14.473  0.0000E+00  0.1680E+03
     14.583  0.0000E+00  0.1680E+03
     14.693  0.0000E+00  0.1680E+03
     14.802  0.0000E+00  0.1680E+03
     14.912  0.0000E+00  0.1680E+03
     15.022  0.0000E+00  0.1680E+03
     15.131  0.0000E+00  0.1680E+03
     15.241  0.0000E+00  0.1680E+03
     15.351  0.0000E+00  0.1680E+03
     15.460  0.0000E+00  0.1680E+03
     15.570  0.0000E+00  0.1680E+03
     15.680  0.0000E+00  0.1680E+03
     15.789  0.0000E+00  0.1680E+03
     15.899  0.0000E+00  0.1680E+03
     16.009  0.0000E+00  0.1680E+03
     16.118  0.0000E+00  0.1680E+03
