   4   4   0   0
  0.5674886E+01  0.2466437E-09  0.2466437E-09  0.4310638E-09  0.5000000E-15
  1.000000000000000E-004
  CAR 
 graphite                                
     25.34073364    -14.01309926  301     10.05184191      1.00000000
    -14.013  0.0000E+00  0.0000E+00
    -13.882  0.0000E+00  0.0000E+00
    -13.751  0.0000E+00  0.0000E+00
    -13.620  0.0000E+00  0.0000E+00
    -13.488  0.0000E+00  0.0000E+00
    -13.357  0.0000E+00  0.0000E+00
    -13.226  0.0000E+00  0.0000E+00
    -13.095  0.0000E+00  0.0000E+00
    -12.964  0.0000E+00  0.0000E+00
    -12.832  0.0000E+00  0.0000E+00
    -12.701  0.0000E+00  0.0000E+00
    -12.570  0.0000E+00  0.0000E+00
    -12.439  0.0000E+00  0.0000E+00
    -12.308  0.0000E+00  0.0000E+00
    -12.177  0.0000E+00  0.0000E+00
    -12.045  0.0000E+00  0.0000E+00
    -11.914  0.3120E-03  0.1222E-04
    -11.783  0.5128E-03  0.6695E-04
    -11.652  0.6674E-03  0.1458E-03
    -11.521  0.8017E-03  0.2425E-03
    -11.390  0.9032E-03  0.3553E-03
    -11.258  0.1000E-02  0.4799E-03
    -11.127  0.1110E-02  0.6185E-03
    -10.996  0.1188E-02  0.7696E-03
    -10.865  0.1258E-02  0.9297E-03
    -10.734  0.1336E-02  0.1100E-02
    -10.602  0.1421E-02  0.1281E-02
    -10.471  0.1496E-02  0.1473E-02
    -10.340  0.1555E-02  0.1673E-02
    -10.209  0.1619E-02  0.1881E-02
    -10.078  0.1688E-02  0.2098E-02
     -9.947  0.1762E-02  0.2324E-02
     -9.815  0.1826E-02  0.2560E-02
     -9.684  0.1886E-02  0.2803E-02
     -9.553  0.1947E-02  0.3054E-02
     -9.422  0.2012E-02  0.3314E-02
     -9.291  0.2079E-02  0.3582E-02
     -9.159  0.2146E-02  0.3860E-02
     -9.028  0.2206E-02  0.4145E-02
     -8.897  0.2270E-02  0.4439E-02
     -8.766  0.2343E-02  0.4741E-02
     -8.635  0.2417E-02  0.5053E-02
     -8.504  0.2493E-02  0.5375E-02
     -8.372  0.2573E-02  0.5708E-02
     -8.241  0.2648E-02  0.6050E-02
     -8.110  0.2758E-02  0.6403E-02
     -7.979  0.2923E-02  0.6776E-02
     -7.848  0.3094E-02  0.7171E-02
     -7.716  0.3137E-02  0.7581E-02
     -7.585  0.3146E-02  0.7993E-02
     -7.454  0.3163E-02  0.8407E-02
     -7.323  0.3176E-02  0.8822E-02
     -7.192  0.3191E-02  0.9240E-02
     -7.061  0.3207E-02  0.9660E-02
     -6.929  0.3236E-02  0.1008E-01
     -6.798  0.3284E-02  0.1051E-01
     -6.667  0.3333E-02  0.1094E-01
     -6.536  0.3558E-02  0.1139E-01
     -6.405  0.3564E-02  0.1186E-01
     -6.274  0.3471E-02  0.1232E-01
     -6.142  0.3652E-02  0.1278E-01
     -6.011  0.3344E-02  0.1324E-01
     -5.880  0.3256E-02  0.1367E-01
     -5.749  0.3119E-02  0.1409E-01
     -5.618  0.3030E-02  0.1449E-01
     -5.486  0.2972E-02  0.1488E-01
     -5.355  0.3075E-02  0.1528E-01
     -5.224  0.3123E-02  0.1568E-01
     -5.093  0.3631E-02  0.1613E-01
     -4.962  0.3914E-02  0.1661E-01
     -4.831  0.4267E-02  0.1716E-01
     -4.699  0.3308E-02  0.1763E-01
     -4.568  0.3486E-02  0.1809E-01
     -4.437  0.3176E-02  0.1852E-01
     -4.306  0.2045E-02  0.1886E-01
     -4.175  0.1659E-02  0.1910E-01
     -4.043  0.1817E-02  0.1930E-01
     -3.912  0.1986E-02  0.1955E-01
     -3.781  0.2587E-02  0.1987E-01
     -3.650  0.2522E-02  0.2020E-01
     -3.519  0.2418E-02  0.2052E-01
     -3.388  0.3034E-02  0.2087E-01
     -3.256  0.3174E-02  0.2128E-01
     -3.125  0.4005E-02  0.2173E-01
     -2.994  0.4712E-02  0.2230E-01
     -2.863  0.5383E-02  0.2300E-01
     -2.732  0.3745E-02  0.2354E-01
     -2.600  0.3349E-02  0.2400E-01
     -2.469  0.3156E-02  0.2442E-01
     -2.338  0.3162E-02  0.2484E-01
     -2.207  0.3223E-02  0.2526E-01
     -2.076  0.3413E-02  0.2569E-01
     -1.945  0.3585E-02  0.2615E-01
     -1.813  0.3971E-02  0.2664E-01
     -1.682  0.3661E-02  0.2715E-01
     -1.551  0.3362E-02  0.2761E-01
     -1.420  0.3164E-02  0.2804E-01
     -1.289  0.3134E-02  0.2845E-01
     -1.158  0.3209E-02  0.2887E-01
     -1.026  0.3510E-02  0.2930E-01
     -0.895  0.3657E-02  0.2978E-01
     -0.764  0.3718E-02  0.3026E-01
     -0.633  0.3906E-02  0.3076E-01
     -0.502  0.4539E-02  0.3130E-01
     -0.370  0.4451E-02  0.3191E-01
     -0.239  0.4444E-02  0.3249E-01
     -0.108  0.4523E-02  0.3307E-01
      0.023  0.4572E-02  0.3367E-01
      0.154  0.4580E-02  0.3427E-01
      0.285  0.4557E-02  0.3487E-01
      0.417  0.4423E-02  0.3546E-01
      0.548  0.4555E-02  0.3605E-01
      0.679  0.4891E-02  0.3666E-01
      0.810  0.5377E-02  0.3734E-01
      0.941  0.5230E-02  0.3810E-01
      1.073  0.4665E-02  0.3875E-01
      1.204  0.4509E-02  0.3935E-01
      1.335  0.4791E-02  0.3995E-01
      1.466  0.5229E-02  0.4061E-01
      1.597  0.5416E-02  0.4131E-01
      1.728  0.5645E-02  0.4204E-01
      1.860  0.5798E-02  0.4279E-01
      1.991  0.5644E-02  0.4354E-01
      2.122  0.5872E-02  0.4428E-01
      2.253  0.6638E-02  0.4509E-01
      2.384  0.7340E-02  0.4602E-01
      2.516  0.6816E-02  0.4695E-01
      2.647  0.6751E-02  0.4783E-01
      2.778  0.6942E-02  0.4874E-01
      2.909  0.6966E-02  0.4965E-01
      3.040  0.7237E-02  0.5058E-01
      3.171  0.7323E-02  0.5154E-01
      3.303  0.7109E-02  0.5248E-01
      3.434  0.7076E-02  0.5341E-01
      3.565  0.7130E-02  0.5435E-01
      3.696  0.7128E-02  0.5529E-01
      3.827  0.6358E-02  0.5617E-01
      3.958  0.6899E-02  0.5703E-01
      4.090  0.6814E-02  0.5794E-01
      4.221  0.6210E-02  0.5880E-01
      4.352  0.5965E-02  0.5960E-01
      4.483  0.5825E-02  0.6037E-01
      4.614  0.5420E-02  0.6111E-01
      4.746  0.5317E-02  0.6181E-01
      4.877  0.5461E-02  0.6252E-01
      5.008  0.5166E-02  0.6322E-01
      5.139  0.4869E-02  0.6387E-01
      5.270  0.4724E-02  0.6450E-01
      5.401  0.4512E-02  0.6511E-01
      5.533  0.4449E-02  0.6570E-01
      5.664  0.4511E-02  0.6629E-01
      5.795  0.4429E-02  0.6687E-01
      5.926  0.4213E-02  0.6744E-01
      6.057  0.3939E-02  0.6798E-01
      6.189  0.3557E-02  0.6847E-01
      6.320  0.3213E-02  0.6892E-01
      6.451  0.3032E-02  0.6932E-01
      6.582  0.2771E-02  0.6971E-01
      6.713  0.2482E-02  0.7005E-01
      6.844  0.2085E-02  0.7035E-01
      6.976  0.1986E-02  0.7061E-01
      7.107  0.2107E-02  0.7088E-01
      7.238  0.2117E-02  0.7115E-01
      7.369  0.2223E-02  0.7144E-01
      7.500  0.2387E-02  0.7174E-01
      7.632  0.2512E-02  0.7206E-01
      7.763  0.2634E-02  0.7240E-01
      7.894  0.2845E-02  0.7276E-01
      8.025  0.3157E-02  0.7315E-01
      8.156  0.3434E-02  0.7358E-01
      8.287  0.3822E-02  0.7406E-01
      8.419  0.4005E-02  0.7457E-01
      8.550  0.3929E-02  0.7510E-01
      8.681  0.3700E-02  0.7560E-01
      8.812  0.3645E-02  0.7608E-01
      8.943  0.3668E-02  0.7656E-01
      9.074  0.3759E-02  0.7705E-01
      9.206  0.3574E-02  0.7753E-01
      9.337  0.3318E-02  0.7798E-01
      9.468  0.3189E-02  0.7841E-01
      9.599  0.3030E-02  0.7882E-01
      9.730  0.3043E-02  0.7921E-01
      9.862  0.2541E-02  0.7958E-01
      9.993  0.2108E-02  0.7988E-01
     10.124  0.1441E-02  0.8011E-01
     10.255  0.1187E-02  0.8028E-01
     10.386  0.9334E-03  0.8042E-01
     10.517  0.8184E-03  0.8053E-01
     10.649  0.9157E-03  0.8065E-01
     10.780  0.1056E-02  0.8078E-01
     10.911  0.1164E-02  0.8092E-01
     11.042  0.1293E-02  0.8108E-01
     11.173  0.1448E-02  0.8126E-01
     11.305  0.1603E-02  0.8146E-01
     11.436  0.2544E-02  0.8169E-01
     11.567  0.3157E-02  0.8203E-01
     11.698  0.3571E-02  0.8248E-01
     11.829  0.3441E-02  0.8294E-01
     11.960  0.3445E-02  0.8339E-01
     12.092  0.3512E-02  0.8386E-01
     12.223  0.3390E-02  0.8431E-01
     12.354  0.3407E-02  0.8475E-01
     12.485  0.3470E-02  0.8521E-01
     12.616  0.3405E-02  0.8565E-01
     12.748  0.3419E-02  0.8610E-01
     12.879  0.3294E-02  0.8655E-01
     13.010  0.2952E-02  0.8696E-01
     13.141  0.2766E-02  0.8733E-01
     13.272  0.2670E-02  0.8769E-01
     13.403  0.2595E-02  0.8803E-01
     13.535  0.2493E-02  0.8837E-01
     13.666  0.2375E-02  0.8868E-01
     13.797  0.2339E-02  0.8899E-01
     13.928  0.2370E-02  0.8930E-01
     14.059  0.2411E-02  0.8962E-01
     14.190  0.2460E-02  0.8993E-01
     14.322  0.2518E-02  0.9026E-01
     14.453  0.2632E-02  0.9060E-01
     14.584  0.2824E-02  0.9095E-01
     14.715  0.2988E-02  0.9134E-01
     14.846  0.3201E-02  0.9174E-01
     14.978  0.3567E-02  0.9218E-01
     15.109  0.3657E-02  0.9266E-01
     15.240  0.3848E-02  0.9315E-01
     15.371  0.4150E-02  0.9367E-01
     15.502  0.3832E-02  0.9421E-01
     15.633  0.3582E-02  0.9468E-01
     15.765  0.3567E-02  0.9515E-01
     15.896  0.3596E-02  0.9562E-01
     16.027  0.3677E-02  0.9610E-01
     16.158  0.3782E-02  0.9659E-01
     16.289  0.3805E-02  0.9709E-01
     16.421  0.3817E-02  0.9759E-01
     16.552  0.3894E-02  0.9809E-01
     16.683  0.4014E-02  0.9861E-01
     16.814  0.4102E-02  0.9914E-01
     16.945  0.4243E-02  0.9969E-01
     17.076  0.4472E-02  0.1003E+00
     17.208  0.4544E-02  0.1009E+00
     17.339  0.5021E-02  0.1015E+00
     17.470  0.4106E-02  0.1021E+00
     17.601  0.4223E-02  0.1026E+00
     17.732  0.4310E-02  0.1032E+00
     17.864  0.3848E-02  0.1037E+00
     17.995  0.3344E-02  0.1042E+00
     18.126  0.3705E-02  0.1046E+00
     18.257  0.5396E-02  0.1052E+00
     18.388  0.7140E-02  0.1060E+00
     18.519  0.5905E-02  0.1069E+00
     18.651  0.5760E-02  0.1076E+00
     18.782  0.4520E-02  0.1083E+00
     18.913  0.4290E-02  0.1089E+00
     19.044  0.4245E-02  0.1095E+00
     19.175  0.4304E-02  0.1100E+00
     19.306  0.4938E-02  0.1106E+00
     19.438  0.5878E-02  0.1113E+00
     19.569  0.6316E-02  0.1121E+00
     19.700  0.5656E-02  0.1129E+00
     19.831  0.5815E-02  0.1137E+00
     19.962  0.5505E-02  0.1144E+00
     20.094  0.4428E-02  0.1151E+00
     20.225  0.3764E-02  0.1156E+00
     20.356  0.3298E-02  0.1161E+00
     20.487  0.2603E-02  0.1165E+00
     20.618  0.2474E-02  0.1168E+00
     20.749  0.2500E-02  0.1171E+00
     20.881  0.2469E-02  0.1174E+00
     21.012  0.3151E-02  0.1178E+00
     21.143  0.2840E-02  0.1181E+00
     21.274  0.1892E-02  0.1184E+00
     21.405  0.1774E-02  0.1187E+00
     21.537  0.1861E-02  0.1189E+00
     21.668  0.1273E-02  0.1191E+00
     21.799  0.9161E-03  0.1193E+00
     21.930  0.7867E-03  0.1194E+00
     22.061  0.6813E-03  0.1195E+00
     22.192  0.6243E-03  0.1196E+00
     22.324  0.5551E-03  0.1196E+00
     22.455  0.4908E-03  0.1197E+00
     22.586  0.4337E-03  0.1198E+00
     22.717  0.3834E-03  0.1198E+00
     22.848  0.4969E-03  0.1199E+00
     22.980  0.2859E-03  0.1200E+00
     23.111  0.9582E-04  0.1200E+00
     23.242  0.1309E-04  0.1200E+00
     23.373  0.0000E+00  0.1200E+00
     23.504  0.0000E+00  0.1200E+00
     23.635  0.0000E+00  0.1200E+00
     23.767  0.0000E+00  0.1200E+00
     23.898  0.0000E+00  0.1200E+00
     24.029  0.0000E+00  0.1200E+00
     24.160  0.0000E+00  0.1200E+00
     24.291  0.0000E+00  0.1200E+00
     24.422  0.0000E+00  0.1200E+00
     24.554  0.0000E+00  0.1200E+00
     24.685  0.0000E+00  0.1200E+00
     24.816  0.0000E+00  0.1200E+00
     24.947  0.0000E+00  0.1200E+00
     25.078  0.0000E+00  0.1200E+00
     25.210  0.0000E+00  0.1200E+00
     25.341  0.0000E+00  0.1200E+00
