    4    4  200    1
  0.8119452E+01  0.2466437E-09  0.2466437E-09  0.6167528E-09  0.5000000E-15
  1.000000000000000E-004
  CAR 
 graphite                                
     16    455     12
 
  0.0000000E+00  0.0000000E+00  0.0000000E+00  0.3858025E-03
    1      -14.298512
    2      -13.739921
    3       -3.456901
    4       -0.505970
    5        2.452302
    6        2.468933
    7        2.495830
    8        2.511106
    9       10.617547
   10       13.770217
   11       13.776422
   12       13.877691
 
  0.5555556E-01  0.0000000E+00  0.0000000E+00  0.1543210E-02
    1      -14.224323
    2      -13.667947
    3       -3.366801
    4       -0.424027
    5        2.158222
    6        2.216442
    7        2.294652
    8        2.348769
    9       10.701860
   10       13.801149
   11       13.928159
   12       14.088752
 
  0.1111111E+00  0.0000000E+00  0.0000000E+00  0.1543210E-02
    1      -14.002133
    2      -13.452542
    3       -3.097554
    4       -0.179603
    5        1.321517
    6        1.414704
    7        1.868534
    8        1.942202
    9       10.955894
   10       13.799853
   11       14.004774
   12       14.980237
 
  0.1666667E+00  0.0000000E+00  0.0000000E+00  0.1543210E-02
    1      -13.633072
    2      -13.094668
    3       -2.651367
    4        0.123840
    5        0.222855
    6        0.259334
    7        1.300417
    8        1.390345
    9       11.379750
   10       13.671476
   11       14.002054
   12       14.478877
 
  0.2222222E+00  0.2775558E-16  0.0000000E+00  0.1543210E-02
    1      -13.119038
    2      -12.596224
    3       -2.033013
    4       -1.275189
    5       -1.094874
    6        0.699499
    7        0.774115
    8        0.801089
    9       11.967099
   10       13.006582
   11       13.437481
   12       13.898861
 
  0.2777778E+00  0.5551115E-16  0.0000000E+00  0.1543210E-02
    1      -12.463295
    2      -11.960142
    3       -2.759814
    4       -2.535126
    5       -1.251094
    6        0.141604
    7        0.251193
    8        1.456321
    9       11.378726
   10       12.540341
   11       12.677424
   12       13.187584
 
  0.3333333E+00 -0.2775558E-16  0.0000000E+00  0.1543210E-02
    1      -11.670753
    2      -11.191597
    3       -4.251760
    4       -3.984724
    5       -0.326479
    6       -0.321608
    7       -0.211651
    8        2.231070
    9        9.737336
   10       11.132465
   11       12.857886
   12       13.361944
 
  0.3888889E+00  0.2775558E-16  0.0000000E+00  0.1543210E-02
    1      -10.750809
    2      -10.301328
    3       -5.695101
    4       -5.390531
    5       -0.676305
    6       -0.558164
    7        0.721019
    8        2.999473
    9        8.255881
   10        9.761211
   11       12.671092
   12       13.323198
 
  0.4444444E+00  0.5551115E-16  0.0000000E+00  0.1543210E-02
    1       -9.729602
    2       -9.324952
    3       -7.024252
    4       -6.700396
    5       -0.892084
    6       -0.771652
    7        1.780638
    8        3.484101
    9        7.261891
   10        8.554766
   11       12.545395
   12       13.242811
 
  0.5000000E+00  0.0000000E+00  0.0000000E+00  0.7716049E-03
    1       -8.903397
    2       -8.689489
    3       -7.780025
    4       -7.623195
    5       -0.964724
    6       -0.843694
    7        2.416123
    8        3.452115
    9        7.065550
   10        7.923769
   11       12.502072
   12       13.212802
 
  0.5555556E-01  0.5555556E-01  0.0000000E+00  0.7716049E-03
    1      -14.076011
    2      -13.524125
    3       -3.186985
    4       -0.260731
    5        1.627804
    6        1.683591
    7        1.984381
    8        2.031491
    9       10.871542
   10       13.900674
   11       14.050847
   12       14.607947
 
  0.1111111E+00  0.5555556E-01  0.0000000E+00  0.1543210E-02
    1      -13.780304
    2      -13.237435
    3       -2.829147
    4        0.062974
    5        0.662839
    6        0.756242
    7        1.432199
    8        1.502097
    9       11.212390
   10       13.967565
   11       14.207009
   12       14.960297
 
  0.1666667E+00  0.5555556E-01  0.0000000E+00  0.1543210E-02
    1      -13.338642
    2      -12.809151
    3       -2.296522
    4       -0.598207
    5       -0.452542
    6        0.540548
    7        0.799165
    8        0.894210
    9       11.722585
   10       13.661952
   11       13.846413
   12       14.227838
 
  0.2222222E+00  0.5555556E-01  0.0000000E+00  0.1543210E-02
    1      -12.753645
    2      -12.241718
    3       -2.016328
    4       -1.821056
    5       -1.595577
    6        0.189467
    7        0.300662
    8        1.159388
    9       12.135163
   10       12.391605
   11       13.109465
   12       13.613772
 
  0.2777778E+00  0.5555556E-01  0.0000000E+00  0.1543210E-02
    1      -12.029238
    2      -11.539216
    3       -3.490829
    4       -3.249393
    5       -0.737983
    6       -0.341041
    7       -0.219817
    8        1.894047
    9       10.512682
   10       11.741313
   11       13.124260
   12       13.420369
 
  0.3333333E+00  0.5555556E-01  0.0000000E+00  0.1543210E-02
    1      -11.172192
    2      -10.708957
    3       -4.951442
    4       -4.668182
    5       -0.759752
    6       -0.632278
    7        0.253649
    8        2.685431
    9        8.943530
   10       10.364981
   11       13.082111
   12       13.677717
 
  0.3888889E+00  0.5555556E-01  0.0000000E+00  0.1543210E-02
    1      -10.197189
    2       -9.768053
    3       -6.341396
    4       -6.024981
    5       -1.047810
    6       -0.916567
    7        1.324833
    8        3.367462
    9        7.657387
   10        9.070149
   11       12.923028
   12       13.607640
 
  0.4444444E+00  0.5555556E-01  0.0000000E+00  0.1543210E-02
    1       -9.170939
    2       -8.826321
    3       -7.524462
    4       -7.234915
    5       -1.194537
    6       -1.061356
    7        2.284623
    8        3.561973
    9        7.085682
   10        8.058180
   11       12.837713
   12       13.551876
 
  0.5000000E+00  0.5555556E-01  0.0000000E+00  0.1543210E-02
    1       -9.172444
    2       -8.827544
    3       -7.523075
    4       -7.233131
    5       -1.194952
    6       -1.061746
    7        2.283770
    8        3.562175
    9        7.084903
   10        8.059636
   11       12.838183
   12       13.552353
 
 -0.4444444E+00  0.5555556E-01  0.0000000E+00  0.1543210E-02
    1      -10.198776
    2       -9.769622
    3       -6.339221
    4       -6.022703
    5       -1.049024
    6       -0.917713
    7        1.323559
    8        3.366906
    9        7.656994
   10        9.072386
   11       12.924425
   12       13.609014
 
 -0.3888889E+00  0.5555556E-01  0.0000000E+00  0.1543210E-02
    1      -11.173596
    2      -10.710353
    3       -4.949113
    4       -4.665729
    5       -0.761660
    6       -0.634161
    7        0.252391
    8        2.684446
    9        8.943216
   10       10.367333
   11       13.084362
   12       13.679380
 
 -0.3333333E+00  0.5555556E-01  0.0000000E+00  0.1543210E-02
    1      -12.030417
    2      -11.540395
    3       -3.488480
    4       -3.246999
    5       -0.739119
    6       -0.343410
    7       -0.221951
    8        1.893013
    9       10.511809
   10       11.743633
   11       13.124193
   12       13.422041
 
 -0.2777778E+00  0.5555556E-01  0.0000000E+00  0.1543210E-02
    1      -12.754618
    2      -12.242683
    3       -2.014366
    4       -1.818984
    5       -1.596541
    6        0.187202
    7        0.298426
    8        1.158469
    9       12.133270
   10       12.390269
   11       13.111694
   12       13.617347
 
 -0.2222222E+00  0.5555556E-01  0.0000000E+00  0.1543210E-02
    1      -13.339397
    2      -12.809901
    3       -2.297292
    4       -0.597529
    5       -0.451853
    6        0.539796
    7        0.798250
    8        0.893023
    9       11.721473
   10       13.658880
   11       13.850121
   12       14.232441
 
 -0.1666667E+00  0.5555556E-01  0.0000000E+00  0.1543210E-02
    1      -13.780843
    2      -13.237967
    3       -2.829706
    4        0.062422
    5        0.660080
    6        0.753295
    7        1.435263
    8        1.504184
    9       11.211555
   10       13.970417
   11       14.211538
   12       14.959545
 
 -0.1111111E+00  0.5555556E-01  0.0000000E+00  0.1543210E-02
    1      -14.076338
    2      -13.524456
    3       -3.187324
    4       -0.261067
    5        1.617403
    6        1.674672
    7        1.994156
    8        2.040808
    9       10.871013
   10       13.901815
   11       14.054345
   12       14.617089
 
 -0.5555556E-01  0.5555556E-01  0.0000000E+00  0.7716049E-03
    1      -14.224431
    2      -13.668053
    3       -3.366914
    4       -0.424140
    5        2.145795
    6        2.204917
    7        2.306967
    8        2.360467
    9       10.701679
   10       13.800679
   11       13.928530
   12       14.090890
 
  0.1111111E+00  0.1111111E+00  0.0000000E+00  0.7716049E-03
    1      -13.411994
    2      -12.880287
    3       -2.384624
    4       -0.236414
    5       -0.153055
    6        0.462215
    7        0.733721
    8        0.794542
    9       11.642426
   10       13.921786
   11       14.378450
   12       14.623472
 
  0.1666667E+00  0.1111111E+00  0.0000000E+00  0.1543210E-02
    1      -12.899385
    2      -12.383068
    3       -1.768866
    4       -1.399077
    5       -1.267840
    6       -0.023560
    7        0.068293
    8        1.009172
    9       12.241744
   10       12.623341
   11       13.380914
   12       14.505813
 
  0.2222222E+00  0.1111111E+00  0.0000000E+00  0.1543210E-02
    1      -12.245621
    2      -11.749082
    3       -2.744645
    4       -2.549500
    5       -0.990150
    6       -0.683265
    7       -0.557582
    8        1.686981
    9       11.146521
   10       12.105215
   11       12.999147
   12       14.344209
 
  0.2777778E+00  0.1111111E+00  0.0000000E+00  0.1543210E-02
    1      -11.456279
    2      -10.983977
    3       -4.157242
    4       -3.908637
    5       -1.204080
    6       -1.058806
    7       -0.064305
    8        2.459512
    9        9.611244
   10       10.795193
   11       13.846212
   12       14.164615
 
  0.3333333E+00  0.1111111E+00  0.0000000E+00  0.1543210E-02
    1      -10.541233
    2      -10.098552
    3       -5.553781
    4       -5.262290
    5       -1.580284
    6       -1.424539
    7        0.975670
    8        3.234719
    9        8.188956
   10        9.507792
   11       13.884535
   12       14.536261
 
  0.3888889E+00  0.1111111E+00  0.0000000E+00  0.1543210E-02
    1       -9.527726
    2       -9.130237
    3       -6.854772
    4       -6.540625
    5       -1.808249
    6       -1.647238
    7        2.037487
    8        3.738693
    9        7.219662
   10        8.343992
   11       13.762193
   12       14.497963
 
  0.4444444E+00  0.1111111E+00  0.0000000E+00  0.1543210E-02
    1       -8.713328
    2       -8.502620
    3       -7.595149
    4       -7.445235
    5       -1.885161
    6       -1.722356
    7        2.681617
    8        3.707334
    9        7.071756
   10        7.684883
   11       13.719009
   12       14.472066
 
  0.5000000E+00  0.1111111E+00  0.0000000E+00  0.1543210E-02
    1       -9.530991
    2       -9.133385
    3       -6.850865
    4       -6.536388
    5       -1.809684
    6       -1.648590
    7        2.035148
    8        3.738404
    9        7.217701
   10        8.348503
   11       13.763813
   12       14.499585
 
 -0.4444444E+00  0.1111111E+00  0.0000000E+00  0.1543210E-02
    1      -10.544234
    2      -10.101541
    3       -5.549275
    4       -5.257545
    5       -1.583015
    6       -1.427105
    7        0.973123
    8        3.232995
    9        8.187772
   10        9.512805
   11       13.887715
   12       14.538250
 
 -0.3888889E+00  0.1111111E+00  0.0000000E+00  0.1543210E-02
    1      -11.458874
    2      -10.986559
    3       -4.152700
    4       -3.903815
    5       -1.207687
    6       -1.062219
    7       -0.066687
    8        2.457416
    9        9.609271
   10       10.800314
   11       13.844520
   12       14.167479
 
 -0.3333333E+00  0.1111111E+00  0.0000000E+00  0.1543210E-02
    1      -12.247782
    2      -11.751232
    3       -2.740917
    4       -2.545463
    5       -0.992238
    6       -0.686684
    7       -0.560918
    8        1.684989
    9       11.142636
   10       12.110326
   11       12.996168
   12       14.350384
 
 -0.2777778E+00  0.1111111E+00  0.0000000E+00  0.1543210E-02
    1      -12.901109
    2      -12.384776
    3       -1.770591
    4       -1.398251
    5       -1.266612
    6       -0.024322
    7        0.067345
    8        1.007474
    9       12.239290
   10       12.617169
   11       13.385714
   12       14.513893
 
 -0.2222222E+00  0.1111111E+00  0.0000000E+00  0.1543210E-02
    1      -13.413287
    2      -12.881567
    3       -2.385948
    4       -0.242488
    5       -0.157126
    6        0.460894
    7        0.738615
    8        0.799897
    9       11.640536
   10       13.914322
   11       14.390479
   12       14.593842
 
 -0.1666667E+00  0.1111111E+00  0.0000000E+00  0.1543210E-02
    1      -13.781175
    2      -13.238290
    3       -2.830043
    4        0.062075
    5        0.650728
    6        0.745703
    7        1.443657
    8        1.513703
    9       11.211082
   10       13.980943
   11       14.220381
   12       14.953432
 
 -0.1111111E+00  0.1111111E+00  0.0000000E+00  0.7716049E-03
    1      -14.002562
    2      -13.452967
    3       -3.098005
    4       -0.180057
    5        1.308286
    6        1.402197
    7        1.881976
    8        1.955192
    9       10.955222
   10       13.809134
   11       14.013678
   12       14.983841
 
  0.1666667E+00  0.1666667E+00  0.0000000E+00  0.7716049E-03
    1      -12.317990
    2      -11.819265
    3       -2.313229
    4       -2.201759
    5       -1.074693
    6       -0.937002
    7       -0.855394
    8        1.617215
    9       11.416018
   10       12.206139
   11       12.928318
   12       15.303734
 
  0.2222222E+00  0.1666667E+00  0.0000000E+00  0.1543210E-02
    1      -11.599131
    2      -11.122341
    3       -3.454740
    4       -3.284624
    5       -1.723144
    6       -1.599584
    7       -0.225081
    8        2.341952
    9       10.074521
   10       10.981303
   11       13.768710
   12       15.447985
 
  0.2777778E+00  0.1666667E+00  0.0000000E+00  0.1543210E-02
    1      -10.750705
    2      -10.300698
    3       -4.743937
    4       -4.502583
    5       -2.280220
    6       -2.114493
    7        0.758554
    8        3.133744
    9        8.692034
   10        9.765682
   11       14.730924
   12       15.287928
 
  0.3333333E+00  0.1666667E+00  0.0000000E+00  0.1543210E-02
    1       -9.788343
    2       -9.372857
    3       -6.042397
    4       -5.753441
    5       -2.629140
    6       -2.443182
    7        1.827057
    8        3.846971
    9        7.487118
   10        8.600389
   11       15.076492
   12       15.758992
 
  0.3888889E+00  0.1666667E+00  0.0000000E+00  0.1543210E-02
    1       -8.781068
    2       -8.448915
    3       -7.175475
    4       -6.905725
    5       -2.798875
    6       -2.604993
    7        2.802780
    8        4.073874
    9        6.981010
   10        7.596670
   11       14.993743
   12       15.845756
 
  0.4444444E+00  0.1666667E+00  0.0000000E+00  0.1543210E-02
    1       -8.785593
    2       -8.452605
    3       -7.171427
    4       -6.900321
    5       -2.799784
    6       -2.605867
    7        2.800215
    8        4.074575
    9        6.975407
   10        7.603904
   11       14.994700
   12       15.846647
 
  0.5000000E+00  0.1666667E+00  0.0000000E+00  0.1543210E-02
    1       -9.793101
    2       -9.377597
    3       -6.036141
    4       -5.746668
    5       -2.631738
    6       -2.445558
    7        1.823320
    8        3.845073
    9        7.483498
   10        8.608730
   11       15.079311
   12       15.756680
 
 -0.4444444E+00  0.1666667E+00  0.0000000E+00  0.1543210E-02
    1      -10.754904
    2      -10.304891
    3       -4.737674
    4       -4.495737
    5       -2.283732
    6       -2.117776
    7        0.754904
    8        3.130600
    9        8.687994
   10        9.774332
   11       14.725500
   12       15.292114
 
 -0.3888889E+00  0.1666667E+00  0.0000000E+00  0.1543210E-02
    1      -11.602695
    2      -11.125900
    3       -3.450495
    4       -3.279484
    5       -1.725717
    6       -1.601869
    7       -0.228392
    8        2.338739
    9       10.068026
   10       10.989972
   11       13.763758
   12       15.455953
 
 -0.3333333E+00  0.1666667E+00  0.0000000E+00  0.1543210E-02
    1      -12.320875
    2      -11.822157
    3       -2.315199
    4       -2.201123
    5       -1.077523
    6       -0.935391
    7       -0.852258
    8        1.614359
    9       11.406972
   10       12.213734
   11       12.924293
   12       15.323315
 
 -0.2777778E+00  0.1666667E+00  0.0000000E+00  0.1543210E-02
    1      -12.901643
    2      -12.385309
    3       -1.771131
    4       -1.407229
    5       -1.273745
    6       -0.015684
    7        0.077276
    8        1.006853
    9       12.238620
   10       12.613287
   11       13.385813
   12       14.532568
 
 -0.2222222E+00  0.1666667E+00  0.0000000E+00  0.1543210E-02
    1      -13.340246
    2      -12.810749
    3       -2.298170
    4       -0.610144
    5       -0.463392
    6        0.538858
    7        0.811917
    8        0.906959
    9       11.720337
   10       13.652459
   11       13.870158
   12       14.250491
 
 -0.1666667E+00  0.1666667E+00  0.0000000E+00  0.7716049E-03
    1      -13.634036
    2      -13.095626
    3       -2.652369
    4        0.110313
    5        0.221822
    6        0.246480
    7        1.315008
    8        1.404618
    9       11.378370
   10       13.690167
   11       14.019515
   12       14.471256
 
  0.2222222E+00  0.2222222E+00  0.0000000E+00  0.7716049E-03
    1      -10.820694
    2      -10.368597
    3       -4.244120
    4       -4.105882
    5       -2.678402
    6       -2.575566
    7        0.685120
    8        3.096664
    9        8.918737
   10        9.830502
   11       14.676856
   12       16.559889
 
  0.2777778E+00  0.2222222E+00  0.0000000E+00  0.1543210E-02
    1       -9.922307
    2       -9.500249
    3       -5.276968
    4       -5.071279
    5       -3.366185
    6       -3.210857
    7        1.711806
    8        3.886131
    9        7.730835
   10        8.722714
   11       15.690380
   12       16.588753
 
  0.3333333E+00  0.2222222E+00  0.0000000E+00  0.1543210E-02
    1       -8.933518
    2       -8.556590
    3       -6.415831
    4       -6.150508
    5       -3.733290
    6       -3.533625
    7        2.778645
    8        4.476392
    9        6.802625
   10        7.696360
   11       16.399653
   12       16.799356
 
  0.3888889E+00  0.2222222E+00  0.0000000E+00  0.1543210E-02
    1       -8.144877
    2       -7.943846
    3       -7.097770
    4       -6.988451
    5       -3.845874
    6       -3.634026
    7        3.463011
    8        4.449421
    9        6.786905
   10        6.953391
   11       16.365614
   12       17.458547
 
  0.4444444E+00  0.2222222E+00  0.0000000E+00  0.1543210E-02
    1       -8.940031
    2       -8.562985
    3       -6.408592
    4       -6.142055
    5       -3.735036
    6       -3.534973
    7        2.774199
    8        4.475500
    9        6.794487
   10        7.708491
   11       16.400863
   12       16.788004
 
  0.5000000E+00  0.2222222E+00  0.0000000E+00  0.1543210E-02
    1       -9.928259
    2       -9.506306
    3       -5.270188
    4       -5.063093
    5       -3.368380
    6       -3.212489
    7        1.707006
    8        3.882015
    9        7.724109
   10        8.735080
   11       15.681695
   12       16.592078
 
 -0.4444444E+00  0.2222222E+00  0.0000000E+00  0.1543210E-02
    1      -10.825879
    2      -10.373805
    3       -4.242513
    4       -4.101020
    5       -2.678019
    6       -2.573127
    7        0.680602
    8        3.091996
    9        8.910195
   10        9.842123
   11       14.669635
   12       16.580595
 
 -0.3888889E+00  0.2222222E+00  0.0000000E+00  0.1543210E-02
    1      -11.603447
    2      -11.126665
    3       -3.459075
    4       -3.286214
    5       -1.717157
    6       -1.591875
    7       -0.229080
    8        2.337664
    9       10.064492
   10       10.990052
   11       13.762929
   12       15.483246
 
 -0.3333333E+00  0.2222222E+00  0.0000000E+00  0.1543210E-02
    1      -12.249068
    2      -11.752522
    3       -2.752979
    4       -2.556584
    5       -0.993486
    6       -0.672525
    7       -0.546310
    8        1.683371
    9       11.135994
   10       12.109807
   11       12.994783
   12       14.377540
 
 -0.2777778E+00  0.2222222E+00  0.0000000E+00  0.1543210E-02
    1      -12.756225
    2      -12.244284
    3       -2.027648
    4       -1.831554
    5       -1.598146
    6        0.203453
    7        0.314603
    8        1.156611
    9       12.124692
   10       12.388510
   11       13.110629
   12       13.643341
 
 -0.2222222E+00  0.2222222E+00  0.0000000E+00  0.7716049E-03
    1      -13.120754
    2      -12.597929
    3       -2.034756
    4       -1.288368
    5       -1.107471
    6        0.715241
    7        0.772234
    8        0.816581
    9       11.964960
   10       12.997081
   11       13.462722
   12       13.922661
 
  0.2777778E+00  0.2777778E+00  0.0000000E+00  0.7716049E-03
    1       -8.991122
    2       -8.606173
    3       -5.890792
    4       -5.728283
    5       -4.218673
    6       -4.106713
    7        2.758017
    8        4.649080
    9        6.722351
   10        7.748714
   11       16.681741
   12       17.711595
 
  0.3333333E+00  0.2777778E+00  0.0000000E+00  0.1543210E-02
    1       -8.024492
    2       -7.714158
    3       -6.711428
    4       -6.519563
    5       -4.674634
    6       -4.518831
    7        3.769227
    8        5.047351
    9        6.042005
   10        6.941546
   11       17.185679
   12       17.363435
 
  0.3888889E+00  0.2777778E+00  0.0000000E+00  0.1543210E-02
    1       -8.032299
    2       -7.721087
    3       -6.705878
    4       -6.509979
    5       -4.674994
    6       -4.518792
    7        3.765361
    8        5.049512
    9        6.031635
   10        6.952332
   11       17.180140
   12       17.413403
 
  0.4444444E+00  0.2777778E+00  0.0000000E+00  0.1543210E-02
    1       -8.999136
    2       -8.614352
    3       -5.886279
    4       -5.719953
    5       -4.218042
    6       -4.103729
    7        2.752739
    8        4.643564
    9        6.714777
   10        7.762895
   11       16.669675
   12       17.692265
 
  0.5000000E+00  0.2777778E+00  0.0000000E+00  0.1543210E-02
    1       -9.929296
    2       -9.507428
    3       -5.277565
    4       -5.068910
    5       -3.360719
    6       -3.203344
    7        1.706393
    8        3.879387
    9        7.722714
   10        8.735197
   11       15.680864
   12       16.626571
 
 -0.4444444E+00  0.2777778E+00  0.0000000E+00  0.1543210E-02
    1      -10.756664
    2      -10.306708
    3       -4.748403
    4       -4.505553
    5       -2.270295
    6       -2.103848
    7        0.753515
    8        3.127456
    9        8.683373
   10        9.773811
   11       14.724690
   12       15.324705
 
 -0.3888889E+00  0.2777778E+00  0.0000000E+00  0.1543210E-02
    1      -11.461139
    2      -10.988861
    3       -4.164796
    4       -3.915324
    5       -1.191202
    6       -1.045728
    7       -0.068713
    8        2.454155
    9        9.602052
   10       10.798538
   11       13.847482
   12       14.194854
 
 -0.3333333E+00  0.2777778E+00  0.0000000E+00  0.1543210E-02
    1      -12.032994
    2      -11.542982
    3       -3.500998
    4       -3.258956
    5       -0.741563
    6       -0.325815
    7       -0.204544
    8        1.889793
    9       10.502871
   10       11.741092
   11       13.129655
   12       13.446122
 
 -0.2777778E+00  0.2777778E+00  0.0000000E+00  0.7716049E-03
    1      -12.465979
    2      -11.962819
    3       -2.772085
    4       -2.546891
    5       -1.253725
    6        0.158378
    7        0.267744
    8        1.453246
    9       11.368774
   10       12.538603
   11       12.676705
   12       13.215799
 
  0.3333333E+00  0.3333333E+00  0.0000000E+00  0.7716049E-03
    1       -7.284136
    2       -7.097174
    3       -7.094079
    4       -6.908616
    5       -5.034610
    6       -5.032825
    7        4.445466
    8        5.379173
    9        5.392729
   10        6.607003
   11       17.014846
   12       17.047321
 
  0.3888889E+00  0.3333333E+00  0.0000000E+00  0.1543210E-02
    1       -8.034652
    2       -7.725577
    3       -6.707289
    4       -6.512769
    5       -4.669935
    6       -4.511988
    7        3.766489
    8        5.034692
    9        6.040439
   10        6.954183
   11       17.160396
   12       17.386198
 
  0.4444444E+00  0.3333333E+00  0.0000000E+00  0.1543210E-02
    1       -8.942713
    2       -8.566408
    3       -6.415844
    4       -6.149283
    5       -3.723879
    6       -3.523228
    7        2.773904
    8        4.464719
    9        6.797826
   10        7.708602
   11       16.432555
   12       16.791924
 
  0.5000000E+00  0.3333333E+00  0.0000000E+00  0.1543210E-02
    1       -9.796243
    2       -9.381064
    3       -6.045774
    4       -5.756084
    5       -2.616833
    6       -2.430581
    7        1.821686
    8        3.836968
    9        7.481966
   10        8.607196
   11       15.113009
   12       15.771594
 
 -0.4444444E+00  0.3333333E+00  0.0000000E+00  0.1543210E-02
    1      -10.547776
    2      -10.105236
    3       -5.559976
    4       -5.267963
    5       -1.565766
    6       -1.409988
    7        0.970514
    8        3.226465
    9        8.182802
   10        9.509601
   11       13.919936
   12       14.566870
 
 -0.3888889E+00  0.3333333E+00  0.0000000E+00  0.1543210E-02
    1      -11.177400
    2      -10.714247
    3       -4.960182
    4       -4.676469
    5       -0.743415
    6       -0.616117
    7        0.249149
    8        2.678884
    9        8.935928
   10       10.363323
   11       13.114999
   12       13.707162
 
 -0.3333333E+00  0.3333333E+00  0.0000000E+00  0.7716049E-03
    1      -11.674633
    2      -11.195506
    3       -4.262673
    4       -3.995218
    5       -0.325164
    6       -0.308867
    7       -0.194245
    8        2.226201
    9        9.728549
   10       11.129282
   11       12.887150
   12       13.383709
 
  0.3888889E+00  0.3888889E+00  0.0000000E+00  0.7716049E-03
    1       -8.153227
    2       -7.956718
    3       -7.096202
    4       -6.989639
    5       -3.834645
    6       -3.622368
    7        3.464912
    8        4.428721
    9        6.787732
   10        6.962295
   11       16.402157
   12       17.491920
 
  0.4444444E+00  0.3888889E+00  0.0000000E+00  0.1543210E-02
    1       -8.791322
    2       -8.460908
    3       -7.176012
    4       -6.906810
    5       -2.784965
    6       -2.590911
    7        2.800806
    8        4.055955
    9        6.982444
   10        7.600462
   11       15.031044
   12       15.883703
 
  0.5000000E+00  0.3888889E+00  0.0000000E+00  0.1543210E-02
    1       -9.536374
    2       -9.139604
    3       -6.858733
    4       -6.544628
    5       -1.792466
    6       -1.631519
    7        2.033242
    8        3.724476
    9        7.219633
   10        8.343360
   11       13.798435
   12       14.534340
 
 -0.4444444E+00  0.3888889E+00  0.0000000E+00  0.1543210E-02
    1      -10.204161
    2       -9.775345
    3       -6.348155
    4       -6.031568
    5       -1.030550
    6       -0.899445
    7        1.320150
    8        3.356526
    9        7.654550
   10        9.066732
   11       12.957563
   12       13.641982
 
 -0.3888889E+00  0.3888889E+00  0.0000000E+00  0.7716049E-03
    1      -10.756168
    2      -10.306839
    3       -5.704115
    4       -5.399395
    5       -0.658069
    6       -0.540098
    7        0.716820
    8        2.991395
    9        8.250369
   10        9.756598
   11       12.703775
   12       13.355364
 
  0.4444444E+00  0.4444444E+00  0.0000000E+00  0.7716049E-03
    1       -8.722649
    2       -8.516663
    3       -7.595258
    4       -7.448608
    5       -1.868466
    6       -1.705785
    7        2.683135
    8        3.684763
    9        7.081586
   10        7.676508
   11       13.754801
   12       14.508198
 
  0.5000000E+00  0.4444444E+00  0.0000000E+00  0.1543210E-02
    1       -9.180343
    2       -8.837811
    3       -7.527336
    4       -7.239029
    5       -1.176601
    6       -1.043576
    7        2.283195
    8        3.542521
    9        7.091817
   10        8.050245
   11       12.872493
   12       13.586723
 
 -0.4444444E+00  0.4444444E+00  0.0000000E+00  0.7716049E-03
    1       -9.736927
    2       -9.333072
    3       -7.030672
    4       -6.707074
    5       -0.873455
    6       -0.753233
    7        1.777340
    8        3.469375
    9        7.263520
   10        8.547685
   11       12.579214
   12       13.276576
 
  0.5000000E+00  0.5000000E+00  0.0000000E+00  0.3858025E-03
    1       -8.913037
    2       -8.703922
    3       -7.780542
    4       -7.627083
    5       -0.946003
    6       -0.825162
    7        2.417436
    8        3.429019
    9        7.075464
   10        7.911751
   11       12.536223
   12       13.246964
 