    4    4  200    1
  0.5674886E+01  0.2466437E-09  0.2466437E-09  0.4310638E-09  0.5000000E-15
  1.000000000000000E-004
  CAR 
 graphite                                
     16    455     12
 
  0.0000000E+00  0.0000000E+00  0.0000000E+00  0.3858025E-03
    1      -12.013099
    2       -7.840375
    3       -2.115877
    4        6.187499
    5        6.213833
    6        6.902318
    7        6.907518
    8        9.048783
    9       17.356373
   10       17.377848
   11       18.412605
   12       18.424474
 
  0.5555556E-01 -0.1040834E-16  0.0000000E+00  0.1543210E-02
    1      -11.935459
    2       -7.773111
    3       -2.024504
    4        5.822251
    5        5.979700
    6        6.684690
    7        6.810908
    8        9.107265
    9       17.312165
   10       17.652761
   11       18.460191
   12       18.757631
 
  0.1111111E+00 -0.2081668E-16  0.0000000E+00  0.1543210E-02
    1      -11.702718
    2       -7.571806
    3       -1.751501
    4        4.820762
    5        5.455569
    6        6.029195
    7        6.513018
    8        9.277917
    9       17.034033
   10       17.971459
   11       18.496367
   12       18.661079
 
  0.1666667E+00  0.1387779E-16  0.0000000E+00  0.1543210E-02
    1      -11.315988
    2       -7.237547
    3       -1.298784
    4        3.446202
    5        4.803091
    6        5.034721
    7        6.052747
    8        9.542649
    9       16.564069
   10       16.718421
   11       18.947266
   12       19.803335
 
  0.2222222E+00 -0.2775558E-16  0.0000000E+00  0.1543210E-02
    1      -10.777038
    2       -6.772368
    3       -0.670415
    4        1.885451
    5        3.833963
    6        4.141617
    7        5.527029
    8        9.852921
    9       15.228499
   10       16.042464
   11       19.171069
   12       19.471180
 
  0.2777778E+00  0.2775558E-16  0.0000000E+00  0.1543210E-02
    1      -10.088430
    2       -6.180193
    3        0.126330
    4        0.260464
    5        2.533389
    6        3.541990
    7        5.018562
    8       10.061015
    9       13.784216
   10       15.558067
   11       18.412655
   12       19.290747
 
  0.3333333E+00  0.2775558E-16  0.0000000E+00  0.1543210E-02
    1       -9.254891
    2       -5.469357
    3       -1.345813
    4        1.076460
    5        1.206843
    6        3.046262
    7        4.582559
    8        9.738017
    9       12.928042
   10       15.155511
   11       17.402831
   12       19.333124
 
  0.3888889E+00  0.0000000E+00  0.0000000E+00  0.1543210E-02
    1       -8.284357
    2       -4.677800
    3       -2.850601
    4       -0.094334
    5        2.145851
    6        2.678654
    7        4.252396
    8        8.640390
    9       12.989252
   10       14.857317
   11       16.459414
   12       19.336204
 
  0.4444444E+00 -0.5551115E-16  0.0000000E+00  0.1543210E-02
    1       -7.201236
    2       -4.573423
    3       -3.445192
    4       -1.331471
    5        2.453379
    6        3.223644
    7        4.047651
    8        7.354069
    9       13.473022
   10       14.674908
   11       15.631354
   12       19.327770
 
  0.5000000E+00  0.0000000E+00  0.0000000E+00  0.7716049E-03
    1       -6.322415
    2       -5.473207
    3       -2.611828
    4       -2.362116
    5        2.377167
    6        3.821679
    7        3.978171
    8        6.665330
    9       13.814484
   10       14.613582
   11       15.195671
   12       19.323250
 
  0.5555556E-01  0.5555556E-01  0.0000000E+00  0.7716049E-03
    1      -11.780100
    2       -7.638701
    3       -1.842220
    4        5.208956
    5        5.506199
    6        6.329464
    7        6.556286
    8        9.222250
    9       17.332505
   10       17.878990
   11       18.248408
   12       18.763057
 
  0.1111111E+00  0.5555556E-01  0.0000000E+00  0.1543210E-02
    1      -11.470304
    2       -7.370826
    3       -1.479238
    4        4.097647
    5        4.784339
    6        5.617754
    7        6.116886
    8        9.441474
    9       17.116040
   10       17.220577
   11       18.388037
   12       19.395225
 
  0.1666667E+00  0.5555556E-01  0.0000000E+00  0.1543210E-02
    1      -11.007366
    2       -6.970992
    3       -0.938431
    4        2.663249
    5        3.996141
    6        4.639937
    7        5.597492
    8        9.736658
    9       15.865827
   10       16.650857
   11       19.083751
   12       19.803745
 
  0.2222222E+00  0.5555556E-01  0.0000000E+00  0.1543210E-02
    1      -10.393439
    2       -6.442125
    3       -0.225360
    4        1.086901
    5        3.037856
    6        3.710588
    7        5.066090
    8       10.028571
    9       14.381289
   10       16.157287
   11       18.727476
   12       19.458050
 
  0.2777778E+00  0.5555556E-01  0.0000000E+00  0.1543210E-02
    1       -9.632076
    2       -5.789714
    3       -0.520630
    4        0.649653
    5        1.833482
    6        3.050155
    7        4.585682
    8       10.055601
    9       13.146532
   10       15.718021
   11       17.707379
   12       19.596257
 
  0.3333333E+00  0.5555556E-01  0.0000000E+00  0.1543210E-02
    1       -8.729468
    2       -5.029582
    3       -2.080638
    4        0.555756
    5        1.664794
    6        2.580476
    7        4.198251
    8        9.316433
    9       12.759025
   10       15.369695
   11       16.766432
   12       19.634005
 
  0.3888889E+00  0.5555556E-01  0.0000000E+00  0.1543210E-02
    1       -7.698310
    2       -4.316387
    3       -3.396877
    4       -0.698610
    5        2.268336
    6        2.761339
    7        3.928554
    8        8.038121
    9       13.067396
   10       15.130446
   11       15.929272
   12       19.634669
 
  0.4444444E+00  0.5555556E-01  0.0000000E+00  0.1543210E-02
    1       -6.603395
    2       -5.074321
    3       -2.978294
    4       -1.879134
    5        2.111424
    6        3.707487
    7        3.790339
    8        6.924083
    9       13.492841
   10       15.009304
   11       15.316083
   12       19.628756
 
  0.5000000E+00  0.5555556E-01  0.0000000E+00  0.1543210E-02
    1       -6.604828
    2       -5.072794
    3       -2.980355
    4       -1.876664
    5        2.110881
    6        3.706981
    7        3.790002
    8        6.924661
    9       13.487431
   10       15.009857
   11       15.322535
   12       19.629209
 
 -0.4444444E+00  0.5555556E-01  0.0000000E+00  0.1543210E-02
    1       -7.699825
    2       -4.316912
    3       -3.396269
    4       -0.695693
    5        2.266748
    6        2.760460
    7        3.927547
    8        8.039337
    9       13.057509
   10       15.132082
   11       15.941981
   12       19.636036
 
 -0.3888889E+00  0.5555556E-01  0.0000000E+00  0.1543210E-02
    1       -8.730819
    2       -5.030952
    3       -2.078878
    4        0.559076
    5        1.663890
    6        2.577990
    7        4.196610
    8        9.318230
    9       12.747783
   10       15.372331
   11       16.781490
   12       19.636312
 
 -0.3333333E+00  0.5555556E-01  0.0000000E+00  0.1543210E-02
    1       -9.633223
    2       -5.790874
    3       -0.518976
    4        0.648817
    5        1.836961
    6        3.047460
    7        4.583499
    8       10.056856
    9       13.135305
   10       15.721476
   11       17.723763
   12       19.599584
 
 -0.2777778E+00  0.5555556E-01  0.0000000E+00  0.1543210E-02
    1      -10.394379
    2       -6.443095
    3       -0.226080
    4        1.087959
    5        3.039770
    6        3.709629
    7        5.063547
    8       10.028261
    9       14.370899
   10       16.161137
   11       18.744593
   12       19.462877
 
 -0.2222222E+00  0.5555556E-01  0.0000000E+00  0.1543210E-02
    1      -11.008108
    2       -6.971743
    3       -0.939032
    4        2.662700
    5        3.994215
    6        4.644066
    7        5.594861
    8        9.735774
    9       15.855391
   10       16.654090
   11       19.093765
   12       19.821126
 
 -0.1666667E+00  0.5555556E-01  0.0000000E+00  0.1543210E-02
    1      -11.470835
    2       -7.371358
    3       -1.479669
    4        4.092749
    5        4.784492
    6        5.624050
    7        6.114722
    8        9.440640
    9       17.115680
   10       17.210701
   11       18.409933
   12       19.416136
 
 -0.1111111E+00  0.5555556E-01  0.0000000E+00  0.1543210E-02
    1      -11.780425
    2       -7.639037
    3       -1.842483
    4        5.192595
    5        5.518414
    6        6.331909
    7        6.557693
    8        9.221695
    9       17.324556
   10       17.908467
   11       18.241011
   12       18.773445
 
 -0.5555556E-01  0.5555556E-01  0.0000000E+00  0.7716049E-03
    1      -11.935566
    2       -7.773217
    3       -2.024592
    4        5.804088
    5        5.997592
    6        6.679044
    7        6.816892
    8        9.107073
    9       17.307074
   10       17.666615
   11       18.466329
   12       18.749224
 
  0.1111111E+00  0.1111111E+00  0.0000000E+00  0.7716049E-03
    1      -11.084269
    2       -7.037355
    3       -1.028055
    4        3.146474
    5        3.762868
    6        5.033934
    7        5.446327
    8        9.696020
    9       16.113957
   10       17.553492
   11       18.253251
   12       19.875745
 
  0.1666667E+00  0.1111111E+00  0.0000000E+00  0.1543210E-02
    1      -10.546362
    2       -6.573735
    3       -0.402054
    4        1.842252
    5        2.853801
    6        4.111923
    7        4.808416
    8       10.001167
    9       14.772187
   10       17.359142
   11       18.767868
   12       19.037917
 
  0.2222222E+00  0.1111111E+00  0.0000000E+00  0.1543210E-02
    1       -9.859590
    2       -5.984028
    3        0.332755
    4        0.391142
    5        2.029100
    6        3.069335
    7        4.265717
    8       10.233079
    9       13.393010
   10       16.937741
   11       17.724674
   12       20.015595
 
  0.2777778E+00  0.1111111E+00  0.0000000E+00  0.1543210E-02
    1       -9.028759
    2       -5.277251
    3       -1.212711
    4        1.075571
    5        1.336635
    6        2.227300
    7        3.816836
    8        9.968615
    9       12.484093
   10       16.558386
   11       16.812546
   12       20.407291
 
  0.3333333E+00  0.1111111E+00  0.0000000E+00  0.1543210E-02
    1       -8.062734
    2       -4.491931
    3       -2.681985
    4       -0.055519
    5        1.710733
    6        2.399827
    7        3.481434
    8        8.875721
    9       12.452016
   10       16.052810
   11       16.270026
   12       20.483249
 
  0.3888889E+00  0.1111111E+00  0.0000000E+00  0.1543210E-02
    1       -6.986497
    2       -4.382066
    3       -3.269738
    4       -1.221031
    5        1.431594
    6        3.274818
    7        3.469523
    8        7.590027
    9       12.739755
   10       15.492565
   11       16.091845
   12       20.490892
 
  0.4444444E+00  0.1111111E+00  0.0000000E+00  0.1543210E-02
    1       -6.119711
    2       -5.263875
    3       -2.441339
    4       -2.230177
    5        1.341251
    6        3.204862
    7        4.060776
    8        6.906951
    9       12.891946
   10       15.272268
   11       16.032352
   12       20.489752
 
  0.5000000E+00  0.1111111E+00  0.0000000E+00  0.1543210E-02
    1       -6.989568
    2       -4.379186
    3       -3.273114
    4       -1.215274
    5        1.429631
    6        3.273633
    7        3.468101
    8        7.591684
    9       12.726967
   10       15.509067
   11       16.093740
   12       20.492528
 
 -0.4444444E+00  0.1111111E+00  0.0000000E+00  0.1543210E-02
    1       -8.065598
    2       -4.494612
    3       -2.679049
    4       -0.048919
    5        1.706960
    6        2.398113
    7        3.479119
    8        8.878506
    9       12.432791
   10       16.078068
   11       16.273722
   12       20.486686
 
 -0.3888889E+00  0.1111111E+00  0.0000000E+00  0.1543210E-02
    1       -9.031267
    2       -5.279868
    3       -1.209691
    4        1.082097
    5        1.334958
    6        2.223188
    7        3.813388
    8        9.972383
    9       12.461621
   10       16.563675
   11       16.842008
   12       20.413493
 
 -0.3333333E+00  0.1111111E+00  0.0000000E+00  0.1543210E-02
    1       -9.861683
    2       -5.986189
    3        0.334533
    4        0.389626
    5        2.032588
    6        3.068858
    7        4.261975
    8       10.233393
    9       13.372379
   10       16.944119
   11       17.756200
   12       20.031831
 
 -0.2777778E+00  0.1111111E+00  0.0000000E+00  0.1543210E-02
    1      -10.548051
    2       -6.575466
    3       -0.403335
    4        1.839610
    5        2.856466
    6        4.115174
    7        4.805234
    8        9.999293
    9       14.752675
   10       17.365287
   11       18.799456
   12       19.066846
 
 -0.2222222E+00  0.1111111E+00  0.0000000E+00  0.1543210E-02
    1      -11.085539
    2       -7.038641
    3       -1.029052
    4        3.133608
    5        3.771969
    6        5.036391
    7        5.447670
    8        9.693911
    9       16.095395
   10       17.561147
   11       18.280922
   12       19.939077
 
 -0.1666667E+00  0.1111111E+00  0.0000000E+00  0.1543210E-02
    1      -11.471152
    2       -7.371678
    3       -1.479919
    4        4.079527
    5        4.797074
    6        5.616385
    7        6.124178
    8        9.439865
    9       17.131265
   10       17.205194
   11       18.402929
   12       19.420842
 
 -0.1111111E+00  0.1111111E+00  0.0000000E+00  0.7716049E-03
    1      -11.703142
    2       -7.572231
    3       -1.751846
    4        4.803023
    5        5.472829
    6        6.021156
    7        6.522276
    8        9.277069
    9       17.046096
   10       17.962400
   11       18.506231
   12       18.666895
 
  0.1666667E+00  0.1666667E+00  0.0000000E+00  0.7716049E-03
    1       -9.935582
    2       -6.049138
    3        0.304579
    4        0.901700
    5        1.693756
    6        3.410844
    7        3.911506
    8       10.286818
    9       13.509973
   10       17.683088
   11       18.313394
   12       18.916416
 
  0.2222222E+00  0.1666667E+00  0.0000000E+00  0.1543210E-02
    1       -9.179171
    2       -5.403630
    3       -0.372933
    4        0.842386
    5        1.170609
    6        2.424967
    7        3.263071
    8       10.424465
    9       12.258939
   10       16.751056
   11       18.185817
   12       20.084827
 
  0.2777778E+00  0.1666667E+00  0.0000000E+00  0.1543210E-02
    1       -8.283897
    2       -4.654394
    3       -1.798604
    4        0.152433
    5        1.406283
    6        2.173491
    7        2.831189
    8        9.788717
    9       11.689865
   10       16.052756
   11       17.874842
   12       21.422170
 
  0.3333333E+00  0.1666667E+00  0.0000000E+00  0.1543210E-02
    1       -7.264274
    2       -3.950831
    3       -3.055637
    4       -0.668909
    5        0.700914
    6        2.546727
    7        3.253443
    8        8.498054
    9       11.766626
   10       15.597013
   11       17.646115
   12       21.766970
 
  0.3888889E+00  0.1666667E+00  0.0000000E+00  0.1543210E-02
    1       -6.187902
    2       -4.673695
    3       -2.660568
    4       -1.666205
    5        0.403175
    6        2.403596
    7        4.179143
    8        7.397246
    9       11.876245
   10       15.376323
   11       17.528000
   12       21.782334
 
  0.4444444E+00  0.1666667E+00  0.0000000E+00  0.1543210E-02
    1       -6.192050
    2       -4.669309
    3       -2.667722
    4       -1.657437
    5        0.401635
    6        2.402854
    7        4.178018
    8        7.398199
    9       11.869902
   10       15.385453
   11       17.529201
   12       21.783285
 
  0.5000000E+00  0.1666667E+00  0.0000000E+00  0.1543210E-02
    1       -7.268740
    2       -3.952529
    3       -3.054964
    4       -0.658954
    5        0.697057
    6        2.544586
    7        3.251313
    8        8.500185
    9       11.749062
   10       15.621748
   11       17.649528
   12       21.770328
 
 -0.4444444E+00  0.1666667E+00  0.0000000E+00  0.1543210E-02
    1       -8.287892
    2       -4.658609
    3       -1.795256
    4        0.160412
    5        1.404130
    6        2.171183
    7        2.828051
    8        9.793848
    9       11.662425
   10       16.087689
   11       17.880372
   12       21.443896
 
 -0.3888889E+00  0.1666667E+00  0.0000000E+00  0.1543210E-02
    1       -9.182599
    2       -5.407284
    3       -0.373042
    4        0.849072
    5        1.168391
    6        2.425676
    7        3.260219
    8       10.426875
    9       12.230149
   10       16.791295
   11       18.193177
   12       20.122334
 
 -0.3333333E+00  0.1666667E+00  0.0000000E+00  0.1543210E-02
    1       -9.938410
    2       -6.052099
    3        0.302607
    4        0.891980
    5        1.705799
    6        3.409316
    7        3.913888
    8       10.283266
    9       13.485339
   10       17.724403
   11       18.331498
   12       18.944377
 
 -0.2777778E+00  0.1666667E+00  0.0000000E+00  0.1543210E-02
    1      -10.548572
    2       -6.576012
    3       -0.403677
    4        1.827316
    5        2.866367
    6        4.108887
    7        4.816444
    8        9.996721
    9       14.749356
   10       17.389191
   11       18.805722
   12       19.051978
 
 -0.2222222E+00  0.1666667E+00  0.0000000E+00  0.1543210E-02
    1      -11.008948
    2       -6.972604
    3       -0.939648
    4        2.646836
    5        4.004832
    6        4.639621
    7        5.608103
    8        9.733018
    9       15.845976
   10       16.677546
   11       19.098854
   12       19.833676
 
 -0.1666667E+00  0.1666667E+00  0.0000000E+00  0.7716049E-03
    1      -11.316938
    2       -7.238509
    3       -1.299524
    4        3.429135
    5        4.820330
    6        5.025233
    7        6.064655
    8        9.540358
    9       16.586108
   10       16.704003
   11       18.960404
   12       19.808618
 
  0.2222222E+00  0.2222222E+00  0.0000000E+00  0.7716049E-03
    1       -8.357970
    2       -4.712689
    3       -1.170737
    4       -0.271458
    5        1.761888
    6        2.096714
    7        2.297369
    8       10.522294
    9       11.009497
   10       16.036628
   11       19.580019
   12       19.919129
 
  0.2777778E+00  0.2222222E+00  0.0000000E+00  0.1543210E-02
    1       -7.406475
    2       -3.948842
    3       -2.299028
    4       -0.947104
    5        0.819841
    6        1.762207
    7        3.132359
    8        9.527600
    9       10.699564
   10       15.636655
   11       19.469015
   12       21.395539
 
  0.3333333E+00  0.2222222E+00  0.0000000E+00  0.1543210E-02
    1       -6.353746
    2       -3.815359
    3       -2.850043
    4       -1.416731
    5       -0.078158
    6        1.512505
    7        4.162762
    8        8.257608
    9       10.716944
   10       15.471041
   11       19.295284
   12       22.977765
 
  0.3888889E+00  0.2222222E+00  0.0000000E+00  0.1543210E-02
    1       -5.526641
    2       -4.646741
    3       -2.197543
    4       -1.942959
    5       -0.455145
    6        1.433047
    7        4.720686
    8        7.610023
    9       10.717988
   10       15.436163
   11       19.235668
   12       23.307830
 
  0.4444444E+00  0.2222222E+00  0.0000000E+00  0.1543210E-02
    1       -6.359647
    2       -3.809990
    3       -2.859977
    4       -1.403956
    5       -0.079639
    6        1.511192
    7        4.161213
    8        8.256311
    9       10.709101
   10       15.487276
   11       19.297621
   12       23.010639
 
  0.5000000E+00  0.2222222E+00  0.0000000E+00  0.1543210E-02
    1       -7.412023
    2       -3.954643
    3       -2.298501
    4       -0.936171
    5        0.820414
    6        1.760686
    7        3.130072
    8        9.525831
    9       10.683003
   10       15.667059
   11       19.473601
   12       21.437920
 
 -0.4444444E+00  0.2222222E+00  0.0000000E+00  0.1543210E-02
    1       -8.362862
    2       -4.718186
    3       -1.177533
    4       -0.256065
    5        1.758804
    6        2.094184
    7        2.301181
    8       10.523331
    9       10.982452
   10       16.077064
   11       19.600666
   12       19.947605
 
 -0.3888889E+00  0.2222222E+00  0.0000000E+00  0.1543210E-02
    1       -9.183301
    2       -5.408156
    3       -0.384189
    4        0.858026
    5        1.168155
    6        2.419501
    7        3.271931
    8       10.414030
    9       12.239323
   10       16.795444
   11       18.224231
   12       20.096905
 
 -0.3333333E+00  0.2222222E+00  0.0000000E+00  0.1543210E-02
    1       -9.862917
    2       -5.987585
    3        0.319865
    4        0.388976
    5        2.038647
    6        3.068448
    7        4.276699
    8       10.222777
    9       13.373634
   10       16.973428
   11       17.766338
   12       20.037602
 
 -0.2777778E+00  0.2222222E+00  0.0000000E+00  0.1543210E-02
    1      -10.395936
    2       -6.444748
    3       -0.227085
    4        1.072301
    5        3.036860
    6        3.719749
    7        5.078845
    8       10.020397
    9       14.363273
   10       16.189009
   11       18.761648
   12       19.483060
 
 -0.2222222E+00  0.2222222E+00  0.0000000E+00  0.7716049E-03
    1      -10.778722
    2       -6.774060
    3       -0.671474
    4        1.869304
    5        3.823981
    6        4.159337
    7        5.540953
    8        9.847397
    9       15.213338
   10       16.069921
   11       19.192141
   12       19.495630
 
  0.2777778E+00  0.2777778E+00  0.0000000E+00  0.7716049E-03
    1       -6.416587
    2       -3.272132
    3       -2.910795
    4       -1.777638
    5        0.319345
    6        0.833793
    7        4.143089
    8        9.029397
    9        9.849637
   10       15.505539
   11       21.141035
   12       21.187425
 
  0.3333333E+00  0.2777778E+00  0.0000000E+00  0.1543210E-02
    1       -5.396867
    2       -3.912759
    3       -2.881371
    4       -1.720242
    5       -0.430207
    6        0.492098
    7        4.969211
    8        8.261542
    9        9.575248
   10       15.495368
   11       21.034159
   12       22.762721
 
  0.3888889E+00  0.2777778E+00  0.0000000E+00  0.1543210E-02
    1       -5.402756
    2       -3.907896
    3       -2.886779
    4       -1.714820
    5       -0.429273
    6        0.492262
    7        4.969506
    8        8.252364
    9        9.579822
   10       15.502549
   11       21.035335
   12       22.800524
 
  0.4444444E+00  0.2777778E+00  0.0000000E+00  0.1543210E-02
    1       -6.423511
    2       -3.279262
    3       -2.915444
    4       -1.761217
    5        0.316792
    6        0.838913
    7        4.142464
    8        8.997725
    9        9.868639
   10       15.526655
   11       21.158785
   12       21.214880
 
  0.5000000E+00  0.2777778E+00  0.0000000E+00  0.1543210E-02
    1       -7.412836
    2       -3.957295
    3       -2.305691
    4       -0.928956
    5        0.814347
    6        1.771670
    7        3.130648
    8        9.494696
    9       10.711516
   10       15.670153
   11       19.511015
   12       21.401554
 
 -0.4444444E+00  0.2777778E+00  0.0000000E+00  0.1543210E-02
    1       -8.289439
    2       -4.661159
    3       -1.807090
    4        0.165291
    5        1.404143
    6        2.171249
    7        2.842397
    8        9.761163
    9       11.689637
   10       16.094138
   11       17.915195
   12       21.445288
 
 -0.3888889E+00  0.2777778E+00  0.0000000E+00  0.1543210E-02
    1       -9.033357
    2       -5.282773
    3       -1.223315
    4        1.077934
    5        1.334327
    6        2.234520
    7        3.829672
    8        9.944797
    9       12.478662
   10       16.596090
   11       16.853705
   12       20.440472
 
 -0.3333333E+00  0.2777778E+00  0.0000000E+00  0.1543210E-02
    1       -9.635683
    2       -5.793699
    3       -0.533275
    4        0.647598
    5        1.827851
    6        3.064846
    7        4.600046
    8       10.036533
    9       13.139199
   10       15.752381
   11       17.742001
   12       19.626686
 
 -0.2777778E+00  0.2777778E+00  0.0000000E+00  0.7716049E-03
    1      -10.091018
    2       -6.182983
    3        0.124735
    4        0.245940
    5        2.523608
    6        3.560330
    7        5.033996
    8       10.047552
    9       13.775837
   10       15.588904
   11       18.438689
   12       19.317439
 
  0.3333333E+00  0.3333333E+00  0.0000000E+00  0.7716049E-03
    1       -4.809407
    2       -3.693616
    3       -3.677076
    4       -1.364335
    5       -0.301644
    6       -0.294088
    7        5.327850
    8        8.653177
    9        8.696948
   10       15.523244
   11       22.381041
   12       22.912365
 
  0.3888889E+00  0.3333333E+00  0.0000000E+00  0.1543210E-02
    1       -5.403050
    2       -3.923453
    3       -2.872395
    4       -1.716539
    5       -0.434475
    6        0.501372
    7        4.972953
    8        8.222099
    9        9.603929
   10       15.507402
   11       21.075900
   12       22.761929
 
  0.4444444E+00  0.3333333E+00  0.0000000E+00  0.1543210E-02
    1       -6.361083
    2       -3.827759
    3       -2.852479
    4       -1.402018
    5       -0.079923
    6        1.523598
    7        4.164860
    8        8.221788
    9       10.735554
   10       15.494750
   11       19.337062
   12       22.970823
 
  0.5000000E+00  0.3333333E+00  0.0000000E+00  0.1543210E-02
    1       -7.271131
    2       -3.963725
    3       -3.058009
    4       -0.663023
    5        0.707319
    6        2.559450
    7        3.253394
    8        8.464910
    9       11.775722
   10       15.630873
   11       17.686571
   12       21.804655
 
 -0.4444444E+00  0.3333333E+00  0.0000000E+00  0.1543210E-02
    1       -8.068650
    2       -4.500500
    3       -2.689064
    4       -0.057172
    5        1.723749
    6        2.398573
    7        3.495888
    8        8.843866
    9       12.455919
   10       16.090483
   11       16.308390
   12       20.518938
 
 -0.3888889E+00  0.3333333E+00  0.0000000E+00  0.1543210E-02
    1       -8.734296
    2       -5.035691
    3       -2.090783
    4        0.549652
    5        1.663111
    6        2.597244
    7        4.213878
    8        9.285904
    9       12.763598
   10       15.405459
   11       16.799519
   12       19.666944
 
 -0.3333333E+00  0.3333333E+00  0.0000000E+00  0.7716049E-03
    1       -9.258548
    2       -5.473678
    3       -1.358320
    4        1.074854
    5        1.197806
    6        3.065206
    7        4.599110
    8        9.710817
    9       12.933595
   10       15.188577
   11       17.428408
   12       19.363279
 
  0.3888889E+00  0.3888889E+00  0.0000000E+00  0.7716049E-03
    1       -5.528625
    2       -4.662395
    3       -2.191770
    4       -1.945151
    5       -0.450674
    6        1.445119
    7        4.728794
    8        7.569767
    9       10.741452
   10       15.450623
   11       19.276491
   12       23.340734
 
  0.4444444E+00  0.3888889E+00  0.0000000E+00  0.1543210E-02
    1       -6.194381
    2       -4.686167
    3       -2.665550
    4       -1.664112
    5        0.415264
    6        2.417438
    7        4.185906
    8        7.357529
    9       11.892706
   10       15.400216
   11       17.567812
   12       21.819645
 
  0.5000000E+00  0.3888889E+00  0.0000000E+00  0.1543210E-02
    1       -6.993343
    2       -4.396551
    3       -3.271614
    4       -1.223327
    5        1.447344
    6        3.290164
    7        3.472690
    8        7.553255
    9       12.748716
   10       15.523878
   11       16.130082
   12       20.526840
 
 -0.4444444E+00  0.3888889E+00  0.0000000E+00  0.1543210E-02
    1       -7.704305
    2       -4.329614
    3       -3.399947
    4       -0.704038
    5        2.286344
    6        2.762057
    7        3.945128
    8        8.003237
    9       13.075264
   10       15.166809
   11       15.959866
   12       19.668687
 
 -0.3888889E+00  0.3888889E+00  0.0000000E+00  0.7716049E-03
    1       -8.289157
    2       -4.685405
    3       -2.859495
    4       -0.102250
    5        2.145405
    6        2.698078
    7        4.269712
    8        8.606548
    9       13.001094
   10       14.891821
   11       16.483751
   12       19.368383
 
  0.4444444E+00  0.4444444E+00  0.0000000E+00  0.7716049E-03
    1       -6.122458
    2       -5.280465
    3       -2.444605
    4       -2.234380
    5        1.358448
    6        3.220975
    7        4.071221
    8        6.863023
    9       12.908025
   10       15.294285
   11       16.069888
   12       20.525197
 
  0.5000000E+00  0.4444444E+00  0.0000000E+00  0.1543210E-02
    1       -6.609158
    2       -5.088692
    3       -2.982127
    4       -1.883376
    5        2.130285
    6        3.715339
    7        3.807555
    8        6.882164
    9       13.502929
   10       15.045627
   11       15.342993
   12       19.662985
 
 -0.4444444E+00  0.4444444E+00  0.0000000E+00  0.7716049E-03
    1       -7.207062
    2       -4.589611
    3       -3.445877
    4       -1.338007
    5        2.473111
    6        3.227675
    7        4.065408
    8        7.315679
    9       13.485293
   10       14.710224
   11       15.654947
   12       19.360988
 
  0.5000000E+00  0.5000000E+00  0.0000000E+00  0.3858025E-03
    1       -6.325462
    2       -5.490037
    3       -2.615581
    4       -2.367339
    5        2.397002
    6        3.832577
    7        3.996081
    8        6.620305
    9       13.825660
   10       14.649161
   11       15.219977
   12       19.356814
 