32   
4    

1    
  0.0037131617334537  -0.0000014447193407   0.0092850647738183
  -0.2422073000    0.0069638700   -0.1345568100
   0.0284630000    0.0058132100   -0.0029124200
  -0.0115247100   -0.0172844500   -0.0028440200
  -0.0116363300    0.0290474900   -0.0030740200
  -0.0100878000    0.0058186500    0.0032421100
  -0.0100471300    0.0058164500    0.0033694300
  -0.0100784700    0.0058054100    0.0033685000
  -0.0100694200    0.0058335200    0.0033692600
   0.0100365500   -0.0059279600   -0.0034624700
   0.0095722800   -0.0060498600   -0.0036476700
   0.0099072900   -0.0055783900   -0.0035526100
   0.0096202400   -0.0058605300   -0.0019602400
   0.0098844500   -0.0054864000   -0.0036644300
   0.0103252800   -0.0055851300   -0.0034872300
   0.0101841900   -0.0059408500   -0.0035802700
   0.0099129100   -0.0056880800   -0.0018669100
   0.0117980000   -0.0053790200    0.0123118100
   0.0413461700   -0.0061052500    0.0449275400
   0.0899157700    0.0225283100    0.0453837900
   0.0902994700   -0.0337030600    0.0443994600
   0.0092558300   -0.0053520300   -0.0005471700
   0.0092613300   -0.0053603500   -0.0004936200
   0.0092497300   -0.0053641700   -0.0004930300
   0.0092500700   -0.0053536100   -0.0004914300
  -0.0097237200    0.0056894000    0.0016172700
  -0.0082983500    0.0059150100    0.0017277300
  -0.0092090900    0.0045814500    0.0016699100
  -0.0088938900    0.0053897700    0.0001373900
  -0.0084514400    0.0047076100    0.0017324800
  -0.0097435500    0.0049421400    0.0015834200
  -0.0093073800    0.0059548700    0.0016341300
  -0.0090039600    0.0052119700    0.0001601300

1    
 -0.0037131617334537   0.0000014447193407  -0.0092850647738183
   0.2219921300    0.0069407400    0.1345723200
  -0.0487250500    0.0057663300    0.0029465900
  -0.0086032600    0.0289596500    0.0030135900
  -0.0087075300   -0.0174013700    0.0029727600
  -0.0101557000    0.0058667200   -0.0032007500
  -0.0101941900    0.0058533700   -0.0033237800
  -0.0101748500    0.0058788200   -0.0033291800
  -0.0101790000    0.0058540200   -0.0033273200
   0.0098897500   -0.0059304600    0.0034368300
   0.0103358500   -0.0058124600    0.0036192200
   0.0100092700   -0.0062609700    0.0035217300
   0.0102988400   -0.0059882500    0.0018166100
   0.0106199200   -0.0059934100    0.0036223300
   0.0101543400   -0.0059013300    0.0034384000
   0.0103049900   -0.0055429900    0.0035343000
   0.0105667900   -0.0058064400    0.0019387800
   0.0067964900   -0.0053349800   -0.0123109300
  -0.0227344500   -0.0058553000   -0.0449318500
  -0.0719072500   -0.0337222300   -0.0444633100
  -0.0711130500    0.0225265200   -0.0453321500
   0.0093569100   -0.0053742500    0.0005730200
   0.0093497400   -0.0053814300    0.0005150300
   0.0093484700   -0.0053809300    0.0005185200
   0.0093581800   -0.0053908600    0.0005165300
  -0.0088050800    0.0052676600   -0.0016302300
  -0.0101044100    0.0050351400   -0.0017286600
  -0.0092551100    0.0062596200   -0.0016796600
  -0.0095772500    0.0055240000   -0.0001866000
  -0.0102705400    0.0058610300   -0.0017555000
  -0.0088548000    0.0056255800   -0.0015847500
  -0.0093620100    0.0045196900   -0.0016399600
  -0.0096581600    0.0053387700   -0.0001319200

17   
  0.0037131617334537  -0.0000014447193407   0.0092850647738183
  -0.0078277000    0.0058941300    0.0096206500
   0.0216999600    0.0064287100    0.0422369700
   0.0708593700    0.0342644200    0.0417580300
   0.0700800600   -0.0219664400    0.0426411600
  -0.0106027700    0.0059369000   -0.0032600200
  -0.0105956200    0.0059389000   -0.0032063900
  -0.0106054200    0.0059323000   -0.0032070500
  -0.0106034000    0.0059426800   -0.0032037300
   0.0100085100   -0.0059613300    0.0041172200
   0.0103554000   -0.0057559700    0.0046358900
   0.0100099200   -0.0061178800    0.0043652500
   0.0102881600   -0.0059421900    0.0028480900
   0.0104432800   -0.0059439000    0.0046330800
   0.0101232400   -0.0056773600    0.0040622100
   0.0100583300   -0.0055734700    0.0043311700
   0.0103911900   -0.0057344800    0.0028417300
  -0.2228527300   -0.0064456800   -0.1370631400
   0.0473385500   -0.0052729500   -0.0066419100
   0.0087049600   -0.0276117900   -0.0067047700
   0.0088131600    0.0170436400   -0.0066942100
   0.0097388200   -0.0054564000    0.0006823000
   0.0097076300   -0.0054561200    0.0003875500
   0.0097172700   -0.0054513800    0.0003871600
   0.0097160900   -0.0054615100    0.0003879700
  -0.0096148700    0.0055782300    0.0001494600
  -0.0091907100    0.0054936500    0.0002965800
  -0.0093246300    0.0051751900    0.0002123400
  -0.0095579300    0.0054030000   -0.0005843200
  -0.0090730800    0.0051182700    0.0002966400
  -0.0095114500    0.0050251200    0.0000985500
  -0.0092064300    0.0054437600    0.0001841800
  -0.0094871400    0.0052099400   -0.0006086300

17   
 -0.0037131617334537   0.0000014447193407  -0.0092850647738183
  -0.0124666100    0.0058005700   -0.0095939800
  -0.0419754400    0.0065215000   -0.0422054900
  -0.0905706500   -0.0221173700   -0.0426701500
  -0.0909407500    0.0341293800   -0.0416743400
  -0.0102780700    0.0057694800    0.0032916900
  -0.0102853900    0.0057707600    0.0032380300
  -0.0102753000    0.0057741000    0.0032372000
  -0.0102765600    0.0057640200    0.0032383700
   0.0101768800   -0.0059548300   -0.0041246500
   0.0098455300   -0.0061472700   -0.0046370000
   0.0101735100   -0.0058001200   -0.0043684100
   0.0098917000   -0.0059683500   -0.0028825000
   0.0099027600   -0.0055321100   -0.0046930200
   0.0102314600   -0.0058131200   -0.0041214500
   0.0103068700   -0.0059196500   -0.0043912700
   0.0099759700   -0.0057508500   -0.0028707400
   0.2415415600   -0.0065260800    0.1370258300
  -0.0286782100   -0.0053698100    0.0066333400
   0.0098510300    0.0168810400    0.0065693500
   0.0099611900   -0.0277753900    0.0068147700
   0.0095030200   -0.0053124100   -0.0006922200
   0.0095325000   -0.0053101000   -0.0003970200
   0.0095246700   -0.0053159000   -0.0003973400
   0.0095254500   -0.0053062000   -0.0003975500
  -0.0091377200    0.0053757700   -0.0001084400
  -0.0095658300    0.0054803700   -0.0002655900
  -0.0094462300    0.0057930000   -0.0001814000
  -0.0092042100    0.0055613200    0.0005981200
  -0.0094632400    0.0054175800   -0.0002965700
  -0.0090288800    0.0054865300   -0.0001091000
  -0.0093098500    0.0050808400   -0.0001912700
  -0.0090411600    0.0053132900    0.0006227900
