32   
4    

1    
  0.0039870843175027   0.0000000025202384   0.0091707774286108
   0.0370824200   -0.0014973800   -0.1025260400
   0.0149834200   -0.0000810000    0.0043759700
   0.0251940900    0.0058112800    0.0043277600
   0.0252964200   -0.0060353100    0.0044261400
  -0.0000112100   -0.0000211600   -0.0000173800
  -0.0000818800   -0.0000236000    0.0002039500
  -0.0000133800    0.0000139800    0.0002033800
  -0.0000208300   -0.0000457000    0.0002043300
   0.0010968200    0.0000131700    0.0021725400
   0.0004552400   -0.0001613500    0.0002985400
   0.0007604600    0.0001919900    0.0003596100
   0.0004495500    0.0000222500    0.0002316500
   0.0010746800    0.0000218100    0.0021799000
   0.0004428000    0.0001778600    0.0002848200
   0.0004326900    0.0000154300    0.0002222100
   0.0007433200   -0.0001453200    0.0003559300
  -0.0180859600    0.0005712700    0.0226120400
  -0.0060244000    0.0000647600    0.0053759800
  -0.0402299200    0.0129498300    0.0228264500
  -0.0388067800   -0.0118028900    0.0224117100
   0.0000050200    0.0000183700    0.0000430400
   0.0000299700    0.0000165500   -0.0000458300
   0.0000447700   -0.0000062000    0.0000410400
   0.0000468300    0.0000262000    0.0000432400
  -0.0012169500   -0.0006188400    0.0015759500
  -0.0002005400   -0.0000012000    0.0016719100
  -0.0008707000   -0.0000094700   -0.0001498000
  -0.0001754600    0.0005847400    0.0016220000
  -0.0002184600   -0.0000478800    0.0016462300
  -0.0011665800    0.0005655900    0.0015600400
  -0.0008497900    0.0000013100   -0.0001420300
  -0.0001656400   -0.0005690900    0.0016046800

1    
 -0.0039870843175027  -0.0000000025202384  -0.0091707774286108
  -0.0371618300   -0.0014947200    0.1025042200
  -0.0148964400   -0.0000814900   -0.0043824900
  -0.0252368700   -0.0060499100   -0.0044319100
  -0.0251344800    0.0058266600   -0.0043340100
   0.0000781700   -0.0000218700    0.0000168000
   0.0001421600   -0.0000231100   -0.0002037400
   0.0001030700   -0.0000476100   -0.0002047900
   0.0000962200    0.0000164500   -0.0002035800
  -0.0011405900    0.0000132800   -0.0021805200
  -0.0005273400    0.0001866800   -0.0002871100
  -0.0008074600   -0.0001459600   -0.0003577500
  -0.0005161400    0.0000122300   -0.0002226600
  -0.0011652300    0.0000207300   -0.0021733300
  -0.0005387100   -0.0001697600   -0.0003010600
  -0.0005317000    0.0000252700   -0.0002320100
  -0.0008246800    0.0001937300   -0.0003613300
   0.0180541400    0.0005711800   -0.0226007800
   0.0059764800    0.0000654200   -0.0053705500
   0.0388220300   -0.0118305200   -0.0223987400
   0.0402404400    0.0129740800   -0.0228139200
  -0.0000685300    0.0000197800   -0.0000420900
  -0.0000896400    0.0000169000    0.0000476700
  -0.0000921200    0.0000294400   -0.0000438500
  -0.0000898300   -0.0000107400   -0.0000415700
   0.0012282100    0.0005611700   -0.0015573900
   0.0002685500   -0.0000417500   -0.0016470800
   0.0009017800   -0.0000088900    0.0001426700
   0.0002247700   -0.0005562900   -0.0016039500
   0.0002508100   -0.0000071500   -0.0016720800
   0.0012788000   -0.0006169100   -0.0015733200
   0.0009241500    0.0000010300    0.0001509200
   0.0002318100    0.0005726600   -0.0016207200

17   
  0.0039870843175027   0.0000000025202384   0.0091707774286108
  -0.0184605200   -0.0005924300    0.0224533100
  -0.0060299100   -0.0000800800    0.0053114800
  -0.0397775100    0.0121213900    0.0222534800
  -0.0411662000   -0.0133026400    0.0226661100
   0.0000727800   -0.0000208400    0.0000435700
   0.0000921800   -0.0000228700   -0.0000440600
   0.0001146400   -0.0000364500    0.0000422800
   0.0001081300    0.0000025500    0.0000449200
  -0.0002365000    0.0001448200    0.0016210000
  -0.0009424000    0.0000106600   -0.0001477400
  -0.0006614200    0.0002694600    0.0018389500
  -0.0009018500   -0.0003714300    0.0013894500
  -0.0002277200   -0.0001058200    0.0015914400
  -0.0009464600    0.0000029900   -0.0001414000
  -0.0008835900    0.0003834300    0.0013803000
  -0.0006552800   -0.0002227700    0.0018153300
   0.0389035200    0.0015116100   -0.1039640500
   0.0162918300    0.0000844800    0.0037687800
   0.0249414800    0.0050899300    0.0038167800
   0.0248706100   -0.0048514300    0.0037236000
  -0.0001404300    0.0000194700    0.0002704300
  -0.0000458200    0.0000168000   -0.0000736200
  -0.0000647500   -0.0000021500   -0.0000755600
  -0.0000634900    0.0000228200   -0.0000743200
   0.0007276500   -0.0002025100    0.0015598900
   0.0005217600    0.0000563700    0.0014707300
   0.0003907100    0.0001127300    0.0015160500
   0.0012765400    0.0000005500    0.0007232900
   0.0005103000   -0.0000966900    0.0014483900
   0.0007367400    0.0001945300    0.0015504500
   0.0003878700   -0.0001217600    0.0014988300
   0.0012571300   -0.0000147200    0.0007219400

17   
 -0.0039870843175027  -0.0000000025202384  -0.0091707774286108
   0.0185017100   -0.0005925400   -0.0224655000
   0.0061011900   -0.0000783200   -0.0053176800
   0.0411777000   -0.0132813700   -0.0226775900
   0.0397855500    0.0120974300   -0.0222648900
  -0.0000033500   -0.0000210800   -0.0000440900
  -0.0000298800   -0.0000222900    0.0000441500
  -0.0000246100    0.0000013700   -0.0000451400
  -0.0000301000   -0.0000339200   -0.0000427500
   0.0001615400   -0.0001141800   -0.0015922600
   0.0008597800    0.0000114300    0.0001397200
   0.0005901500   -0.0002248700   -0.0018164200
   0.0007976500    0.0003807900   -0.0013815900
   0.0001678600    0.0001518700   -0.0016222900
   0.0008549000    0.0000027800    0.0001458700
   0.0008164800   -0.0003677400   -0.0013906700
   0.0005964400    0.0002698300   -0.0018402200
  -0.0388140700    0.0015130400    0.1039862100
  -0.0163586500    0.0000833200   -0.0037621000
  -0.0249115000   -0.0048412600   -0.0037156900
  -0.0249818500    0.0050772700   -0.0038092700
   0.0000754300    0.0000178800   -0.0002694300
  -0.0000148200    0.0000168700    0.0000754400
   0.0000152000    0.0000250200    0.0000738400
   0.0000185300   -0.0000067000    0.0000750900
  -0.0006748700    0.0001894200   -0.0015485700
  -0.0004586900   -0.0000888500   -0.0014492700
  -0.0003333300   -0.0001316500   -0.0014978200
  -0.0011972600    0.0000010300   -0.0007206500
  -0.0004675400    0.0000515300   -0.0014714500
  -0.0006653500   -0.0001972900   -0.0015578100
  -0.0003386200    0.0001235800   -0.0015151400
  -0.0012155800   -0.0000124100   -0.0007220400
