  32  32   0   0
  0.9079817E+01  0.4932875E-09  0.4932875E-09  0.1379404E-08  0.5000000E-15
  1.000000000000000E-004
  CAR 
 graphite                                
     15.24580791    -17.16710615  301      4.43818293      1.00000000
    -17.167  0.0000E+00  0.0000E+00
    -17.059  0.0000E+00  0.0000E+00
    -16.951  0.0000E+00  0.0000E+00
    -16.843  0.0000E+00  0.0000E+00
    -16.735  0.0000E+00  0.0000E+00
    -16.627  0.0000E+00  0.0000E+00
    -16.519  0.0000E+00  0.0000E+00
    -16.411  0.0000E+00  0.0000E+00
    -16.303  0.0000E+00  0.0000E+00
    -16.195  0.0000E+00  0.0000E+00
    -16.087  0.0000E+00  0.0000E+00
    -15.979  0.0000E+00  0.0000E+00
    -15.871  0.0000E+00  0.0000E+00
    -15.763  0.0000E+00  0.0000E+00
    -15.655  0.0000E+00  0.0000E+00
    -15.546  0.0000E+00  0.0000E+00
    -15.438  0.0000E+00  0.0000E+00
    -15.330  0.0000E+00  0.0000E+00
    -15.222  0.0000E+00  0.0000E+00
    -15.114  0.1163E+01  0.2373E-01
    -15.006  0.2711E+01  0.2452E+00
    -14.898  0.4882E+01  0.6438E+00
    -14.790  0.4874E+01  0.1172E+01
    -14.682  0.4947E+01  0.1707E+01
    -14.574  0.4938E+01  0.2239E+01
    -14.466  0.4948E+01  0.2774E+01
    -14.358  0.4907E+01  0.3304E+01
    -14.250  0.5001E+01  0.3840E+01
    -14.142  0.4989E+01  0.4379E+01
    -14.034  0.4974E+01  0.4918E+01
    -13.926  0.5669E+01  0.5489E+01
    -13.818  0.5956E+01  0.6119E+01
    -13.710  0.6640E+01  0.6827E+01
    -13.602  0.4627E+01  0.7414E+01
    -13.494  0.1748E+01  0.7742E+01
    -13.386  0.3608E+01  0.8004E+01
    -13.278  0.4394E+01  0.8467E+01
    -13.170  0.4566E+01  0.8954E+01
    -13.061  0.6212E+01  0.9705E+01
    -12.953  0.6419E+01  0.1044E+02
    -12.845  0.4357E+01  0.1094E+02
    -12.737  0.4515E+01  0.1142E+02
    -12.629  0.4633E+01  0.1192E+02
    -12.521  0.4745E+01  0.1242E+02
    -12.413  0.5216E+01  0.1296E+02
    -12.305  0.5777E+01  0.1354E+02
    -12.197  0.5537E+01  0.1418E+02
    -12.089  0.5558E+01  0.1477E+02
    -11.981  0.5144E+01  0.1534E+02
    -11.873  0.4810E+01  0.1588E+02
    -11.765  0.4912E+01  0.1641E+02
    -11.657  0.5002E+01  0.1695E+02
    -11.549  0.5059E+01  0.1749E+02
    -11.441  0.5158E+01  0.1804E+02
    -11.333  0.5504E+01  0.1862E+02
    -11.225  0.5868E+01  0.1924E+02
    -11.117  0.5751E+01  0.1986E+02
    -11.009  0.5696E+01  0.2048E+02
    -10.901  0.5772E+01  0.2110E+02
    -10.793  0.5322E+01  0.2172E+02
    -10.685  0.4643E+01  0.2224E+02
    -10.576  0.5251E+01  0.2278E+02
    -10.468  0.5339E+01  0.2335E+02
    -10.360  0.5452E+01  0.2394E+02
    -10.252  0.5656E+01  0.2454E+02
    -10.144  0.5897E+01  0.2516E+02
    -10.036  0.7402E+01  0.2586E+02
     -9.928  0.1024E+02  0.2684E+02
     -9.820  0.6884E+01  0.2776E+02
     -9.712  0.5898E+01  0.2840E+02
     -9.604  0.6222E+01  0.2912E+02
     -9.496  0.3612E+01  0.2964E+02
     -9.388  0.3244E+01  0.3001E+02
     -9.280  0.2875E+01  0.3034E+02
     -9.172  0.2506E+01  0.3063E+02
     -9.064  0.2361E+01  0.3088E+02
     -8.956  0.3274E+01  0.3120E+02
     -8.848  0.1886E+01  0.3148E+02
     -8.740  0.1567E+01  0.3164E+02
     -8.632  0.2470E+01  0.3185E+02
     -8.524  0.6334E+01  0.3226E+02
     -8.416  0.4481E+01  0.3302E+02
     -8.308  0.3895E+01  0.3345E+02
     -8.200  0.4221E+01  0.3389E+02
     -8.091  0.7034E+01  0.3451E+02
     -7.983  0.6203E+01  0.3529E+02
     -7.875  0.7276E+01  0.3601E+02
     -7.767  0.8358E+01  0.3686E+02
     -7.659  0.8324E+01  0.3781E+02
     -7.551  0.6307E+01  0.3857E+02
     -7.443  0.6048E+01  0.3924E+02
     -7.335  0.5792E+01  0.3988E+02
     -7.227  0.5556E+01  0.4049E+02
     -7.119  0.5364E+01  0.4108E+02
     -7.011  0.5184E+01  0.4165E+02
     -6.903  0.4991E+01  0.4220E+02
     -6.795  0.4852E+01  0.4273E+02
     -6.687  0.4824E+01  0.4325E+02
     -6.579  0.4794E+01  0.4377E+02
     -6.471  0.4655E+01  0.4429E+02
     -6.363  0.4425E+01  0.4478E+02
     -6.255  0.4372E+01  0.4525E+02
     -6.147  0.4048E+01  0.4566E+02
     -6.039  0.4245E+01  0.4610E+02
     -5.931  0.4872E+01  0.4660E+02
     -5.823  0.5676E+01  0.4716E+02
     -5.715  0.6457E+01  0.4782E+02
     -5.607  0.1043E+02  0.4870E+02
     -5.498  0.8791E+01  0.4977E+02
     -5.390  0.6532E+01  0.5060E+02
     -5.282  0.4274E+01  0.5118E+02
     -5.174  0.2664E+01  0.5153E+02
     -5.066  0.2960E+01  0.5183E+02
     -4.958  0.4168E+01  0.5221E+02
     -4.850  0.5484E+01  0.5273E+02
     -4.742  0.7017E+01  0.5340E+02
     -4.634  0.8110E+01  0.5424E+02
     -4.526  0.6934E+01  0.5506E+02
     -4.418  0.5708E+01  0.5574E+02
     -4.310  0.6867E+01  0.5637E+02
     -4.202  0.7322E+01  0.5718E+02
     -4.094  0.6807E+01  0.5795E+02
     -3.986  0.6293E+01  0.5865E+02
     -3.878  0.6203E+01  0.5932E+02
     -3.770  0.6441E+01  0.5999E+02
     -3.662  0.1313E+02  0.6104E+02
     -3.554  0.9159E+01  0.6218E+02
     -3.446  0.7980E+01  0.6312E+02
     -3.338  0.6987E+01  0.6392E+02
     -3.230  0.6770E+01  0.6466E+02
     -3.122  0.7470E+01  0.6542E+02
     -3.013  0.8528E+01  0.6628E+02
     -2.905  0.1017E+02  0.6728E+02
     -2.797  0.1442E+02  0.6859E+02
     -2.689  0.1296E+02  0.7015E+02
     -2.581  0.1198E+02  0.7144E+02
     -2.473  0.1297E+02  0.7282E+02
     -2.365  0.1403E+02  0.7420E+02
     -2.257  0.1360E+02  0.7576E+02
     -2.149  0.1647E+02  0.7720E+02
     -2.041  0.1290E+02  0.7905E+02
     -1.933  0.1343E+02  0.8032E+02
     -1.825  0.1636E+02  0.8240E+02
     -1.717  0.1806E+02  0.8432E+02
     -1.609  0.1541E+02  0.8620E+02
     -1.501  0.1177E+02  0.8767E+02
     -1.393  0.1001E+02  0.8883E+02
     -1.285  0.9358E+01  0.8986E+02
     -1.177  0.7923E+01  0.9082E+02
     -1.069  0.1071E+02  0.9181E+02
     -0.961  0.1301E+02  0.9315E+02
     -0.853  0.1486E+02  0.9457E+02
     -0.745  0.9128E+01  0.9605E+02
     -0.637  0.1003E+02  0.9710E+02
     -0.528  0.1090E+02  0.9824E+02
     -0.420  0.1039E+02  0.9936E+02
     -0.312  0.1119E+02  0.1005E+03
     -0.204  0.9423E+01  0.1016E+03
     -0.096  0.9925E+01  0.1026E+03
      0.012  0.9672E+01  0.1037E+03
      0.120  0.9586E+01  0.1048E+03
      0.228  0.9265E+01  0.1058E+03
      0.336  0.9167E+01  0.1068E+03
      0.444  0.9495E+01  0.1078E+03
      0.552  0.9426E+01  0.1088E+03
      0.660  0.9395E+01  0.1098E+03
      0.768  0.9213E+01  0.1108E+03
      0.876  0.9096E+01  0.1118E+03
      0.984  0.9436E+01  0.1128E+03
      1.092  0.9531E+01  0.1138E+03
      1.200  0.9918E+01  0.1149E+03
      1.308  0.1032E+02  0.1160E+03
      1.416  0.7604E+01  0.1169E+03
      1.524  0.6584E+01  0.1177E+03
      1.632  0.5799E+01  0.1184E+03
      1.740  0.4917E+01  0.1190E+03
      1.848  0.3882E+01  0.1194E+03
      1.957  0.3753E+01  0.1198E+03
      2.065  0.6304E+01  0.1204E+03
      2.173  0.9677E+01  0.1212E+03
      2.281  0.5442E+01  0.1221E+03
      2.389  0.9385E+01  0.1230E+03
      2.497  0.6442E+01  0.1238E+03
      2.605  0.5116E+01  0.1244E+03
      2.713  0.4355E+01  0.1250E+03
      2.821  0.3705E+01  0.1254E+03
      2.929  0.3265E+01  0.1258E+03
      3.037  0.3107E+01  0.1261E+03
      3.145  0.2891E+01  0.1264E+03
      3.253  0.2435E+01  0.1267E+03
      3.361  0.2084E+01  0.1270E+03
      3.469  0.1852E+01  0.1272E+03
      3.577  0.1616E+01  0.1274E+03
      3.685  0.1376E+01  0.1275E+03
      3.793  0.1142E+01  0.1277E+03
      3.901  0.9185E+00  0.1278E+03
      4.009  0.6956E+00  0.1279E+03
      4.117  0.4988E+00  0.1279E+03
      4.225  0.3173E+00  0.1280E+03
      4.333  0.1487E+00  0.1280E+03
      4.442  0.2419E-03  0.1280E+03
      4.550  0.1137E+00  0.1280E+03
      4.658  0.2453E+00  0.1280E+03
      4.766  0.3918E+00  0.1281E+03
      4.874  0.5561E+00  0.1281E+03
      4.982  0.7481E+00  0.1282E+03
      5.090  0.9934E+00  0.1283E+03
      5.198  0.1352E+01  0.1284E+03
      5.306  0.1730E+01  0.1286E+03
      5.414  0.2080E+01  0.1288E+03
      5.522  0.2477E+01  0.1290E+03
      5.630  0.2936E+01  0.1293E+03
      5.738  0.3291E+01  0.1296E+03
      5.846  0.4209E+01  0.1300E+03
      5.954  0.6715E+01  0.1307E+03
      6.062  0.7932E+01  0.1317E+03
      6.170  0.8482E+01  0.1326E+03
      6.278  0.8148E+01  0.1335E+03
      6.386  0.7427E+01  0.1344E+03
      6.494  0.6403E+01  0.1351E+03
      6.602  0.6187E+01  0.1358E+03
      6.710  0.5624E+01  0.1364E+03
      6.818  0.5073E+01  0.1370E+03
      6.926  0.4526E+01  0.1375E+03
      7.035  0.3763E+01  0.1379E+03
      7.143  0.3595E+01  0.1383E+03
      7.251  0.3831E+01  0.1387E+03
      7.359  0.4368E+01  0.1392E+03
      7.467  0.4672E+01  0.1397E+03
      7.575  0.4657E+01  0.1402E+03
      7.683  0.4499E+01  0.1407E+03
      7.791  0.4351E+01  0.1412E+03
      7.899  0.4195E+01  0.1416E+03
      8.007  0.4044E+01  0.1421E+03
      8.115  0.3873E+01  0.1425E+03
      8.223  0.3721E+01  0.1429E+03
      8.331  0.3596E+01  0.1433E+03
      8.439  0.3514E+01  0.1437E+03
      8.547  0.3451E+01  0.1441E+03
      8.655  0.3657E+01  0.1444E+03
      8.763  0.3833E+01  0.1448E+03
      8.871  0.3917E+01  0.1453E+03
      8.979  0.4066E+01  0.1457E+03
      9.087  0.4173E+01  0.1461E+03
      9.195  0.4259E+01  0.1466E+03
      9.303  0.4280E+01  0.1471E+03
      9.411  0.4063E+01  0.1475E+03
      9.520  0.4030E+01  0.1479E+03
      9.628  0.4004E+01  0.1484E+03
      9.736  0.4027E+01  0.1488E+03
      9.844  0.4064E+01  0.1492E+03
      9.952  0.4172E+01  0.1497E+03
     10.060  0.4341E+01  0.1501E+03
     10.168  0.4416E+01  0.1506E+03
     10.276  0.4552E+01  0.1511E+03
     10.384  0.5280E+01  0.1516E+03
     10.492  0.5284E+01  0.1522E+03
     10.600  0.5880E+01  0.1528E+03
     10.708  0.4614E+01  0.1533E+03
     10.816  0.4426E+01  0.1538E+03
     10.924  0.3831E+01  0.1544E+03
     11.032  0.3949E+01  0.1548E+03
     11.140  0.3995E+01  0.1552E+03
     11.248  0.3884E+01  0.1556E+03
     11.356  0.2961E+01  0.1560E+03
     11.464  0.2760E+01  0.1563E+03
     11.572  0.4203E+01  0.1567E+03
     11.680  0.4732E+01  0.1572E+03
     11.788  0.6624E+01  0.1578E+03
     11.896  0.1017E+02  0.1587E+03
     12.005  0.1185E+02  0.1599E+03
     12.113  0.1343E+02  0.1613E+03
     12.221  0.1370E+02  0.1628E+03
     12.329  0.1129E+02  0.1642E+03
     12.437  0.8735E+01  0.1653E+03
     12.545  0.6481E+01  0.1661E+03
     12.653  0.5450E+01  0.1667E+03
     12.761  0.4570E+01  0.1673E+03
     12.869  0.2619E+01  0.1676E+03
     12.977  0.1573E+01  0.1679E+03
     13.085  0.5362E+00  0.1680E+03
     13.193  0.1116E-01  0.1680E+03
     13.301  0.0000E+00  0.1680E+03
     13.409  0.0000E+00  0.1680E+03
     13.517  0.0000E+00  0.1680E+03
     13.625  0.0000E+00  0.1680E+03
     13.733  0.0000E+00  0.1680E+03
     13.841  0.0000E+00  0.1680E+03
     13.949  0.0000E+00  0.1680E+03
     14.057  0.0000E+00  0.1680E+03
     14.165  0.0000E+00  0.1680E+03
     14.273  0.0000E+00  0.1680E+03
     14.381  0.0000E+00  0.1680E+03
     14.490  0.0000E+00  0.1680E+03
     14.598  0.0000E+00  0.1680E+03
     14.706  0.0000E+00  0.1680E+03
     14.814  0.0000E+00  0.1680E+03
     14.922  0.0000E+00  0.1680E+03
     15.030  0.0000E+00  0.1680E+03
     15.138  0.0000E+00  0.1680E+03
     15.246  0.0000E+00  0.1680E+03
