   32   32    1    1
  0.9079817E+01  0.4932875E-09  0.4932875E-09  0.1379404E-08  0.5000000E-15
  1.000000000000000E-004
  CAR 
 graphite                                
    128    163     84
 
  0.0000000E+00  0.0000000E+00  0.0000000E+00  0.3086420E-02
    1      -15.167106
    2      -15.049742
    3      -15.049393
    4      -14.925320
    5       -9.860213
    6       -9.849627
    7       -9.846781
    8       -9.813797
    9       -9.812004
   10       -9.801933
   11       -9.800306
   12       -9.800301
   13       -9.796621
   14       -9.771976
   15       -9.759343
   16       -9.756758
   17       -8.789410
   18       -8.788130
   19       -8.786940
   20       -8.763272
   21       -8.762294
   22       -8.760364
   23       -8.759689
   24       -8.759683
   25       -8.757463
   26       -8.721551
   27       -8.720772
   28       -8.718432
   29       -3.950038
   30       -3.176561
   31       -3.175078
   32       -2.245044
   33       -1.962313
   34       -1.960108
   35       -1.944916
   36       -1.941075
   37       -1.940452
   38       -1.940449
   39       -1.936753
   40       -1.924158
   41       -1.921751
   42       -1.919542
   43       -1.916823
   44       -1.901589
   45        1.430308
   46        1.436247
   47        1.436265
   48        1.440856
   49        1.447976
   50        1.452302
   51        1.452391
   52        1.458210
   53        1.743040
   54        1.746559
   55        1.748623
   56        2.078962
   57        2.081725
   58        2.088817
   59        2.089329
   60        2.089366
   61        2.093069
   62        2.325190
   63        2.341608
   64        2.343406
   65        5.945837
   66        5.948047
   67        5.952759
   68        6.096046
   69        6.098704
   70        6.100708
   71        6.103143
   72        6.103411
   73        6.106513
   74        6.549764
   75        6.555965
   76        6.559181
   77        8.527597
   78       10.953735
   79       10.956855
   80       11.669964
   81       11.673810
   82       11.705520
   83       11.827094
   84       11.829857
 
  0.1111111E+00  0.0000000E+00  0.0000000E+00  0.6172840E-02
    1      -15.093512
    2      -14.976675
    3      -14.976328
    4      -14.852844
    5      -10.639046
    6      -10.556423
    7      -10.556052
    8      -10.470839
    9      -10.103574
   10      -10.094607
   11      -10.033215
   12      -10.032134
   13      -10.023388
   14      -10.022738
   15       -9.961275
   16       -9.951378
   17       -8.478067
   18       -8.473904
   19       -8.422041
   20       -8.420081
   21       -8.416583
   22       -8.415864
   23       -8.358719
   24       -8.353920
   25       -7.960758
   26       -7.896902
   27       -7.895186
   28       -7.828676
   29       -3.860785
   30       -3.089487
   31       -3.088008
   32       -2.188006
   33       -2.171185
   34       -2.164281
   35       -2.164076
   36       -2.160871
   37       -2.148160
   38       -2.145940
   39       -2.140071
   40       -2.122990
   41       -1.888042
   42       -1.868207
   43       -1.865592
   44       -1.845430
   45        1.134913
   46        1.145637
   47        1.149993
   48        1.158062
   49        1.171712
   50        1.276524
   51        1.284021
   52        1.287909
   53        1.297674
   54        1.631490
   55        1.636179
   56        1.662410
   57        1.664704
   58        2.027398
   59        2.030087
   60        2.036998
   61        2.037604
   62        2.155717
   63        2.364626
   64        2.378968
   65        6.035378
   66        6.038584
   67        6.228119
   68        6.231494
   69        6.233538
   70        6.237008
   71        6.347227
   72        6.640036
   73        6.644325
   74        6.684279
   75        6.692140
   76        7.146886
   77        8.617461
   78       11.034148
   79       11.037256
   80       11.712491
   81       11.867015
   82       11.868122
   83       12.005397
   84       12.028412
 
  0.2222222E+00  0.0000000E+00  0.0000000E+00  0.6172840E-02
    1      -14.873148
    2      -14.757815
    3      -14.757474
    4      -14.635742
    5      -11.648730
    6      -11.556262
    7      -11.555989
    8      -11.459842
    9      -10.448312
   10      -10.442352
   11      -10.367677
   12      -10.366986
   13      -10.361330
   14      -10.360602
   15      -10.283463
   16      -10.277165
   17       -7.796174
   18       -7.788823
   19       -7.734672
   20       -7.732846
   21       -7.726444
   22       -7.725856
   23       -7.668436
   24       -7.660970
   25       -6.635766
   26       -6.576425
   27       -6.574796
   28       -6.513512
   29       -3.593837
   30       -2.829089
   31       -2.827621
   32       -2.793637
   33       -2.777622
   34       -2.764284
   35       -2.764150
   36       -2.749036
   37       -2.746950
   38       -2.734069
   39       -2.717915
   40       -1.909860
   41       -1.673121
   42       -1.653631
   43       -1.650938
   44       -1.631226
   45        0.160910
   46        0.312432
   47        0.327729
   48        0.331672
   49        0.346779
   50        0.772467
   51        0.774182
   52        0.857052
   53        0.867913
   54        0.872038
   55        0.883988
   56        1.418862
   57        1.423446
   58        1.462674
   59        1.906746
   60        1.909319
   61        1.914571
   62        1.915242
   63        2.396702
   64        2.406939
   65        6.301673
   66        6.303434
   67        6.562210
   68        6.565082
   69        6.567755
   70        6.570904
   71        6.995536
   72        7.001168
   73        7.499850
   74        7.863222
   75        7.866786
   76        8.359777
   77        8.887679
   78       11.274615
   79       11.277704
   80       11.826130
   81       11.975557
   82       11.976867
   83       12.106176
   84       12.846330
 
  0.3333333E+00  0.2775558E-16  0.0000000E+00  0.6172840E-02
    1      -14.507125
    2      -14.394326
    3      -14.393996
    4      -14.275144
    5      -12.560661
    6      -12.461626
    7      -12.461338
    8      -12.357588
    9      -10.703796
   10      -10.700115
   11      -10.619358
   12      -10.618644
   13      -10.615412
   14      -10.614472
   15      -10.530864
   16      -10.527050
   17       -6.989081
   18       -6.980073
   19       -6.932602
   20       -6.930677
   21       -6.922954
   22       -6.922068
   23       -6.872379
   24       -6.863501
   25       -5.203785
   26       -5.152677
   27       -5.150816
   28       -5.098436
   29       -3.608300
   30       -3.594301
   31       -3.573685
   32       -3.573144
   33       -3.560291
   34       -3.558123
   35       -3.537428
   36       -3.523256
   37       -3.151915
   38       -2.398705
   39       -2.397242
   40       -1.495796
   41       -1.323924
   42       -1.305500
   43       -1.302646
   44       -1.283614
   45       -0.871358
   46       -0.855837
   47       -0.845122
   48       -0.843523
   49       -0.819922
   50       -0.181724
   51       -0.180246
   52        0.294496
   53        0.308226
   54        0.312113
   55        0.326486
   56        0.604270
   57        1.233472
   58        1.236937
   59        1.783276
   60        1.785863
   61        1.789044
   62        1.789763
   63        2.383475
   64        2.389740
   65        6.671127
   66        6.674322
   67        6.953501
   68        6.955512
   69        6.958072
   70        6.961166
   71        7.313175
   72        7.316725
   73        9.008665
   74        9.332401
   75        9.343794
   76        9.347901
   77        9.775906
   78       11.662875
   79       11.666101
   80       11.683160
   81       12.059067
   82       12.139504
   83       12.141068
   84       12.385993
 
  0.4444444E+00  0.0000000E+00  0.0000000E+00  0.6172840E-02
    1      -13.997261
    2      -13.888040
    3      -13.887725
    4      -13.772880
    5      -13.346664
    6      -13.242086
    7      -13.241780
    8      -13.132042
    9      -10.835411
   10      -10.833417
   11      -10.749864
   12      -10.748742
   13      -10.747686
   14      -10.746260
   15      -10.659301
   16      -10.657255
   17       -6.241365
   18       -6.234579
   19       -6.201121
   20       -6.198977
   21       -6.194372
   22       -6.192130
   23       -6.158558
   24       -6.152306
   25       -4.358398
   26       -4.350636
   27       -4.330230
   28       -4.328395
   29       -4.322293
   30       -4.319798
   31       -4.297265
   32       -4.288869
   33       -3.724794
   34       -3.682984
   35       -3.680753
   36       -3.637994
   37       -2.540242
   38       -2.254734
   39       -2.222348
   40       -2.219551
   41       -2.186304
   42       -1.803990
   43       -1.802657
   44       -1.768210
   45       -1.057774
   46       -1.056371
   47       -0.926267
   48       -0.857791
   49       -0.840207
   50       -0.837128
   51       -0.819230
   52       -0.302463
   53       -0.286541
   54       -0.282973
   55       -0.266461
   56       -0.216166
   57        1.130615
   58        1.132866
   59        1.709093
   60        1.712050
   61        1.713130
   62        1.714053
   63        2.362047
   64        2.365021
   65        6.960067
   66        6.962922
   67        7.221369
   68        7.221993
   69        7.223235
   70        7.227070
   71        7.494793
   72        7.497350
   73        9.966931
   74       10.626947
   75       10.766260
   76       10.878610
   77       10.882388
   78       11.242776
   79       12.047183
   80       12.056363
   81       12.212838
   82       12.275049
   83       12.312040
   84       12.314276
 
  0.0000000E+00  0.1111111E+00  0.0000000E+00  0.6172840E-02
    1      -15.093511
    2      -14.976674
    3      -14.976326
    4      -14.852842
    5      -10.639153
    6      -10.556479
    7      -10.556234
    8      -10.470973
    9      -10.103556
   10      -10.094291
   11      -10.033161
   12      -10.032134
   13      -10.023380
   14      -10.022074
   15       -9.961255
   16       -9.951004
   17       -8.478411
   18       -8.474914
   19       -8.422054
   20       -8.421535
   21       -8.416829
   22       -8.416538
   23       -8.358978
   24       -8.354718
   25       -7.959765
   26       -7.895230
   27       -7.894961
   28       -7.827764
   29       -3.860789
   30       -3.089492
   31       -3.088013
   32       -2.186848
   33       -2.170894
   34       -2.164274
   35       -2.161845
   36       -2.160858
   37       -2.148190
   38       -2.145940
   39       -2.138898
   40       -2.123067
   41       -1.889067
   42       -1.868213
   43       -1.867969
   44       -1.846864
   45        1.139876
   46        1.149031
   47        1.149996
   48        1.158945
   49        1.171626
   50        1.275105
   51        1.283984
   52        1.284023
   53        1.292864
   54        1.631621
   55        1.637152
   56        1.662252
   57        1.663030
   58        2.027740
   59        2.030085
   60        2.037037
   61        2.039688
   62        2.154664
   63        2.364691
   64        2.380082
   65        6.033622
   66        6.038447
   67        6.227581
   68        6.230122
   69        6.232933
   70        6.235418
   71        6.349012
   72        6.642684
   73        6.645126
   74        6.684190
   75        6.690073
   76        7.148638
   77        8.617456
   78       11.034129
   79       11.037237
   80       11.711868
   81       11.866685
   82       11.867155
   83       12.008521
   84       12.027123
 
  0.1111111E+00  0.1111111E+00  0.0000000E+00  0.6172840E-02
    1      -14.946440
    2      -14.830590
    3      -14.830248
    4      -14.707931
    5      -11.103697
    6      -11.100776
    7      -11.017057
    8      -11.014268
    9      -11.014249
   10      -11.011185
   11      -10.924074
   12      -10.921100
   13       -9.671135
   14       -9.625369
   15       -9.624049
   16       -9.584807
   17       -8.603992
   18       -8.579336
   19       -8.576083
   20       -8.539832
   21       -7.277776
   22       -7.274535
   23       -7.216861
   24       -7.213034
   25       -7.213015
   26       -7.210562
   27       -7.149657
   28       -7.146546
   29       -3.682563
   30       -2.915628
   31       -2.914154
   32       -2.852763
   33       -2.824019
   34       -2.821895
   35       -2.792612
   36       -2.043235
   37       -2.040929
   38       -2.020597
   39       -2.019303
   40       -2.019299
   41       -2.015474
   42       -1.996400
   43       -1.993384
   44       -1.993184
   45        0.606690
   46        0.617135
   47        0.621218
   48        0.629205
   49        0.741086
   50        0.742831
   51        0.962007
   52        0.968201
   53        0.972086
   54        0.981762
   55        1.302043
   56        1.303526
   57        1.303626
   58        1.306832
   59        1.911520
   60        1.913814
   61        2.010381
   62        2.345375
   63        2.347813
   64        2.587347
   65        5.928626
   66        6.024033
   67        6.028737
   68        6.389847
   69        6.843712
   70        6.846197
   71        7.181831
   72        7.186479
   73        7.186804
   74        7.188409
   75        7.675597
   76        7.678345
   77        8.797812
   78       11.195563
   79       11.198658
   80       12.083032
   81       12.087009
   82       12.236855
   83       12.240170
   84       12.242957
 
  0.2222222E+00  0.1111111E+00  0.0000000E+00  0.6172840E-02
    1      -14.653124
    2      -14.539327
    3      -14.538993
    4      -14.418983
    5      -12.067919
    6      -11.972337
    7      -11.972058
    8      -11.872475
    9      -11.444030
   10      -11.353339
   11      -11.353017
   12      -11.258312
   13       -9.718152
   14       -9.650369
   15       -9.649688
   16       -9.581557
   17       -8.131462
   18       -8.079708
   19       -8.077018
   20       -8.020697
   21       -6.492624
   22       -6.435274
   23       -6.434849
   24       -6.376031
   25       -5.896002
   26       -5.841233
   27       -5.839604
   28       -5.783637
   29       -3.759672
   30       -3.724215
   31       -3.722146
   32       -3.685811
   33       -3.327936
   34       -2.570036
   35       -2.569059
   36       -2.568295
   37       -2.540609
   38       -2.540372
   39       -2.511532
   40       -1.755336
   41       -1.733945
   42       -1.731316
   43       -1.709595
   44       -1.660379
   45       -0.345656
   46       -0.329783
   47       -0.324960
   48       -0.310181
   49       -0.292001
   50        0.351806
   51        0.353213
   52        0.409041
   53        0.418848
   54        0.428694
   55        0.433567
   56        0.445919
   57        1.015107
   58        1.016139
   59        1.095110
   60        1.697990
   61        2.151612
   62        2.547974
   63        2.550339
   64        2.884183
   65        5.913858
   66        6.032068
   67        6.036379
   68        6.341120
   69        7.424998
   70        7.755732
   71        7.757787
   72        8.175361
   73        8.207253
   74        8.554464
   75        8.557573
   76        9.002586
   77        9.159331
   78       11.516419
   79       11.519537
   80       12.167733
   81       12.350803
   82       12.377251
   83       12.378499
   84       12.693805
 
  0.3333333E+00  0.1111111E+00  0.0000000E+00  0.6172840E-02
    1      -14.215032
    2      -14.104324
    3      -14.104004
    4      -13.987459
    5      -12.917371
    6      -12.815780
    7      -12.815482
    8      -12.709045
    9      -11.652695
   10      -11.560345
   11      -11.560014
   12      -11.463502
   13       -9.860339
   14       -9.784069
   15       -9.783787
   16       -9.705122
   17       -7.365462
   18       -7.313765
   19       -7.311242
   20       -7.257818
   21       -5.694533
   22       -5.647685
   23       -5.646568
   24       -5.598964
   25       -4.697894
   26       -4.660717
   27       -4.658468
   28       -4.619618
   29       -4.448101
   30       -4.402388
   31       -4.400533
   32       -4.353812
   33       -3.267696
   34       -3.237386
   35       -3.236355
   36       -3.204675
   37       -2.800788
   38       -2.057469
   39       -2.055973
   40       -1.588956
   41       -1.562935
   42       -1.559186
   43       -1.533956
   44       -1.339089
   45       -1.318982
   46       -1.316242
   47       -1.295814
   48       -1.264096
   49       -1.167974
   50       -0.572342
   51       -0.570954
   52       -0.205280
   53       -0.190546
   54       -0.186314
   55       -0.170737
   56        0.202086
   57        0.241949
   58        0.830752
   59        0.831897
   60        1.553396
   61        2.157431
   62        2.638847
   63        2.640821
   64        3.128667
   65        5.933113
   66        6.150799
   67        6.154186
   68        6.440983
   69        7.931392
   70        8.210771
   71        8.212548
   72        8.518935
   73        9.699874
   74        9.770687
   75       10.060761
   76       10.063722
   77       10.434319
   78       11.299518
   79       11.968740
   80       11.972870
   81       12.476193
   82       12.541596
   83       12.543045
   84       12.767361
 
  0.4444444E+00  0.1111111E+00  0.0000000E+00  0.6172840E-02
    1      -13.636720
    2      -13.633823
    3      -13.531195
    4      -13.528934
    5      -13.527971
    6      -13.525608
    7      -13.417708
    8      -13.414767
    9      -11.723229
   10      -11.630389
   11      -11.630051
   12      -11.532992
   13       -9.914769
   14       -9.836849
   15       -9.836621
   16       -9.755908
   17       -6.859236
   18       -6.826657
   19       -6.824313
   20       -6.793273
   21       -5.224975
   22       -5.223792
   23       -5.204860
   24       -5.202633
   25       -5.197838
   26       -5.194888
   27       -5.178233
   28       -5.169239
   29       -3.686540
   30       -3.668846
   31       -3.665996
   32       -3.645073
   33       -2.991900
   34       -2.987629
   35       -2.956941
   36       -2.952317
   37       -2.950611
   38       -2.950338
   39       -2.916394
   40       -2.912990
   41       -2.109810
   42       -2.107371
   43       -1.387901
   44       -1.385951
   45       -1.385106
   46       -1.382369
   47       -0.813313
   48       -0.809231
   49       -0.794203
   50       -0.793769
   51       -0.791562
   52       -0.785547
   53       -0.773840
   54       -0.766179
   55       -0.528547
   56       -0.525836
   57        0.130851
   58        0.766838
   59        0.768087
   60        1.501873
   61        2.149049
   62        2.662674
   63        2.664133
   64        3.217259
   65        5.955516
   66        6.218115
   67        6.220411
   68        6.496518
   69        8.147932
   70        8.388054
   71        8.390029
   72        8.629983
   73       10.416602
   74       10.418226
   75       11.355455
   76       11.358746
   77       11.543321
   78       11.550487
   79       11.550929
   80       11.555097
   81       11.859527
   82       11.863189
   83       12.532808
   84       12.533774
 
 -0.4444444E+00  0.1111111E+00  0.0000000E+00  0.6172840E-02
    1      -14.215790
    2      -14.105068
    3      -14.104743
    4      -13.988204
    5      -12.916195
    6      -12.814604
    7      -12.814309
    8      -12.707935
    9      -11.654463
   10      -11.562059
   11      -11.561725
   12      -11.465287
   13       -9.857407
   14       -9.780961
   15       -9.780721
   16       -9.701871
   17       -7.358842
   18       -7.306315
   19       -7.305499
   20       -7.251300
   21       -5.704403
   22       -5.658068
   23       -5.655473
   24       -5.608349
   25       -4.708436
   26       -4.670631
   27       -4.670034
   28       -4.630655
   29       -4.450658
   30       -4.405119
   31       -4.402916
   32       -4.356379
   33       -3.255031
   34       -3.225337
   35       -3.222549
   36       -3.191595
   37       -2.801598
   38       -2.058263
   39       -2.056779
   40       -1.587437
   41       -1.560975
   42       -1.558562
   43       -1.532885
   44       -1.336621
   45       -1.316703
   46       -1.313531
   47       -1.293254
   48       -1.262926
   49       -1.168767
   50       -0.571202
   51       -0.569758
   52       -0.206698
   53       -0.191538
   54       -0.188658
   55       -0.173044
   56        0.200321
   57        0.243043
   58        0.828563
   59        0.829911
   60        1.550777
   61        2.159284
   62        2.642977
   63        2.643912
   64        3.135576
   65        5.932159
   66        6.152682
   67        6.154390
   68        6.441520
   69        7.927344
   70        8.206731
   71        8.209435
   72        8.517106
   73        9.698794
   74        9.770477
   75       10.059656
   76       10.062930
   77       10.432768
   78       11.301155
   79       11.967905
   80       11.972017
   81       12.473534
   82       12.539145
   83       12.541418
   84       12.764286
 
 -0.3333333E+00  0.1111111E+00  0.0000000E+00  0.6172840E-02
    1      -14.653651
    2      -14.539853
    3      -14.539516
    4      -14.419519
    5      -12.066390
    6      -11.971010
    7      -11.970732
    8      -11.871081
    9      -11.447609
   10      -11.356938
   11      -11.356625
   12      -11.261944
   13       -9.711578
   14       -9.643084
   15       -9.642857
   16       -9.573924
   17       -8.127077
   18       -8.073752
   19       -8.073439
   20       -8.015650
   21       -6.502511
   22       -6.445917
   23       -6.443793
   24       -6.385712
   25       -5.898473
   26       -5.843855
   27       -5.842033
   28       -5.786109
   29       -3.773467
   30       -3.737109
   31       -3.736992
   32       -3.699735
   33       -3.328522
   34       -2.570575
   35       -2.569120
   36       -2.552828
   37       -2.525575
   38       -2.523125
   39       -2.495314
   40       -1.753394
   41       -1.732107
   42       -1.729278
   43       -1.707642
   44       -1.660956
   45       -0.346228
   46       -0.330254
   47       -0.327872
   48       -0.312352
   49       -0.290672
   50        0.353013
   51        0.354520
   52        0.405598
   53        0.420925
   54        0.431384
   55        0.434091
   56        0.445363
   57        1.010785
   58        1.012236
   59        1.096234
   60        1.692669
   61        2.154396
   62        2.555638
   63        2.556092
   64        2.897147
   65        5.910215
   66        6.034855
   67        6.036801
   68        6.344318
   69        7.420254
   70        7.749566
   71        7.752940
   72        8.171026
   73        8.206558
   74        8.553058
   75        8.556513
   76        9.000854
   77        9.158539
   78       11.515587
   79       11.518700
   80       12.167058
   81       12.350535
   82       12.375136
   83       12.376914
   84       12.692369
 
 -0.2222222E+00  0.1111111E+00  0.0000000E+00  0.6172840E-02
    1      -14.946762
    2      -14.830914
    3      -14.830569
    4      -14.708255
    5      -11.107647
    6      -11.100605
    7      -11.019858
    8      -11.019589
    9      -11.012762
   10      -11.012479
   11      -10.928393
   12      -10.921082
   13       -9.660001
   14       -9.612778
   15       -9.612606
   16       -9.571746
   17       -8.603918
   18       -8.577220
   19       -8.577061
   20       -8.538751
   21       -7.283810
   22       -7.278760
   23       -7.222006
   24       -7.220031
   25       -7.216857
   26       -7.215190
   27       -7.155847
   28       -7.150892
   29       -3.682918
   30       -2.915981
   31       -2.914509
   32       -2.868261
   33       -2.838685
   34       -2.838502
   35       -2.808240
   36       -2.040187
   37       -2.025415
   38       -2.018111
   39       -2.015471
   40       -2.003205
   41       -2.000836
   42       -1.993619
   43       -1.993045
   44       -1.978440
   45        0.601250
   46        0.611212
   47        0.611272
   48        0.620926
   49        0.736754
   50        0.743609
   51        0.970598
   52        0.978039
   53        0.978072
   54        0.986176
   55        1.296751
   56        1.298347
   57        1.304606
   58        1.306568
   59        1.904031
   60        1.914033
   61        2.013477
   62        2.355022
   63        2.355267
   64        2.603647
   65        5.923362
   66        6.027416
   67        6.029738
   68        6.395886
   69        6.842621
   70        6.843512
   71        7.178725
   72        7.182250
   73        7.182623
   74        7.186127
   75        7.671757
   76        7.674513
   77        8.797321
   78       11.195013
   79       11.198106
   80       12.084155
   81       12.117288
   82       12.238933
   83       12.245000
   84       12.272443
 
 -0.1111111E+00  0.1111111E+00  0.0000000E+00  0.6172840E-02
    1      -15.093616
    2      -14.976780
    3      -14.976431
    4      -14.852947
    5      -10.646724
    6      -10.564244
    7      -10.563969
    8      -10.478856
    9      -10.094253
   10      -10.092039
   11      -10.023751
   12      -10.021966
   13      -10.021956
   14      -10.019266
   15       -9.951114
   16       -9.948848
   17       -8.477141
   18       -8.475232
   19       -8.421045
   20       -8.418183
   21       -8.418172
   22       -8.417381
   23       -8.357175
   24       -8.355409
   25       -7.965518
   26       -7.901889
   27       -7.899810
   28       -7.833576
   29       -3.860908
   30       -3.089610
   31       -3.088132
   32       -2.188051
   33       -2.185978
   34       -2.164882
   35       -2.163876
   36       -2.163872
   37       -2.161064
   38       -2.160167
   39       -2.140453
   40       -2.137698
   41       -1.871906
   42       -1.851906
   43       -1.849612
   44       -1.829457
   45        1.129329
   46        1.137872
   47        1.141407
   48        1.150387
   49        1.166338
   50        1.282444
   51        1.292298
   52        1.296173
   53        1.303555
   54        1.636240
   55        1.638408
   56        1.654069
   57        1.655797
   58        2.036749
   59        2.037557
   60        2.037633
   61        2.041228
   62        2.143414
   63        2.378689
   64        2.380679
   65        6.033319
   66        6.035711
   67        6.228307
   68        6.233732
   69        6.233993
   70        6.235551
   71        6.348693
   72        6.637073
   73        6.641282
   74        6.688368
   75        6.691366
   76        7.142142
   77        8.617290
   78       11.033936
   79       11.037045
   80       11.745255
   81       11.899674
   82       11.900958
   83       12.004471
   84       12.010196
 
  0.0000000E+00  0.2222222E+00  0.0000000E+00  0.6172840E-02
    1      -14.873141
    2      -14.757809
    3      -14.757465
    4      -14.635734
    5      -11.648713
    6      -11.556250
    7      -11.555969
    8      -11.459827
    9      -10.448476
   10      -10.442142
   11      -10.368099
   12      -10.366995
   13      -10.361322
   14      -10.359959
   15      -10.283567
   16      -10.276888
   17       -7.796539
   18       -7.789684
   19       -7.734683
   20       -7.734078
   21       -7.726769
   22       -7.726402
   23       -7.668689
   24       -7.661622
   25       -6.634848
   26       -6.574842
   27       -6.574601
   28       -6.512646
   29       -3.593856
   30       -2.829108
   31       -2.827641
   32       -2.792526
   33       -2.777484
   34       -2.764170
   35       -2.761938
   36       -2.748923
   37       -2.746949
   38       -2.732799
   39       -2.717872
   40       -1.909886
   41       -1.674202
   42       -1.653639
   43       -1.653445
   44       -1.632749
   45        0.160442
   46        0.315423
   47        0.331671
   48        0.331851
   49        0.348431
   50        0.772229
   51        0.773299
   52        0.855540
   53        0.867905
   54        0.867994
   55        0.880309
   56        1.418958
   57        1.424354
   58        1.462015
   59        1.907074
   60        1.909304
   61        1.914639
   62        1.917137
   63        2.396844
   64        2.408028
   65        6.300348
   66        6.302722
   67        6.561444
   68        6.563467
   69        6.567486
   70        6.569458
   71        6.994805
   72        6.999826
   73        7.501278
   74        7.865129
   75        7.867482
   76        8.361055
   77        8.887666
   78       11.274546
   79       11.277636
   80       11.825481
   81       11.975391
   82       11.975689
   83       12.105497
   84       12.855348
 
  0.1111111E+00  0.2222222E+00  0.0000000E+00  0.6172840E-02
    1      -14.653119
    2      -14.539323
    3      -14.538987
    4      -14.418977
    5      -12.067880
    6      -11.972307
    7      -11.972009
    8      -11.872436
    9      -11.444058
   10      -11.353352
   11      -11.353058
   12      -11.258338
   13       -9.718142
   14       -9.650348
   15       -9.649688
   16       -9.581547
   17       -8.131528
   18       -8.079708
   19       -8.077177
   20       -8.020793
   21       -6.493629
   22       -6.436834
   23       -6.435252
   24       -6.376993
   25       -5.894999
   26       -5.839628
   27       -5.839255
   28       -5.782681
   29       -3.759580
   30       -3.724061
   31       -3.722145
   32       -3.685746
   33       -3.327950
   34       -2.570025
   35       -2.568637
   36       -2.567577
   37       -2.540381
   38       -2.538037
   39       -2.510119
   40       -1.756519
   41       -1.734014
   42       -1.733925
   43       -1.711158
   44       -1.660399
   45       -0.343756
   46       -0.328045
   47       -0.324958
   48       -0.309683
   49       -0.292271