  32  32   0   0
  0.8861552E+01  0.4932875E-09  0.4932875E-09  0.1346245E-08  0.5000000E-15
  1.000000000000000E-004
  CAR 
 graphite                                
     15.31005586    -16.97856371  301      4.64619269      1.00000000
    -16.979  0.0000E+00  0.0000E+00
    -16.871  0.0000E+00  0.0000E+00
    -16.763  0.0000E+00  0.0000E+00
    -16.656  0.0000E+00  0.0000E+00
    -16.548  0.0000E+00  0.0000E+00
    -16.440  0.0000E+00  0.0000E+00
    -16.333  0.0000E+00  0.0000E+00
    -16.225  0.0000E+00  0.0000E+00
    -16.118  0.0000E+00  0.0000E+00
    -16.010  0.0000E+00  0.0000E+00
    -15.902  0.0000E+00  0.0000E+00
    -15.795  0.0000E+00  0.0000E+00
    -15.687  0.0000E+00  0.0000E+00
    -15.579  0.0000E+00  0.0000E+00
    -15.472  0.0000E+00  0.0000E+00
    -15.364  0.0000E+00  0.0000E+00
    -15.257  0.0000E+00  0.0000E+00
    -15.149  0.0000E+00  0.0000E+00
    -15.041  0.0000E+00  0.0000E+00
    -14.934  0.8129E+00  0.1396E-01
    -14.826  0.2298E+01  0.2001E+00
    -14.718  0.3686E+01  0.5211E+00
    -14.611  0.4706E+01  0.1009E+01
    -14.503  0.5023E+01  0.1535E+01
    -14.395  0.4873E+01  0.2069E+01
    -14.288  0.4937E+01  0.2597E+01
    -14.180  0.4903E+01  0.3130E+01
    -14.073  0.4971E+01  0.3661E+01
    -13.965  0.4969E+01  0.4196E+01
    -13.857  0.5009E+01  0.4732E+01
    -13.750  0.5492E+01  0.5290E+01
    -13.642  0.5848E+01  0.5905E+01
    -13.534  0.7262E+01  0.6589E+01
    -13.427  0.4104E+01  0.7243E+01
    -13.319  0.2572E+01  0.7669E+01
    -13.212  0.2636E+01  0.7886E+01
    -13.104  0.4102E+01  0.8288E+01
    -12.996  0.4543E+01  0.8755E+01
    -12.889  0.5956E+01  0.9466E+01
    -12.781  0.6633E+01  0.1012E+02
    -12.673  0.4309E+01  0.1075E+02
    -12.566  0.4484E+01  0.1123E+02
    -12.458  0.4651E+01  0.1172E+02
    -12.351  0.4767E+01  0.1223E+02
    -12.243  0.5038E+01  0.1275E+02
    -12.135  0.5259E+01  0.1331E+02
    -12.028  0.5928E+01  0.1392E+02
    -11.920  0.5428E+01  0.1452E+02
    -11.812  0.5166E+01  0.1510E+02
    -11.705  0.5005E+01  0.1565E+02
    -11.597  0.4897E+01  0.1618E+02
    -11.489  0.5008E+01  0.1671E+02
    -11.382  0.5079E+01  0.1725E+02
    -11.274  0.5151E+01  0.1780E+02
    -11.167  0.5409E+01  0.1837E+02
    -11.059  0.5668E+01  0.1897E+02
    -10.951  0.5847E+01  0.1960E+02
    -10.844  0.5770E+01  0.2022E+02
    -10.736  0.5786E+01  0.2084E+02
    -10.628  0.5738E+01  0.2147E+02
    -10.521  0.4559E+01  0.2202E+02
    -10.413  0.4887E+01  0.2252E+02
    -10.306  0.5287E+01  0.2307E+02
    -10.198  0.5369E+01  0.2364E+02
    -10.090  0.5537E+01  0.2423E+02
     -9.983  0.5772E+01  0.2483E+02
     -9.875  0.6695E+01  0.2548E+02
     -9.767  0.8666E+01  0.2628E+02
     -9.660  0.8797E+01  0.2732E+02
     -9.552  0.5866E+01  0.2809E+02
     -9.445  0.6183E+01  0.2879E+02
     -9.337  0.3808E+01  0.2943E+02
     -9.229  0.3440E+01  0.2982E+02
     -9.122  0.3071E+01  0.3017E+02
     -9.014  0.2702E+01  0.3048E+02
     -8.906  0.2333E+01  0.3075E+02
     -8.799  0.2986E+01  0.3102E+02
     -8.691  0.2540E+01  0.3134E+02
     -8.584  0.1374E+01  0.3155E+02
     -8.476  0.2005E+01  0.3173E+02
     -8.368  0.3399E+01  0.3200E+02
     -8.261  0.7215E+01  0.3267E+02
     -8.153  0.4183E+01  0.3322E+02
     -8.045  0.4045E+01  0.3365E+02
     -7.938  0.4406E+01  0.3410E+02
     -7.830  0.7925E+01  0.3485E+02
     -7.722  0.6653E+01  0.3559E+02
     -7.615  0.7727E+01  0.3636E+02
     -7.507  0.8880E+01  0.3725E+02
     -7.400  0.7354E+01  0.3816E+02
     -7.292  0.6198E+01  0.3885E+02
     -7.184  0.5935E+01  0.3950E+02
     -7.077  0.5684E+01  0.4013E+02
     -6.969  0.5472E+01  0.4073E+02
     -6.861  0.5288E+01  0.4131E+02
     -6.754  0.5108E+01  0.4187E+02
     -6.646  0.4913E+01  0.4241E+02
     -6.539  0.4839E+01  0.4293E+02
     -6.431  0.4813E+01  0.4345E+02
     -6.323  0.4780E+01  0.4397E+02
     -6.216  0.4573E+01  0.4447E+02
     -6.108  0.4414E+01  0.4495E+02
     -6.000  0.3600E+01  0.4541E+02
     -5.893  0.4062E+01  0.4581E+02
     -5.785  0.4495E+01  0.4627E+02
     -5.678  0.5180E+01  0.4679E+02
     -5.570  0.5991E+01  0.4739E+02
     -5.462  0.7638E+01  0.4808E+02
     -5.355  0.1037E+02  0.4909E+02
     -5.247  0.8062E+01  0.5009E+02
     -5.139  0.5758E+01  0.5083E+02
     -5.032  0.3453E+01  0.5133E+02
     -4.924  0.2601E+01  0.5163E+02
     -4.817  0.3278E+01  0.5193E+02
     -4.709  0.4584E+01  0.5235E+02
     -4.601  0.5931E+01  0.5292E+02
     -4.494  0.7689E+01  0.5365E+02
     -4.386  0.7830E+01  0.5451E+02
     -4.278  0.6591E+01  0.5528E+02
     -4.171  0.5648E+01  0.5593E+02
     -4.063  0.7731E+01  0.5660E+02
     -3.955  0.7210E+01  0.5741E+02
     -3.848  0.6690E+01  0.5815E+02
     -3.740  0.6759E+01  0.5887E+02
     -3.633  0.6467E+01  0.5958E+02
     -3.525  0.8470E+01  0.6036E+02
     -3.417  0.1251E+02  0.6159E+02
     -3.310  0.8625E+01  0.6252E+02
     -3.202  0.7936E+01  0.6341E+02
     -3.094  0.7068E+01  0.6423E+02
     -2.987  0.6925E+01  0.6496E+02
     -2.879  0.7818E+01  0.6575E+02
     -2.772  0.8928E+01  0.6665E+02
     -2.664  0.1153E+02  0.6772E+02
     -2.556  0.1406E+02  0.6914E+02
     -2.449  0.1146E+02  0.7059E+02
     -2.341  0.1261E+02  0.7183E+02
     -2.233  0.1229E+02  0.7316E+02
     -2.126  0.1495E+02  0.7454E+02
     -2.018  0.1272E+02  0.7611E+02
     -1.911  0.1839E+02  0.7764E+02
     -1.803  0.1121E+02  0.7933E+02
     -1.695  0.1718E+02  0.8059E+02
     -1.588  0.1749E+02  0.8270E+02
     -1.480  0.1900E+02  0.8467E+02
     -1.372  0.1439E+02  0.8642E+02
     -1.265  0.1208E+02  0.8785E+02
     -1.157  0.1105E+02  0.8907E+02
     -1.050  0.8656E+01  0.9014E+02
     -0.942  0.7708E+01  0.9101E+02
     -0.834  0.1113E+02  0.9201E+02
     -0.727  0.1360E+02  0.9340E+02
     -0.619  0.1738E+02  0.9494E+02
     -0.511  0.8735E+01  0.9628E+02
     -0.404  0.9982E+01  0.9726E+02
     -0.296  0.1080E+02  0.9836E+02
     -0.188  0.1058E+02  0.9949E+02
     -0.081  0.1100E+02  0.1007E+03
      0.027  0.9522E+01  0.1018E+03
      0.134  0.9359E+01  0.1028E+03
      0.242  0.1014E+02  0.1038E+03
      0.350  0.9876E+01  0.1049E+03
      0.457  0.9331E+01  0.1059E+03
      0.565  0.9253E+01  0.1069E+03
      0.673  0.9415E+01  0.1079E+03
      0.780  0.9348E+01  0.1089E+03
      0.888  0.9258E+01  0.1099E+03
      0.995  0.9311E+01  0.1109E+03
      1.103  0.9204E+01  0.1119E+03
      1.211  0.9548E+01  0.1129E+03
      1.318  0.9401E+01  0.1140E+03
      1.426  0.9594E+01  0.1150E+03
      1.534  0.9765E+01  0.1160E+03
      1.641  0.7230E+01  0.1170E+03
      1.749  0.6460E+01  0.1177E+03
      1.856  0.6358E+01  0.1184E+03
      1.964  0.4864E+01  0.1190E+03
      2.072  0.3774E+01  0.1194E+03
      2.179  0.4390E+01  0.1198E+03
      2.287  0.7648E+01  0.1205E+03
      2.395  0.8548E+01  0.1213E+03
      2.502  0.5551E+01  0.1222E+03
      2.610  0.8663E+01  0.1229E+03
      2.717  0.7219E+01  0.1237E+03
      2.825  0.5403E+01  0.1244E+03
      2.933  0.4476E+01  0.1249E+03
      3.040  0.3804E+01  0.1254E+03
      3.148  0.3320E+01  0.1258E+03
      3.256  0.3172E+01  0.1261E+03
      3.363  0.2847E+01  0.1264E+03
      3.471  0.2468E+01  0.1267E+03
      3.579  0.2084E+01  0.1270E+03
      3.686  0.1842E+01  0.1272E+03
      3.794  0.1605E+01  0.1274E+03
      3.901  0.1366E+01  0.1275E+03
      4.009  0.1133E+01  0.1277E+03
      4.117  0.9345E+00  0.1278E+03
      4.224  0.7383E+00  0.1279E+03
      4.332  0.5314E+00  0.1279E+03
      4.440  0.3371E+00  0.1280E+03
      4.547  0.1529E+00  0.1280E+03
      4.655  0.1202E-02  0.1280E+03
      4.762  0.1221E+00  0.1280E+03
      4.870  0.2568E+00  0.1280E+03
      4.978  0.4036E+00  0.1281E+03
      5.085  0.5663E+00  0.1281E+03
      5.193  0.7474E+00  0.1282E+03
      5.301  0.9596E+00  0.1283E+03
      5.408  0.1306E+01  0.1284E+03
      5.516  0.1679E+01  0.1286E+03
      5.623  0.2013E+01  0.1288E+03
      5.731  0.2375E+01  0.1290E+03
      5.839  0.2978E+01  0.1293E+03
      5.946  0.3286E+01  0.1296E+03
      6.054  0.4278E+01  0.1300E+03
      6.162  0.6133E+01  0.1306E+03
      6.269  0.8115E+01  0.1317E+03
      6.377  0.8270E+01  0.1326E+03
      6.484  0.7637E+01  0.1334E+03
      6.592  0.8349E+01  0.1343E+03
      6.700  0.6462E+01  0.1351E+03
      6.807  0.5991E+01  0.1357E+03
      6.915  0.5872E+01  0.1364E+03
      7.023  0.5001E+01  0.1369E+03
      7.130  0.4450E+01  0.1375E+03
      7.238  0.3684E+01  0.1379E+03
      7.346  0.3530E+01  0.1383E+03
      7.453  0.3789E+01  0.1387E+03
      7.561  0.4284E+01  0.1391E+03
      7.668  0.4578E+01  0.1396E+03
      7.776  0.4780E+01  0.1401E+03
      7.884  0.4608E+01  0.1406E+03
      7.991  0.4445E+01  0.1411E+03
      8.099  0.4285E+01  0.1415E+03
      8.207  0.4108E+01  0.1420E+03
      8.314  0.3912E+01  0.1424E+03
      8.422  0.3774E+01  0.1428E+03
      8.529  0.3639E+01  0.1432E+03
      8.637  0.3550E+01  0.1436E+03
      8.745  0.3480E+01  0.1440E+03
      8.852  0.3360E+01  0.1444E+03
      8.960  0.3292E+01  0.1447E+03
      9.068  0.3521E+01  0.1451E+03
      9.175  0.3768E+01  0.1455E+03
      9.283  0.3995E+01  0.1459E+03
      9.390  0.4070E+01  0.1463E+03
      9.498  0.4020E+01  0.1468E+03
      9.606  0.3933E+01  0.1472E+03
      9.713  0.3927E+01  0.1476E+03
      9.821  0.3912E+01  0.1480E+03
      9.929  0.3924E+01  0.1485E+03
     10.036  0.3925E+01  0.1489E+03
     10.144  0.3950E+01  0.1493E+03
     10.252  0.3993E+01  0.1497E+03
     10.359  0.4045E+01  0.1502E+03
     10.467  0.4176E+01  0.1506E+03
     10.574  0.4872E+01  0.1511E+03
     10.682  0.5734E+01  0.1517E+03
     10.790  0.5107E+01  0.1522E+03
     10.897  0.4756E+01  0.1528E+03
     11.005  0.4623E+01  0.1533E+03
     11.113  0.6554E+01  0.1538E+03
     11.220  0.3666E+01  0.1542E+03
     11.328  0.3375E+01  0.1546E+03
     11.435  0.3548E+01  0.1550E+03
     11.543  0.4190E+01  0.1554E+03
     11.651  0.2735E+01  0.1558E+03
     11.758  0.2249E+01  0.1560E+03
     11.866  0.3697E+01  0.1564E+03
     11.974  0.6377E+01  0.1570E+03
     12.081  0.6979E+01  0.1576E+03
     12.189  0.7469E+01  0.1585E+03
     12.296  0.8512E+01  0.1593E+03
     12.404  0.8120E+01  0.1602E+03
     12.512  0.6245E+01  0.1610E+03
     12.619  0.3432E+01  0.1616E+03
     12.727  0.1345E+01  0.1618E+03
     12.835  0.7595E+00  0.1619E+03
     12.942  0.3885E+00  0.1620E+03
     13.050  0.1851E+00  0.1620E+03
     13.157  0.5748E-01  0.1620E+03
     13.265  0.2636E-02  0.1620E+03
     13.373  0.0000E+00  0.1620E+03
     13.480  0.0000E+00  0.1620E+03
     13.588  0.0000E+00  0.1620E+03
     13.696  0.0000E+00  0.1620E+03
     13.803  0.0000E+00  0.1620E+03
     13.911  0.0000E+00  0.1620E+03
     14.019  0.0000E+00  0.1620E+03
     14.126  0.0000E+00  0.1620E+03
     14.234  0.0000E+00  0.1620E+03
     14.341  0.0000E+00  0.1620E+03
     14.449  0.0000E+00  0.1620E+03
     14.557  0.0000E+00  0.1620E+03
     14.664  0.0000E+00  0.1620E+03
     14.772  0.0000E+00  0.1620E+03
     14.880  0.0000E+00  0.1620E+03
     14.987  0.0000E+00  0.1620E+03
     15.095  0.0000E+00  0.1620E+03
     15.202  0.0000E+00  0.1620E+03
     15.310  0.0000E+00  0.1620E+03
