   16   16    1    1
  0.6204993E+01  0.5197471E-09  0.5197471E-09  0.5197471E-09  0.5000000E-15
  1.000000000000000E-004
  CAR 
 diamond                                 
     64     72     41
 
  0.0000000E+00  0.0000000E+00  0.0000000E+00  0.6944444E-02
    1      -11.809764
    2       -6.543634
    3       -6.531987
    4       -6.531936
    5       -6.520856
    6       -3.933261
    7       -3.922115
    8       -3.921952
    9       -3.912199
   10       -3.676789
   11       -3.662735
   12       -3.658751
   13       -3.658632
   14       -3.654491
   15       -3.638804
   16        2.712004
   17        2.721914
   18        2.722644
   19        2.722711
   20        2.723427
   21        2.733203
   22        5.890427
   23        5.911948
   24        5.918632
   25        5.919131
   26        5.921647
   27        5.922132
   28        5.929014
   29        5.950232
   30        8.478569
   31        8.496012
   32        8.513868
   33       13.044158
   34       13.055653
   35       13.064591
   36       13.064739
   37       13.073245
   38       13.083669
   39       13.824001
   40       13.839733
   41       13.855693
 
  0.1666667E+00 -0.1387779E-16 -0.1387779E-16  0.1388889E-01
    1      -11.629212
    2       -7.546130
    3       -6.552225
    4       -6.545781
    5       -6.536955
    6       -4.793586
    7       -4.786483
    8       -4.779226
    9       -3.600785
   10       -3.591080
   11       -3.588184
   12       -2.606630
   13       -2.357679
   14       -2.349932
   15       -2.342652
   16        2.221055
   17        2.224201
   18        2.233828
   19        2.870541
   20        2.877711
   21        2.878443
   22        5.290743
   23        5.296067
   24        5.318166
   25        5.590543
   26        5.600577
   27        5.605078
   28        6.025171
   29        6.038169
   30        7.364599
   31        8.189825
   32        8.205274
   33       13.054859
   34       13.060047
   35       13.070930
   36       14.130665
   37       14.143011
   38       14.150350
   39       14.221750
   40       14.236859
   41       14.440434
 
  0.3333333E+00  0.2775558E-16  0.1387779E-16  0.1388889E-01
    1      -11.090182
    2       -8.990638
    3       -6.489695
    4       -6.483062
    5       -6.475170
    6       -5.649006
    7       -5.642234
    8       -5.634820
    9       -2.746064
   10       -2.736709
   11       -2.733437
   12       -1.303502
   13       -1.294450
   14       -1.290027
   15       -0.286458
   16        1.491223
   17        1.493904
   18        1.506175
   19        3.322399
   20        3.330491
   21        3.330742
   22        3.826517
   23        3.831785
   24        3.850281
   25        4.850630
   26        4.860027
   27        4.862556
   28        4.985491
   29        6.358318
   30        6.371765
   31        7.553006
   32        7.567063
   33       13.517726
   34       13.521372
   35       13.532560
   36       15.056910
   37       15.072239
   38       15.217053
   39       15.220464
   40       15.232113
   41       15.305245
 
  0.5000000E+00  0.0000000E+00 -0.2775558E-16  0.6944444E-02
    1      -10.209872
    2      -10.194568
    3       -6.220226
    4       -6.205793
    5       -6.204929
    6       -6.202162
    7       -6.200816
    8       -6.184269
    9       -1.694782
   10       -1.676758
   11       -1.674903
   12       -1.669942
   13       -1.669460
   14       -1.664945
   15        2.216417
   16        2.219023
   17        2.219613
   18        2.223813
   19        2.229448
   20        2.251352
   21        2.310846
   22        2.335069
   23        4.004039
   24        4.019827
   25        4.026875
   26        4.032894
   27        4.036929
   28        4.038117
   29        6.873054
   30        6.899347
   31        6.904709
   32        6.905508
   33       14.265478
   34       14.269906
   35       14.288626
   36       14.290323
   37       14.290867
   38       14.294116
   39       15.801582
   40       15.829125
   41       15.868712
 
  0.0000000E+00  0.1666667E+00  0.1387779E-16  0.1388889E-01
    1      -11.629208
    2       -7.545016
    3       -6.554876
    4       -6.545816
    5       -6.537067
    6       -4.797347
    7       -4.786655
    8       -4.776100
    9       -3.600650
   10       -3.590913
   11       -3.581311
   12       -2.612001
   13       -2.360396
   14       -2.349304
   15       -2.337729
   16        2.217110
   17        2.222749
   18        2.228297
   19        2.871779
   20        2.878436
   21        2.885206
   22        5.285855
   23        5.292920
   24        5.299392
   25        5.597715
   26        5.605961
   27        5.614668
   28        6.022576
   29        6.045550
   30        7.352036
   31        8.191209
   32        8.218337
   33       13.054049
   34       13.064750
   35       13.074834
   36       14.129078
   37       14.140259
   38       14.148846
   39       14.209748
   40       14.235035
   41       14.451241
 
  0.1666667E+00  0.1666667E+00  0.0000000E+00  0.1388889E-01
    1      -11.569047
    2       -6.938199
    3       -6.927706
    4       -6.924927
    5       -6.914905
    6       -6.014762
    7       -3.534111
    8       -3.522455
    9       -3.522396
   10       -3.511665
   11       -3.122436
   12       -3.112960
   13       -3.109946
   14       -3.099629
   15       -1.082306
   16        2.247036
   17        2.251620
   18        2.255455
   19        2.259951
   20        2.949672
   21        2.957997
   22        5.090896
   23        5.100165
   24        5.108127
   25        5.117112
   26        5.854924
   27        5.871297
   28        5.873923
   29        5.890613
   30        7.667441
   31        7.686514
   32        7.875245
   33       12.525207
   34       13.645467
   35       13.983037
   36       13.996515
   37       14.000056
   38       14.012339
   39       14.166210
   40       14.848002
   41       14.864907
 
  0.3333333E+00  0.1666667E+00 -0.5551115E-16  0.1388889E-01
    1      -11.149536
    2       -8.373213
    3       -7.103199
    4       -7.093396
    5       -6.968901
    6       -6.118782
    7       -4.480416
    8       -4.470014
    9       -3.180587
   10       -2.270780
   11       -2.259284
   12       -2.234845
   13       -2.226795
   14       -0.984362
   15        0.141405
   16        1.171082
   17        1.179384
   18        2.620267
   19        2.626558
   20        2.812633
   21        3.327388
   22        3.393478
   23        4.106492
   24        4.115212
   25        5.161563
   26        5.199606
   27        5.361086
   28        5.375636
   29        5.793711
   30        6.345665
   31        6.937795
   32        7.590005
   33       12.878260
   34       13.907102
   35       14.263747
   36       14.275633
   37       15.414796
   38       15.613637
   39       15.780259
   40       15.841516
   41       16.173827
 
  0.5000000E+00  0.1666667E+00 -0.2775558E-16  0.1388889E-01
    1      -10.377705
    2       -9.675840
    3       -7.607027
    4       -6.990425
    5       -6.980734
    6       -5.261819
    7       -5.186757
    8       -5.175974
    9       -2.785347
   10       -1.999254
   11       -1.989567
   12       -1.145895
   13       -1.135841
   14        0.300662
   15        1.142219
   16        1.154973
   17        1.518130
   18        1.535409
   19        2.907883
   20        2.916188
   21        3.157034
   22        3.259868
   23        3.303631
   24        3.310990
   25        3.968885
   26        4.301107
   27        4.312363
   28        4.369911
   29        5.473402
   30        6.274123
   31        6.976738
   32        6.989069
   33       13.768827
   34       14.683755
   35       14.727854
   36       14.849560
   37       14.861800
   38       15.212705
   39       15.225194
   40       15.858705
   41       16.321481
 
 -0.3333333E+00  0.1666667E+00  0.6938894E-17  0.1388889E-01
    1      -10.673609
    2       -9.271689
    3       -7.912812
    4       -6.565083
    5       -6.555375
    6       -5.688208
    7       -5.677042
    8       -4.421327
    9       -2.840291
   10       -2.830083
   11       -2.428899
   12       -0.690677
   13       -0.415731
   14       -0.405152
   15        0.336985
   16        0.656824
   17        2.063046
   18        2.068806
   19        2.522666
   20        2.539567
   21        3.287220
   22        3.295522
   23        3.627349
   24        4.127640
   25        4.214092
   26        4.222529
   27        4.495663
   28        4.781447
   29        5.804199
   30        6.031426
   31        6.295468
   32        7.670433
   33       13.963283
   34       14.309085
   35       14.321676
   36       14.817332
   37       15.034506
   38       15.400470
   39       15.649058
   40       15.661141
   41       15.961621
 
 -0.1666667E+00  0.1666667E+00  0.9568457E-17  0.1388889E-01
    1      -11.329157
    2       -7.894297
    3       -7.880649
    4       -6.106658
    5       -6.095274
    6       -5.824976
    7       -5.814995
    8       -3.636035
    9       -3.514837
   10       -3.504438
   11       -3.215688
   12       -1.770741
   13       -1.756701
   14       -1.103237
   15       -1.092582
   16        0.956163
   17        2.395032
   18        2.397401
   19        2.662146
   20        2.674392
   21        3.107984
   22        4.096090
   23        4.113320
   24        5.123281
   25        5.132191
   26        5.564370
   27        5.584252
   28        5.704913
   29        5.714962
   30        6.386544
   31        6.917732
   32        8.181855
   33       13.449376
   34       13.487823
   35       13.500975
   36       14.328207
   37       14.982384
   38       15.029367
   39       15.043224
   40       15.298004
   41       15.852331
 
  0.0000000E+00  0.3333333E+00  0.0000000E+00  0.1388889E-01
    1      -11.090150
    2       -8.990378
    3       -6.493026
    4       -6.483226
    5       -6.473848
    6       -5.652732
    7       -5.642475
    8       -5.632072
    9       -2.746667
   10       -2.736017
   11       -2.725572
   12       -1.303927
   13       -1.292189
   14       -1.280449
   15       -0.291576
   16        1.484013
   17        1.490219
   18        1.496390
   19        3.324350
   20        3.331329
   21        3.338189
   22        3.820013
   23        3.828608
   24        3.836980
   25        4.855137
   26        4.863370
   27        4.870759
   28        4.977811
   29        6.356310
   30        6.379360
   31        7.552878
   32        7.577633
   33       13.517213
   34       13.527521
   35       13.537230
   36       15.046752
   37       15.073805
   38       15.218390
   39       15.227718
   40       15.239129
   41       15.310542
 
  0.1666667E+00  0.3333333E+00 -0.2775558E-16  0.1388889E-01
    1      -11.149516
    2       -8.372840
    3       -7.103279
    4       -7.093398
    5       -6.969064
    6       -6.121464
    7       -4.480926
    8       -4.470404
    9       -3.173516
   10       -2.270518
   11       -2.258888
   12       -2.231955
   13       -2.225612
   14       -0.989339
   15        0.145568
   16        1.167037
   17        1.172867
   18        2.623376
   19        2.630899
   20        2.807865
   21        3.327792
   22        3.386716
   23        4.101320
   24        4.110903
   25        5.168506
   26        5.202073
   27        5.362789
   28        5.383769
   29        5.782767
   30        6.342248
   31        6.936594
   32        7.604749
   33       12.879701
   34       13.902404
   35       14.268083
   36       14.281542
   37       15.413733
   38       15.614519
   39       15.779711
   40       15.846434
   41       16.170271
 
  0.3333333E+00  0.3333333E+00  0.0000000E+00  0.1388889E-01
    1      -10.850588
    2       -8.040863
    3       -7.453326
    4       -7.443789
    5       -7.439621
    6       -7.430086
    7       -3.212494
    8       -3.200838
    9       -3.200549
   10       -3.189307
   11       -1.404392
   12       -1.394470
   13       -1.390181
   14       -1.380117
   15        1.359393
   16        1.363318
   17        1.367536
   18        1.371515
   19        1.558187
   20        3.202272
   21        3.211318
   22        3.217234
   23        3.226252
   24        3.632219
   25        3.641275
   26        5.761923
   27        5.778763
   28        5.781213
   29        5.797279
   30        6.154360
   31        6.167730
   32        6.268467
   33       12.449335
   34       13.191336
   35       15.885525
   36       16.045825
   37       16.055919
   38       16.058747
   39       16.069474
   40       16.286130
   41       16.288239
 
  0.5000000E+00  0.3333333E+00  0.0000000E+00  0.1388889E-01
    1      -10.198218
    2       -8.811083
    3       -8.793396
    4       -7.476881
    5       -7.467398
    6       -6.249459
    7       -4.049148
    8       -4.038031
    9       -2.319891
   10       -2.311368
   11       -1.534384
   12       -0.386929
   13       -0.376342
   14        0.564465
   15        0.572077
   16        0.934054
   17        1.173042
   18        2.030459
   19        2.038394
   20        2.185822
   21        2.193646
   22        2.335040
   23        3.357747
   24        4.097311
   25        4.117891
   26        4.210643
   27        4.964616
   28        5.238130
   29        5.256237
   30        5.463744
   31        5.958424
   32        6.496828
   33       13.022405
   34       13.423381
   35       15.296159
   36       16.406532
   37       16.617926
   38       16.625121
   39       16.664478
   40       16.682757
   41       16.700318
 
 -0.3333333E+00  0.3333333E+00  0.3515346E-17  0.1388889E-01
    1       -9.907430
    2       -9.213084
    3       -9.199359
    4       -7.182107
    5       -7.172563
    6       -4.942249
    7       -4.850121
    8       -4.838403
    9       -2.512560
   10       -2.502722
   11       -1.909096
   12       -0.081859
   13        0.172721
   14        0.184299
   15        1.210962
   16        1.224044
   17        1.686781
   18        1.700896
   19        1.771866
   20        1.778140
   21        3.084694
   22        3.091801
   23        3.099817
   24        4.082717
   25        4.091103
   26        4.109688
   27        4.198715
   28        4.978669
   29        4.998562
   30        5.261998
   31        5.275386
   32        7.219238
   33       14.182977
   34       14.192482
   35       14.542730
   36       15.721716
   37       15.736813
   38       15.752689
   39       16.456794
   40       16.943930
   41       17.027989
 
 -0.1666667E+00  0.3333333E+00  0.2081668E-16  0.1388889E-01
    1      -10.673569
    2       -9.271525
    3       -7.913333
    4       -6.565187
    5       -6.555441
    6       -5.688388
    7       -5.677052
    8       -4.424213
    9       -2.839725
   10       -2.829430
   11       -2.421503
   12       -0.684391
   13       -0.413588
   14       -0.402697
   15        0.331876
   16        0.650997
   17        2.055028
   18        2.060597
   19        2.521245
   20        2.534694
   21        3.289892
   22        3.305094
   23        3.627813
   24        4.120643
   25        4.217463
   26        4.224737
   27        4.486405
   28        4.783489
   29        5.801335
   30        6.039300
   31        6.306132
   32        7.668897
   33       13.963791
   34       14.311912
   35       14.325482
   36       14.819234
   37       15.038074
   38       15.397803
   39       15.652042
   40       15.668705
   41       15.963258
 
  0.0000000E+00  0.5000000E+00 -0.2775558E-16  0.1388889E-01
    1      -10.202239
    2      -10.202071
    3       -6.225348
    4       -6.207592
    5       -6.203545
    6       -6.203529
    7       -6.199500
    8       -6.181954
    9       -1.694152
   10       -1.676733
   11       -1.671338
   12       -1.671318
   13       -1.665967
   14       -1.648727
   15        2.205030
   16        2.217488
   17        2.220425
   18        2.220513
   19        2.223096
   20        2.234195
   21        2.312546
   22        2.314064
   23        4.016471
   24        4.030391
   25        4.030640
   26        4.030701
   27        4.030995
   28        4.045162
   29        6.875181
   30        6.898335
   31        6.900072
   32        6.923905
   33       14.266344
   34       14.285326
   35       14.287495
   36       14.287527
   37       14.289142
   38       14.306571
   39       15.806102
   40       15.823056
   41       15.845447
 
  0.1666667E+00  0.5000000E+00 -0.2775558E-16  0.2777778E-01
    1      -10.377576
    2       -9.675846
    3       -7.607376
    4       -6.990536
    5       -6.980791
    6       -5.264660
    7       -5.187079
    8       -5.176619
    9       -2.776933
   10       -1.997093
   11       -1.987339
   12       -1.144583
   13       -1.134528
   14        0.308730
   15        1.139052
   16        1.148036
   17        1.515940
   18        1.525327
   19        2.900389
   20        2.909134
   21        3.147669
   22        3.251036
   23        3.307295
   24        3.314351
   25        3.970198
   26        4.303775
   27        4.322422
   28        4.370721
   29        5.481241
   30        6.272066
   31        6.978137
   32        6.997314
   33       13.770839
   34       14.678315
   35       14.728793
   36       14.855208
   37       14.867929
   38       15.217796
   39       15.230788
   40       15.866894
   41       16.444754
 
  0.3333333E+00  0.5000000E+00  0.0000000E+00  0.2777778E-01
    1      -10.198154
    2       -8.813978
    3       -8.790504
    4       -7.476907
    5       -7.467406
    6       -6.250189
    7       -4.049658
    8       -4.038403
    9       -2.318455
   10       -2.309865
   11       -1.529194
   12       -0.386246
   13       -0.375644
   14        0.562453
   15        0.568093
   16        0.929404
   17        1.167698
   18        2.033316
   19        2.040096
   20        2.183442
   21        2.192117
   22        2.343792
   23        3.363259
   24        4.093586
   25        4.101125
   26        4.211370
   27        4.965160
   28        5.238600
   29        5.257498
   30        5.463022
   31        5.971855
   32        6.495447
   33       13.024151
   34       13.420972
   35       15.296410
   36       16.406876
   37       16.625663
   38       16.637433
   39       16.673301
   40       16.691472
   41       16.743711
 
  0.5000000E+00  0.5000000E+00 -0.1110223E-15  0.1388889E-01
    1       -9.673354
    2       -9.659661
    3       -7.648780
    4       -7.639362
    5       -7.634912
    6       -7.625602
    7       -3.015141
    8       -3.003346
    9       -3.002769
   10       -2.991384
   11        0.209233
   12        0.221220
   13        0.221377
   14        0.232959
   15        0.914703
   16        0.918582
   17        0.922301
   18        0.926003
   19        1.487651
   20        1.493187
   21        1.495517
   22        1.500875
   23        4.073262
   24        4.075378
   25        4.719368
   26        4.729918
   27        4.739428
   28        4.749944
   29        5.718050
   30        5.734079
   31        5.736445
   32        5.753314
   33       12.717897
   34       12.725284
   35       15.927962
   36       15.938526
   37       15.941683
   38       15.951811
   39       17.869883
   40       17.898154
   41       17.909469
 
  0.0000000E+00  0.0000000E+00  0.2500000E+00  0.1388889E-01
    1      -11.404107
    2       -8.284086
    3       -6.544094
    4       -6.534643
    5       -6.525534
    6       -5.261371
    7       -5.250899
    8       -5.240419
    9       -3.223203
   10       -3.212993
   11       -3.202953
   12       -1.734938
   13       -1.723255
   14       -1.711835
   15       -1.504504
   16        1.773807
   17        1.779866
   18        1.785866
   19        3.063115
   20        3.069891
   21        3.076709
   22        4.612775
   23        4.620804
   24        4.628429
   25        5.257476
   26        5.265563
   27        5.273805
   28        6.162527
   29        6.185452
   30        6.237480
   31        7.891649
   32        7.917476
   33       13.243022
   34       13.253423
   35       13.263247
   36       14.604743
   37       14.630627
   38       14.915051
   39       15.154542
   40       15.164285
   41       15.174834
 
  0.1666667E+00 -0.1387779E-16  0.2500000E+00  0.1388889E-01
    1      -11.403940
    2       -7.641956
    3       -7.049244
    4       -7.039168
    5       -6.540690
    6       -6.529739
    7       -4.035137
    8       -4.024684
    9       -3.198571
   10       -2.864181
   11       -2.853438
   12       -2.717368
   13       -2.708288
   14       -2.128203
   15       -0.429063
   16        1.692137
   17        1.698215
   18        2.395878
   19        2.403669
   20        2.952839
   21        3.102484
   22        4.300314
   23        4.647063
   24        4.656443
   25        5.109239
   26        5.576346
   27        5.725456
   28        5.746076
   29        6.078932
   30        6.886541
   31        7.306589
   32        7.781656
   33       12.591668
   34       13.670901
   35       14.086773
   36       14.100405
   37       14.652323
   38       14.966303
   39       14.979122
   40       15.324393
   41       15.340504
 
  0.3333333E+00  0.2775558E-16  0.2500000E+00  0.1388889E-01
    1      -11.044697
    2       -7.944854
    3       -7.542891
    4       -7.311709
    5       -7.302010
    6       -6.719103
    7       -3.840181
    8       -3.829650
    9       -2.748007
   10       -2.737775
   11       -2.413847
   12       -1.853451
   13       -1.843707
   14       -1.223055
   15        0.865671
   16        1.204728
   17        1.212141
   18        2.005812
   19        2.012640
   20        3.269651
   21        3.323848
   22        3.442765
   23        3.712210
   24        3.721116
   25        4.236547
   26        5.460442
   27        5.670536
   28        5.687975
   29        6.079521
   30        6.111602
   31        6.547057
   32        7.036192
   33       12.557660
   34       13.444264
   35       15.157049
   36       15.169585
   37       15.506541
   38       15.832083
   39       16.194405
   40       16.273452
   41       16.315061
 
  0.5000000E+00  0.0000000E+00  0.2500000E+00  0.1388889E-01
    1      -10.332300
    2       -9.284525
    3       -8.236287
    4       -7.272818
    5       -7.263251
    6       -5.596478
    7       -4.621611
    8       -4.610665
    9       -2.368893
   10       -2.134032
   11       -2.124998
   12       -0.787959
   13       -0.777712
   14        0.755780
   15        0.766587
   16        1.203838
   17        1.302800
   18        1.329441
   19        2.643260
   20        2.652665
   21        2.693772
   22        2.700234
   23        3.651878
   24        3.720268
   25        4.053087
   26        4.452252
   27        4.639572
   28        4.748721
   29        4.764883
   30        5.872604
   31        6.563957
   32        6.797477
   33       13.402519
   34       14.029661
   35       14.995062
   36       15.643848
   37       15.657180
   38       16.027109
   39       16.041849
   40       16.187831
   41       16.463961
 
 -0.3333333E+00 -0.2775558E-16  0.2500000E+00  0.1388889E-01
    1      -10.333396
    2       -9.282586
    3       -8.592634
    4       -6.913040
    5       -6.903427
    6       -5.265124
    7       -5.253630
    8       -4.432243
    9       -2.719430
   10       -2.709219
   11       -2.362332
   12       -0.044549
   13       -0.033441
   14       -0.017839
   15        0.481044
   16        1.181545
   17        1.841339
   18        1.856076
   19        1.990866
   20        1.995682
   21        3.550189
   22        3.564203
   23        3.674281
   24        3.680907
   25        3.696589
   26        3.882745
   27        4.848621
   28        4.879615
   29        4.995541
   30        5.407615
   31        5.851524
   32        7.500619
   33       14.227335
   34       14.540607
   35       14.812287
   36       15.022999
   37       15.037033
   38       15.312466
   39       16.300081
   40       16.306033
   41       16.337913
 
 -0.1666667E+00  0.0000000E+00  0.2500000E+00  0.1388889E-01
    1      -11.045237
    2       -8.606977
    3       -7.941442
    4       -6.233871
    5       -6.224102
    6       -5.897688
    7       -5.886072
    8       -3.991216
    9       -3.238959
   10       -3.228483
   11       -2.731923
   12       -1.240708
   13       -0.603418
   14       -0.593594
   15       -0.587696
   16        0.450083
   17        2.134244
   18        2.138821
   19        2.903146
   20        2.917095
   21        3.324973
   22        3.335481
   23        3.341271
   24        4.694556
   25        4.702855
   26        5.159644
   27        5.200182
   28        5.358391
   29        5.655747
   30        5.991285
   31        6.412993
   32        7.967813
   33       13.673186
   34       13.891893
   35       13.905300
   36       14.636361
   37       15.346497
   38       15.473691
   39       15.644386
   40       15.716189
   41       15.947494
 
  0.0000000E+00  0.1666667E+00  0.2500000E+00  0.1388889E-01
    1      -11.403941
    2       -7.641891
    3       -7.051669
    4       -7.038335
    5       -6.538084
    6       -6.529928
    7       -4.037500
    8       -4.022202
    9       -3.205086
   10       -2.866955
   11       -2.850761
   12       -2.719125
   13       -2.700937
   14       -2.128385
   15       -0.429882
   16        1.690817
   17        1.702876
   18        2.392242
   19        2.404008
   20        2.949518
   21        3.106864
   22        4.299770
   23        4.648232
   24        4.665770
   25        5.101135
   26        5.582238
   27        5.721850
   28        5.732366
   29        6.088701
   30        6.887601
   31        7.315462
   32        7.770765
   33       12.591615
   34       13.672728
   35       14.086752
   36       14.095950
   37       14.651770
   38       14.969401
   39       14.980446
   40       15.329994
   41       15.333750
 
  0.1666667E+00  0.1666667E+00  0.2500000E+00  0.1388889E-01
    1      -11.524056
    2       -7.752997
    3       -7.154557
    4       -6.329319
    5       -6.318036
    6       -5.343206
    7       -5.333312
    8       -4.111942
    9       -3.628830
   10       -3.618393
   11       -2.908280
   12       -2.812050
   13       -2.231828
   14       -1.717738
   15       -1.707350
   16        1.592693
   17        2.323422
   18        2.331101
   19        2.807837
   20        2.812331
   21        2.961761
   22        4.761465
   23        4.780880
   24        5.446627
   25        5.457213
   26        5.465974
   27        5.571569
   28        5.878485
   29        6.022433
   30        6.953147
   31        7.662115
   32        8.288684
   33       13.159630
   34       13.171839
   35       13.284992
   36       14.158593
   37       14.443316
   38       14.457915
   39       14.578615
   40       14.817195
   41       14.866051
 
  0.3333333E+00  0.1666667E+00  0.2500000E+00  0.1388889E-01
    1      -11.284207
    2       -8.169271
    3       -7.529207
    4       -6.436809
    5       -6.420265
    6       -6.108633
    7       -5.158696
    8       -4.003527
    9       -3.421817
   10       -3.109563
   11       -2.815955
   12       -2.033478
   13       -1.697987
   14       -1.418958
   15       -0.473057
   16        1.008207
   17        1.841049
   18        2.564439
   19        2.597980
   20        2.976416
   21        3.066588
   22        3.869912
   23        4.101174
   24        4.950945
   25        5.190280
   26        5.202141
   27        5.472992
   28        5.587226
   29        6.150529
   30        6.165405
   31        7.026025
   32        7.995729
   33       13.052827
   34       13.673616
   35       13.981878
   36       14.112067
   37       15.105653
   38       15.303212
   39       15.343906
   40       15.436239
   41       15.904317
 
  0.5000000E+00  0.1666667E+00  0.2500000E+00  0.1388889E-01
    1      -10.688146
    2       -8.941629
    3       -8.261117
    4       -7.222347
    5       -5.939629
    6       -5.889345
    7       -5.580359
    8       -4.070325
    9       -2.946856
   10       -2.647539
   11       -2.592693
   12       -0.822001
   13       -0.372482
   14        0.119953
   15        0.309930
   16        0.407389
   17        1.627154
   18        2.357116
   19        2.551238
   20        2.584950
   21        2.774024
   22        3.447031
   23        3.468112
   24        4.284552
   25        4.355019
   26        4.517605
   27        4.554939
   28        5.185096
   29        5.340903
   30        5.684463
   31        6.113844
   32        7.618409
   33       13.892707
   34       14.145201
   35       14.651110
   36       15.030176
   37       15.128813
   38       15.407870
   39       15.871431
   40       16.196849
   41       16.338457
 
 -0.3333333E+00  0.1666667E+00  0.2500000E+00  0.1388889E-01
    1      -10.097739
    2       -9.747325
    3       -8.016233
    4       -7.691671
    5       -6.420536
    6       -5.518553
    7       -5.070270
    8       -4.740249
    9       -2.563419
   10       -2.449631
   11       -1.711323
   12       -1.276100
   13       -0.071123
   14        0.650156
   15        0.785511
   16        0.983592
   17        1.419529
   18        2.007012
   19        2.070425
   20        2.860176
   21        3.109219
   22        3.149894
   23        3.470173
   24        3.479413
   25        3.863830
   26        4.163943
   27        4.273893
   28        4.526282
   29        5.063462
   30        5.616509
   31        6.794123
   32        6.952893
   33       14.023867
   34       14.683688
   35       14.849165
   36       14.927499