  32  32   0   0
  0.8294063E+01  0.4932875E-09  0.4932875E-09  0.1260033E-08  0.5000000E-15
  1.000000000000000E-004
  CAR 
 graphite                                
     16.95928778    -16.46371256  301      5.23251477      1.00000000
    -16.464  0.0000E+00  0.0000E+00
    -16.352  0.0000E+00  0.0000E+00
    -16.241  0.0000E+00  0.0000E+00
    -16.129  0.0000E+00  0.0000E+00
    -16.018  0.0000E+00  0.0000E+00
    -15.907  0.0000E+00  0.0000E+00
    -15.795  0.0000E+00  0.0000E+00
    -15.684  0.0000E+00  0.0000E+00
    -15.572  0.0000E+00  0.0000E+00
    -15.461  0.0000E+00  0.0000E+00
    -15.350  0.0000E+00  0.0000E+00
    -15.238  0.0000E+00  0.0000E+00
    -15.127  0.0000E+00  0.0000E+00
    -15.015  0.0000E+00  0.0000E+00
    -14.904  0.0000E+00  0.0000E+00
    -14.793  0.0000E+00  0.0000E+00
    -14.681  0.0000E+00  0.0000E+00
    -14.570  0.0000E+00  0.0000E+00
    -14.458  0.1177E-01  0.2111E-04
    -14.347  0.1461E+01  0.9574E-01
    -14.236  0.2369E+01  0.3072E+00
    -14.124  0.3019E+01  0.6080E+00
    -14.013  0.3983E+01  0.9936E+00
    -13.901  0.4835E+01  0.1519E+01
    -13.790  0.4954E+01  0.2066E+01
    -13.678  0.4890E+01  0.2611E+01
    -13.567  0.5016E+01  0.3164E+01
    -13.456  0.4916E+01  0.3718E+01
    -13.344  0.4938E+01  0.4266E+01
    -13.233  0.5381E+01  0.4835E+01
    -13.121  0.5590E+01  0.5448E+01
    -13.010  0.6493E+01  0.6111E+01
    -12.899  0.5872E+01  0.6823E+01
    -12.787  0.3985E+01  0.7361E+01
    -12.676  0.2665E+01  0.7697E+01
    -12.564  0.3610E+01  0.8066E+01
    -12.453  0.3972E+01  0.8452E+01
    -12.342  0.5981E+01  0.9138E+01
    -12.230  0.5379E+01  0.9757E+01
    -12.119  0.5786E+01  0.1036E+02
    -12.007  0.5025E+01  0.1098E+02
    -11.896  0.4806E+01  0.1150E+02
    -11.784  0.5093E+01  0.1206E+02
    -11.673  0.4997E+01  0.1262E+02
    -11.562  0.5022E+01  0.1318E+02
    -11.450  0.5219E+01  0.1374E+02
    -11.339  0.5796E+01  0.1436E+02
    -11.227  0.4988E+01  0.1495E+02
    -11.116  0.5019E+01  0.1551E+02
    -11.005  0.5074E+01  0.1607E+02
    -10.893  0.5152E+01  0.1664E+02
    -10.782  0.5226E+01  0.1722E+02
    -10.670  0.5314E+01  0.1781E+02
    -10.559  0.5565E+01  0.1841E+02
    -10.448  0.5694E+01  0.1904E+02
    -10.336  0.6031E+01  0.1969E+02
    -10.225  0.6023E+01  0.2036E+02
    -10.113  0.6089E+01  0.2103E+02
    -10.002  0.5186E+01  0.2166E+02
     -9.891  0.4189E+01  0.2218E+02
     -9.779  0.4313E+01  0.2264E+02
     -9.668  0.5070E+01  0.2317E+02
     -9.556  0.5401E+01  0.2376E+02
     -9.445  0.5595E+01  0.2437E+02
     -9.333  0.6181E+01  0.2501E+02
     -9.222  0.7040E+01  0.2575E+02
     -9.111  0.8671E+01  0.2662E+02
     -8.999  0.8372E+01  0.2765E+02
     -8.888  0.6266E+01  0.2848E+02
     -8.776  0.5014E+01  0.2910E+02
     -8.665  0.3632E+01  0.2965E+02
     -8.554  0.3242E+01  0.3003E+02
     -8.442  0.2851E+01  0.3037E+02
     -8.331  0.2463E+01  0.3067E+02
     -8.219  0.3138E+01  0.3097E+02
     -8.108  0.2388E+01  0.3126E+02
     -7.997  0.1896E+01  0.3150E+02
     -7.885  0.1995E+01  0.3170E+02
     -7.774  0.3596E+01  0.3198E+02
     -7.662  0.6557E+01  0.3264E+02
     -7.551  0.4239E+01  0.3318E+02
     -7.440  0.4075E+01  0.3365E+02
     -7.328  0.6305E+01  0.3417E+02
     -7.217  0.6679E+01  0.3486E+02
     -7.105  0.6676E+01  0.3565E+02
     -6.994  0.7815E+01  0.3646E+02
     -6.882  0.8388E+01  0.3740E+02
     -6.771  0.7332E+01  0.3827E+02
     -6.660  0.6132E+01  0.3899E+02
     -6.548  0.5843E+01  0.3966E+02
     -6.437  0.5600E+01  0.4030E+02
     -6.325  0.5397E+01  0.4091E+02
     -6.214  0.5210E+01  0.4150E+02
     -6.103  0.5019E+01  0.4207E+02
     -5.991  0.4870E+01  0.4262E+02
     -5.880  0.4829E+01  0.4316E+02
     -5.768  0.4798E+01  0.4370E+02
     -5.657  0.4636E+01  0.4422E+02
     -5.546  0.4518E+01  0.4473E+02
     -5.434  0.3928E+01  0.4522E+02
     -5.323  0.3776E+01  0.4562E+02
     -5.211  0.4373E+01  0.4608E+02
     -5.100  0.5078E+01  0.4661E+02
     -4.988  0.5829E+01  0.4722E+02
     -4.877  0.7536E+01  0.4793E+02
     -4.766  0.9279E+01  0.4888E+02
     -4.654  0.8694E+01  0.4995E+02
     -4.543  0.6056E+01  0.5077E+02
     -4.431  0.3420E+01  0.5130E+02
     -4.320  0.2355E+01  0.5160E+02
     -4.209  0.3187E+01  0.5190E+02
     -4.097  0.4565E+01  0.5233E+02
     -3.986  0.6170E+01  0.5292E+02
     -3.874  0.7783E+01  0.5371E+02
     -3.763  0.7907E+01  0.5460E+02
     -3.652  0.6563E+01  0.5540E+02
     -3.540  0.5348E+01  0.5606E+02
     -3.429  0.8241E+01  0.5677E+02
     -3.317  0.7980E+01  0.5768E+02
     -3.206  0.7735E+01  0.5855E+02
     -3.095  0.7614E+01  0.5940E+02
     -2.983  0.7473E+01  0.6025E+02
     -2.872  0.8954E+01  0.6121E+02
     -2.760  0.8326E+01  0.6220E+02
     -2.649  0.9196E+01  0.6321E+02
     -2.537  0.7967E+01  0.6417E+02
     -2.426  0.6988E+01  0.6499E+02
     -2.315  0.7771E+01  0.6581E+02
     -2.203  0.9199E+01  0.6675E+02
     -2.092  0.1107E+02  0.6788E+02
     -1.980  0.1230E+02  0.6918E+02
     -1.869  0.1154E+02  0.7056E+02
     -1.758  0.1084E+02  0.7174E+02
     -1.646  0.1242E+02  0.7304E+02
     -1.535  0.1422E+02  0.7447E+02
     -1.423  0.1351E+02  0.7610E+02
     -1.312  0.1365E+02  0.7755E+02
     -1.201  0.1085E+02  0.7918E+02
     -1.089  0.1592E+02  0.8044E+02
     -0.978  0.1891E+02  0.8255E+02
     -0.866  0.1697E+02  0.8461E+02
     -0.755  0.1436E+02  0.8635E+02
     -0.643  0.1232E+02  0.8784E+02
     -0.532  0.1073E+02  0.8910E+02
     -0.421  0.9750E+01  0.9025E+02
     -0.309  0.8243E+01  0.9121E+02
     -0.198  0.1275E+02  0.9232E+02
     -0.086  0.1356E+02  0.9385E+02
      0.025  0.1339E+02  0.9545E+02
      0.136  0.8829E+01  0.9658E+02
      0.248  0.8784E+01  0.9753E+02
      0.359  0.9702E+01  0.9860E+02
      0.471  0.1042E+02  0.9971E+02
      0.582  0.1404E+02  0.1009E+03
      0.693  0.1072E+02  0.1022E+03
      0.805  0.9448E+01  0.1033E+03
      0.916  0.9338E+01  0.1044E+03
      1.028  0.9347E+01  0.1054E+03
      1.139  0.9382E+01  0.1064E+03
      1.250  0.9664E+01  0.1075E+03
      1.362  0.9185E+01  0.1086E+03
      1.473  0.9314E+01  0.1096E+03
      1.585  0.9767E+01  0.1106E+03
      1.696  0.9470E+01  0.1117E+03
      1.808  0.9099E+01  0.1128E+03
      1.919  0.8561E+01  0.1137E+03
      2.030  0.9521E+01  0.1148E+03
      2.142  0.9790E+01  0.1158E+03
      2.253  0.7236E+01  0.1168E+03
      2.365  0.5862E+01  0.1175E+03
      2.476  0.6028E+01  0.1182E+03
      2.587  0.5578E+01  0.1188E+03
      2.699  0.4390E+01  0.1194E+03
      2.810  0.5181E+01  0.1199E+03
      2.922  0.8109E+01  0.1207E+03
      3.033  0.8453E+01  0.1216E+03
      3.144  0.5596E+01  0.1224E+03
      3.256  0.4370E+01  0.1229E+03
      3.367  0.5493E+01  0.1236E+03
      3.479  0.6566E+01  0.1242E+03
      3.590  0.5403E+01  0.1249E+03
      3.701  0.4191E+01  0.1254E+03
      3.813  0.3412E+01  0.1258E+03
      3.924  0.3027E+01  0.1262E+03
      4.036  0.2709E+01  0.1265E+03
      4.147  0.2363E+01  0.1268E+03
      4.259  0.1919E+01  0.1270E+03
      4.370  0.1681E+01  0.1272E+03
      4.481  0.1450E+01  0.1274E+03
      4.593  0.1241E+01  0.1276E+03
      4.704  0.1061E+01  0.1277E+03
      4.816  0.9643E+00  0.1278E+03
      4.927  0.7132E+00  0.1279E+03
      5.038  0.4366E+00  0.1280E+03
      5.150  0.1663E+00  0.1280E+03
      5.261  0.1495E-01  0.1280E+03
      5.373  0.1609E+00  0.1280E+03
      5.484  0.3160E+00  0.1280E+03
      5.595  0.4794E+00  0.1281E+03
      5.707  0.6539E+00  0.1281E+03
      5.818  0.8434E+00  0.1282E+03
      5.930  0.1030E+01  0.1283E+03
      6.041  0.1269E+01  0.1285E+03
      6.153  0.1560E+01  0.1286E+03
      6.264  0.1872E+01  0.1288E+03
      6.375  0.2285E+01  0.1290E+03
      6.487  0.3065E+01  0.1293E+03
      6.598  0.4254E+01  0.1297E+03
      6.710  0.4703E+01  0.1303E+03
      6.821  0.1300E+02  0.1311E+03
      6.932  0.8471E+01  0.1323E+03
      7.044  0.7359E+01  0.1331E+03
      7.155  0.7374E+01  0.1339E+03
      7.267  0.7129E+01  0.1347E+03
      7.378  0.6673E+01  0.1356E+03
      7.489  0.5508E+01  0.1362E+03
      7.601  0.4647E+01  0.1368E+03
      7.712  0.4616E+01  0.1373E+03
      7.824  0.3619E+01  0.1377E+03
      7.935  0.3497E+01  0.1381E+03
      8.046  0.3740E+01  0.1385E+03
      8.158  0.4042E+01  0.1390E+03
      8.269  0.4500E+01  0.1394E+03
      8.381  0.4812E+01  0.1400E+03
      8.492  0.4991E+01  0.1405E+03
      8.604  0.4688E+01  0.1411E+03
      8.715  0.4361E+01  0.1416E+03
      8.826  0.4080E+01  0.1420E+03
      8.938  0.3976E+01  0.1425E+03
      9.049  0.3828E+01  0.1429E+03
      9.161  0.3659E+01  0.1433E+03
      9.272  0.3572E+01  0.1437E+03
      9.383  0.3476E+01  0.1441E+03
      9.495  0.3337E+01  0.1445E+03
      9.606  0.3226E+01  0.1449E+03
      9.718  0.3186E+01  0.1452E+03
      9.829  0.3186E+01  0.1456E+03
      9.940  0.3164E+01  0.1459E+03
     10.052  0.3045E+01  0.1463E+03
     10.163  0.2979E+01  0.1466E+03
     10.275  0.3122E+01  0.1470E+03
     10.386  0.3336E+01  0.1473E+03
     10.498  0.3453E+01  0.1477E+03
     10.609  0.3532E+01  0.1481E+03
     10.720  0.3614E+01  0.1485E+03
     10.832  0.3633E+01  0.1489E+03
     10.943  0.3593E+01  0.1493E+03
     11.055  0.3942E+01  0.1497E+03
     11.166  0.4166E+01  0.1502E+03
     11.277  0.4266E+01  0.1506E+03
     11.389  0.4137E+01  0.1511E+03
     11.500  0.4091E+01  0.1515E+03
     11.612  0.4114E+01  0.1520E+03
     11.723  0.4843E+01  0.1525E+03
     11.834  0.4252E+01  0.1531E+03
     11.946  0.3433E+01  0.1535E+03
     12.057  0.2821E+01  0.1538E+03
     12.169  0.2365E+01  0.1541E+03
     12.280  0.3480E+01  0.1545E+03
     12.391  0.4268E+01  0.1549E+03
     12.503  0.5153E+01  0.1554E+03
     12.614  0.6966E+01  0.1561E+03
     12.726  0.9331E+01  0.1570E+03
     12.837  0.1094E+02  0.1581E+03
     12.949  0.1238E+02  0.1595E+03
     13.060  0.1174E+02  0.1608E+03
     13.171  0.1048E+02  0.1621E+03
     13.283  0.9884E+01  0.1632E+03
     13.394  0.9917E+01  0.1643E+03
     13.506  0.1114E+02  0.1655E+03
     13.617  0.8382E+01  0.1665E+03
     13.728  0.4858E+01  0.1673E+03
     13.840  0.2698E+01  0.1677E+03
     13.951  0.1178E+01  0.1679E+03
     14.063  0.3539E+00  0.1679E+03
     14.174  0.1667E+00  0.1680E+03
     14.285  0.7998E-01  0.1680E+03
     14.397  0.5572E-01  0.1680E+03
     14.508  0.3583E-01  0.1680E+03
     14.620  0.2032E-01  0.1680E+03
     14.731  0.9173E-02  0.1680E+03
     14.842  0.2403E-02  0.1680E+03
     14.954  0.5099E-05  0.1680E+03
     15.065  0.0000E+00  0.1680E+03
     15.177  0.0000E+00  0.1680E+03
     15.288  0.0000E+00  0.1680E+03
     15.400  0.0000E+00  0.1680E+03
     15.511  0.0000E+00  0.1680E+03
     15.622  0.0000E+00  0.1680E+03
     15.734  0.0000E+00  0.1680E+03
     15.845  0.0000E+00  0.1680E+03
     15.957  0.0000E+00  0.1680E+03
     16.068  0.0000E+00  0.1680E+03
     16.179  0.0000E+00  0.1680E+03
     16.291  0.0000E+00  0.1680E+03
     16.402  0.0000E+00  0.1680E+03
     16.514  0.0000E+00  0.1680E+03
     16.625  0.0000E+00  0.1680E+03
     16.736  0.0000E+00  0.1680E+03
     16.848  0.0000E+00  0.1680E+03
     16.959  0.0000E+00  0.1680E+03
