   16   16    1    1
  0.5698463E+01  0.5052010E-09  0.5052010E-09  0.5052010E-09  0.5000000E-15
  1.000000000000000E-004
  CAR 
 diamond                                 
     64     72     41
 
  0.0000000E+00  0.0000000E+00  0.0000000E+00  0.6944444E-02
    1      -11.724986
    2       -5.989672
    3       -5.977625
    4       -5.977570
    5       -5.966148
    6       -3.644618
    7       -3.633705
    8       -3.633589
    9       -3.623233
   10       -3.062195
   11       -3.048159
   12       -3.043388
   13       -3.043296
   14       -3.038457
   15       -3.023693
   16        3.405784
   17        3.416241
   18        3.416954
   19        3.417022
   20        3.417737
   21        3.428056
   22        6.866753
   23        6.889648
   24        6.896997
   25        6.897589
   26        6.900142
   27        6.900716
   28        6.908290
   29        6.930849
   30        9.668498
   31        9.687369
   32        9.706673
   33       14.416674
   34       14.428682
   35       14.437413
   36       14.437584
   37       14.445876
   38       14.456758
   39       15.247629
   40       15.264431
   41       15.281509
 
  0.1666667E+00  0.0000000E+00  0.6938894E-17  0.1388889E-01
    1      -11.533363
    2       -7.150669
    3       -6.027076
    4       -6.020283
    5       -6.011466
    6       -4.250838
    7       -4.243508
    8       -4.236196
    9       -3.259753
   10       -3.250176
   11       -3.246904
   12       -2.142125
   13       -1.645051
   14       -1.637072
   15       -1.629558
   16        2.866154
   17        2.869502
   18        2.879607
   19        3.576824
   20        3.584443
   21        3.585128
   22        6.250089
   23        6.255826
   24        6.279433
   25        6.535948
   26        6.546513
   27        6.551501
   28        7.010925
   29        7.024905
   30        8.479047
   31        9.350348
   32        9.366997
   33       14.439364
   34       14.444867
   35       14.455740
   36       15.568643
   37       15.580938
   38       15.588705
   39       15.684522
   40       15.700564
   41       15.962757
 
  0.3333333E+00  0.0000000E+00  0.0000000E+00  0.1388889E-01
    1      -10.960873
    2       -8.720376
    3       -6.002371
    4       -5.995441
    5       -5.987688
    6       -5.152744
    7       -5.145734
    8       -5.138380
    9       -2.292693
   10       -2.283575
   11       -2.279858
   12       -0.520306
   13       -0.511075
   14       -0.506390
   15        0.353886
   16        2.071208
   17        2.074209
   18        2.087313
   19        4.065317
   20        4.073837
   21        4.074146
   22        4.714160
   23        4.719933
   24        4.739539
   25        5.725526
   26        5.735309
   27        5.738143
   28        5.953020
   29        7.367712
   30        7.382151
   31        8.656050
   32        8.671146
   33       14.931721
   34       14.936042
   35       14.947180
   36       16.593233
   37       16.609776
   38       16.755101
   39       16.761181
   40       16.772449
   41       17.044384
 
  0.5000000E+00  0.0000000E+00  0.2775558E-16  0.6944444E-02
    1      -10.023978
    2      -10.007973
    3       -5.743488
    4       -5.729099
    5       -5.727785
    6       -5.724962
    7       -5.723113
    8       -5.707334
    9       -1.087918
   10       -1.070112
   11       -1.067616
   12       -1.063373
   13       -1.062836
   14       -1.057709
   15        2.967495
   16        2.970447
   17        2.970486
   18        2.975198
   19        2.980739
   20        3.006953
   21        3.115622
   22        3.138688
   23        4.804387
   24        4.820955
   25        4.828843
   26        4.834935
   27        4.839370
   28        4.840648
   29        7.921320
   30        7.949455
   31        7.955156
   32        7.956094
   33       15.728022
   34       15.734835
   35       15.753068
   36       15.754781
   37       15.755712
   38       15.759454
   39       17.432683
   40       17.457101
   41       17.468931
 
  0.0000000E+00  0.1666667E+00 -0.6938894E-17  0.1388889E-01
    1      -11.533366
    2       -7.149883
    3       -6.029753
    4       -6.020330
    5       -6.011229
    6       -4.254696
    7       -4.243666
    8       -4.232778
    9       -3.259897
   10       -3.250012
   11       -3.240197
   12       -2.147181
   13       -1.647974
   14       -1.636412
   15       -1.624530
   16        2.861852
   17        2.867991
   18        2.874034
   19        3.578186
   20        3.585163
   21        3.592275
   22        6.244841
   23        6.252460
   24        6.259403
   25        6.543739
   26        6.552378
   27        6.561671
   28        7.008099
   29        7.032781
   30        8.465662
   31        9.351822
   32        9.381045
   33       14.438779
   34       14.449551
   35       14.459621
   36       15.566765
   37       15.578015
   38       15.587011
   39       15.671857
   40       15.698886
   41       15.974102
 
  0.1666667E+00  0.1666667E+00  0.0000000E+00  0.1388889E-01
    1      -11.469538
    2       -6.476904
    3       -6.466357
    4       -6.462868
    5       -6.452804
    6       -5.559090
    7       -2.898137
    8       -2.885880
    9       -2.885747
   10       -2.875370
   11       -2.711840
   12       -2.702880
   13       -2.699079
   14       -2.688176
   15       -0.290523
   16        2.895335
   17        2.900205
   18        2.904294
   19        2.909075
   20        3.661134
   21        3.669931
   22        6.028707
   23        6.038545
   24        6.047288
   25        6.056820
   26        6.825523
   27        6.843120
   28        6.845878
   29        6.863828
   30        8.771091
   31        8.791462
   32        9.073040
   33       13.894695
   34       15.067253
   35       15.423247
   36       15.436938
   37       15.440816
   38       15.453150
   39       15.577219
   40       16.379923
   41       16.397658
 
  0.3333333E+00  0.1666667E+00  0.5551115E-16  0.1388889E-01
    1      -11.024103
    2       -8.057395
    3       -6.680554
    4       -6.670718
    5       -6.574389
    6       -5.569751
    7       -3.893928
    8       -3.883319
    9       -2.794564
   10       -1.733256
   11       -1.723173
   12       -1.526532
   13       -1.516458
   14       -0.388585
   15        1.018146
   16        1.707393
   17        1.716261
   18        3.297358
   19        3.304066
   20        3.507974
   21        4.068614
   22        4.239752
   23        4.995334
   24        5.004609
   25        6.096356
   26        6.108451
   27        6.288764
   28        6.304792
   29        6.813163
   30        7.358409
   31        7.975237
   32        8.741748
   33       14.279536
   34       15.361770
   35       15.723800
   36       15.736248
   37       16.911072
   38       17.196363
   39       17.461244
   40       17.464002
   41       17.741506
 
  0.5000000E+00  0.1666667E+00 -0.2775558E-16  0.1388889E-01
    1      -10.203376
    2       -9.455008
    3       -7.249918
    4       -6.577088
    5       -6.567357
    6       -4.643915
    7       -4.620329
    8       -4.609252
    9       -2.339508
   10       -1.362872
   11       -1.353033
   12       -0.519175
   13       -0.509058
   14        1.078551
   15        1.767231
   16        1.781267
   17        2.229568
   18        2.285102
   19        3.726415
   20        3.735413
   21        3.968693
   22        4.034506
   23        4.042445
   24        4.128164
   25        4.762514
   26        5.124722
   27        5.137096
   28        5.202900
   29        6.424833
   30        7.258762
   31        8.048329
   32        8.084396
   33       15.223056
   34       16.205566
   35       16.221315
   36       16.345314
   37       16.358381
   38       16.750649
   39       16.764426
   40       17.432614
   41       18.285450
 
 -0.3333333E+00  0.1666667E+00 -0.1387779E-16  0.1388889E-01
    1      -10.518133
    2       -9.023135
    3       -7.568643
    4       -6.133943
    5       -6.124153
    6       -5.115824
    7       -5.104402
    8       -3.774340
    9       -2.402484
   10       -2.392242
   11       -1.779228
   12       -0.055354
   13        0.390351
   14        0.401230
   15        0.818600
   16        1.363438
   17        2.739473
   18        2.746098
   19        3.324943
   20        3.342979
   21        4.010772
   22        4.019569
   23        4.396822
   24        5.023057
   25        5.031163
   26        5.054056
   27        5.440179
   28        5.645484
   29        6.755549
   30        7.015844
   31        7.340124
   32        8.795333
   33       15.394014
   34       15.798966
   35       15.812282
   36       16.339309
   37       16.556138
   38       16.979906
   39       17.185370
   40       17.200808
   41       17.673331
 
 -0.1666667E+00  0.1666667E+00 -0.9066045E-17  0.1388889E-01
    1      -11.214813
    2       -7.538164
    3       -7.523857
    4       -5.531337
    5       -5.519625
    6       -5.350373
    7       -5.340223
    8       -3.181439
    9       -3.170706
   10       -2.955581
   11       -2.580982
   12       -1.232957
   13       -1.217983
   14       -0.295781
   15       -0.284703
   16        1.469471
   17        3.064647
   18        3.067341
   19        3.331342
   20        3.344386
   21        3.834155
   22        4.997753
   23        5.016202
   24        6.020031
   25        6.029579
   26        6.502372
   27        6.523578
   28        6.700726
   29        6.711542
   30        7.462345
   31        7.952790
   32        9.350232
   33       14.845070
   34       14.924391
   35       14.937915
   36       15.792187
   37       16.502222
   38       16.520639
   39       16.565856
   40       16.919401
   41       17.432606
 
  0.0000000E+00  0.3333333E+00  0.0000000E+00  0.1388889E-01
    1      -10.960871
    2       -8.720280
    3       -6.005802
    4       -5.995621
    5       -5.985865
    6       -5.156542
    7       -5.145970
    8       -5.135227
    9       -2.293773
   10       -2.282898
   11       -2.272194
   12       -0.520619
   13       -0.508507
   14       -0.496466
   15        0.348949
   16        2.063241
   17        2.070197
   18        2.077128
   19        4.067437
   20        4.074741
   21        4.081967
   22        4.707303
   23        4.716680
   24        4.725776
   25        5.730497
   26        5.738945
   27        5.746996
   28        5.944703
   29        7.365509
   30        7.390254
   31        8.655876
   32        8.682446
   33       14.931767
   34       14.942092
   35       14.951764
   36       16.582715
   37       16.611583
   38       16.759315
   39       16.768476
   40       16.779535
   41       17.050242
 
  0.1666667E+00  0.3333333E+00  0.0000000E+00  0.1388889E-01
    1      -11.024104
    2       -8.057205
    3       -6.680627
    4       -6.670708
    5       -6.574465
    6       -5.572198
    7       -3.894420
    8       -3.883613
    9       -2.787794
   10       -1.733474
   11       -1.722893
   12       -1.524268
   13       -1.513959
   14       -0.393376
   15        1.022581
   16        1.702998
   17        1.709395
   18        3.300694
   19        3.308674
   20        3.502785
   21        4.069061
   22        4.232756
   23        4.990289
   24        5.000396
   25        6.102876
   26        6.111882
   27        6.290485
   28        6.312892
   29        6.801981
   30        7.354692
   31        7.973938
   32        8.757233
   33       14.281209
   34       15.356343
   35       15.728423
   36       15.742054
   37       16.909403
   38       17.197890
   39       17.461168
   40       17.466612
   41       17.738505
 
  0.3333333E+00  0.3333333E+00  0.0000000E+00  0.1388889E-01
    1      -10.706797
    2       -7.718739
    3       -7.067752
    4       -7.058201
    5       -7.053377
    6       -7.043826
    7       -2.516295
    8       -2.504396
    9       -2.504113
   10       -2.492662
   11       -0.826800
   12       -0.816800
   13       -0.811755
   14       -0.801579
   15        1.907394
   16        1.911862
   17        1.916164
   18        1.920592
   19        2.522457
   20        4.022029
   21        4.031553
   22        4.038300
   23        4.047768
   24        4.396108
   25        4.405680
   26        6.720042
   27        6.738131
   28        6.740688
   29        6.757966
   30        7.121322
   31        7.135566
   32        7.449012
   33       13.830387
   34       14.603802
   35       17.412891
   36       17.714095
   37       17.722020
   38       17.728086
   39       17.744126
   40       17.876174
   41       17.892527
 
  0.5000000E+00  0.3333333E+00  0.0000000E+00  0.1388889E-01
    1      -10.013391
    2       -8.532075
    3       -8.519002
    4       -7.101389
    5       -7.091881
    6       -5.766564
    7       -3.380788
    8       -3.369267
    9       -1.600645
   10       -1.592103
   11       -0.927259
   12        0.301202
   13        0.311898
   14        1.060017
   15        1.068739
   16        1.684585
   17        1.826565
   18        2.630850
   19        2.639279
   20        2.916907
   21        2.925495
   22        3.270573
   23        4.166968
   24        4.973461
   25        5.020170
   26        5.050664
   27        5.849883
   28        6.153376
   29        6.172805
   30        6.374339
   31        7.022536
   32        7.519985
   33       14.442404
   34       14.862850
   35       16.849491
   36       18.177246
   37       18.233057
   38       18.244781
   39       18.263236
   40       18.275478
   41       18.338412
 
 -0.3333333E+00  0.3333333E+00 -0.1813209E-16  0.1388889E-01
    1       -9.702781
    2       -8.963390
    3       -8.949114
    4       -6.791254
    5       -6.781662
    6       -4.334891
    7       -4.209071
    8       -4.196829
    9       -1.997358
   10       -1.987209
   11       -1.215600
   12        0.356092
   13        1.004858
   14        1.016954
   15        1.892529
   16        1.906932
   17        2.403613
   18        2.411004
   19        2.482547
   20        2.498840
   21        3.781550
   22        3.790176
   23        4.015130
   24        4.895436
   25        4.902666
   26        4.922495
   27        5.017261
   28        5.853775
   29        5.875088
   30        6.269255
   31        6.283316
   32        8.306803
   33       15.676369
   34       15.686475
   35       16.018601
   36       17.302365
   37       17.351707
   38       17.368169
   39       18.278700
   40       18.443056
   41       18.467127
 
 -0.1666667E+00  0.3333333E+00 -0.2081668E-16  0.1388889E-01
    1      -10.518116
    2       -9.023111
    3       -7.568943
    4       -6.134040
    5       -6.124199
    6       -5.116020
    7       -5.104356
    8       -3.777139
    9       -2.402055
   10       -2.391602
   11       -1.771393
   12       -0.049368
   13        0.392726
   14        0.403862
   15        0.812935
   16        1.357769
   17        2.730964
   18        2.737087
   19        3.323504
   20        3.337918
   21        4.013702
   22        4.029798
   23        4.397315
   24        5.023242
   25        5.033650
   26        5.050011
   27        5.430670
   28        5.647662
   29        6.752462
   30        7.024384
   31        7.351369
   32        8.793644
   33       15.394637
   34       15.802459
   35       15.816201
   36       16.342114
   37       16.560115
   38       16.974817
   39       17.191091
   40       17.207720
   41       17.761749
 
  0.0000000E+00  0.5000000E+00 -0.2775558E-16  0.1388889E-01
    1      -10.016070
    2      -10.015903
    3       -5.749019
    4       -5.731087
    5       -5.726351
    6       -5.726334
    7       -5.721612
    8       -5.703881
    9       -1.087266
   10       -1.070493
   11       -1.064702
   12       -1.064676
   13       -1.058931
   14       -1.042353
   15        2.955775
   16        2.967713
   17        2.971784
   18        2.971857
   19        2.975520
   20        2.986690
   21        3.118172
   22        3.119174
   23        4.817704
   24        4.832421
   25        4.832628
   26        4.832702
   27        4.832953
   28        4.847973
   29        7.923406
   30        7.948249
   31        7.950286
   32        7.975848
   33       15.731316
   34       15.750315
   35       15.752251
   36       15.752334
   37       15.753757
   38       15.771120
   39       17.439352
   40       17.454768
   41       17.474208
 
  0.1666667E+00  0.5000000E+00 -0.2775558E-16  0.2777778E-01
    1      -10.203309
    2       -9.455093
    3       -7.250109
    4       -6.577191
    5       -6.567388
    6       -4.646044
    7       -4.620453
    8       -4.610666
    9       -2.331223
   10       -1.360762
   11       -1.350799
   12       -0.518021
   13       -0.507859
   14        1.086576
   15        1.763919
   16        1.774032
   17        2.223735
   18        2.278627
   19        3.718846
   20        3.728268
   21        3.958824
   22        4.038319
   23        4.045656
   24        4.120005
   25        4.763896
   26        5.127561
   27        5.147500
   28        5.203781
   29        6.433193
   30        7.256538
   31        8.045638
   32        8.097158
   33       15.225527
   34       16.198927
   35       16.222148
   36       16.351703
   37       16.364430
   38       16.758155
   39       16.770349
   40       17.441632
   41       18.270042
 
  0.3333333E+00  0.5000000E+00  0.0000000E+00  0.2777778E-01
    1      -10.013365
    2       -8.535980
    3       -8.515098
    4       -7.101412
    5       -7.091884
    6       -5.767162
    7       -3.381356
    8       -3.369584
    9       -1.598996
   10       -1.590407
   11       -0.922085
   12        0.301827
   13        0.312545
   14        1.057748
   15        1.064218
   16        1.679972
   17        1.820876
   18        2.633842
   19        2.641076
   20        2.914856
   21        2.923989
   22        3.280105
   23        4.172864
   24        4.963390
   25        5.020829
   26        5.039283
   27        5.850470
   28        6.153839
   29        6.173995
   30        6.373567
   31        7.036371
   32        7.518488
   33       14.444394
   34       14.860095
   35       16.849909
   36       18.176961
   37       18.246764
   38       18.256361
   39       18.277306
   40       18.289570
   41       18.376662
 
  0.5000000E+00  0.5000000E+00  0.5551115E-16  0.1388889E-01
    1       -9.455713
    2       -9.441498
    3       -7.285967
    4       -7.276535
    5       -7.271465
    6       -7.262134
    7       -2.272393
    8       -2.260318
    9       -2.259624
   10       -2.247995
   11        0.998181
   12        1.010365
   13        1.010886
   14        1.022440
   15        1.398790
   16        1.403359
   17        1.406905
   18        1.411192
   19        2.105249
   20        2.110891
   21        2.113848
   22        2.119253
   23        5.175012
   24        5.178814
   25        5.568486
   26        5.579495
   27        5.589893
   28        5.601138
   29        6.670373
   30        6.687607
   31        6.690068
   32        6.708195
   33       14.115172
   34       14.122579
   35       17.578995
   36       17.589979
   37       17.596127
   38       17.606859
   39       19.636863
   40       19.661488
   41       19.679200
 
  0.0000000E+00  0.0000000E+00  0.2500000E+00  0.1388889E-01
    1      -11.294388
    2       -7.958503
    3       -6.040480
    4       -6.030640
    5       -6.021145
    6       -4.745216
    7       -4.734425
    8       -4.723607
    9       -2.830739
   10       -2.820311
   11       -2.810018
   12       -0.972295
   13       -0.958088
   14       -0.953302
   15       -0.939879
   16        2.371553
   17        2.378232
   18        2.384850
   19        3.784874
   20        3.791976
   21        3.799143
   22        5.543375
   23        5.552077
   24        5.560308
   25        6.170238
   26        6.178739
   27        6.187479
   28        7.157945
   29        7.182607
   30        7.281183
   31        9.024304
   32        9.052061
   33       14.640562
   34       14.651000
   35       14.660790
   36       16.103797
   37       16.131382
   38       16.536462
   39       16.667293
   40       16.677090
   41       16.688865
 
  0.1666667E+00  0.0000000E+00  0.2500000E+00  0.1388889E-01
    1      -11.294287
    2       -7.262483
    3       -6.610881
    4       -6.600767
    5       -6.108061
    6       -6.035924
    7       -3.427094
    8       -3.416345
    9       -2.806248
   10       -2.265316
   11       -2.254119
   12       -2.170684
   13       -2.160014
   14       -1.619966
   15        0.408857
   16        2.284266
   17        2.290854
   18        3.055695
   19        3.063948
   20        3.661723
   21        3.825727
   22        5.199060
   23        5.562548
   24        5.572429
   25        6.044776
   26        6.519685
   27        6.684750
   28        6.706717
   29        7.068954
   30        7.967377
   31        8.376192
   32        8.952341
   33       13.971448
   34       15.100614
   35       15.535156
   36       15.548919
   37       16.091677
   38       16.475705
   39       16.489104
   40       16.916708
   41       16.919353
 
  0.3333333E+00  0.0000000E+00  0.2500000E+00  0.1388889E-01
    1      -10.912883
    2       -7.597039
    3       -7.187889
    4       -6.910927
    5       -6.901211
    6       -6.259580
    7       -3.199950
    8       -3.189147
    9       -2.030438
   10       -2.019752
   11       -1.928278
   12       -1.315462
   13       -1.305660
   14       -0.640185
   15        1.741403
   16        1.749685
   17        1.786762
   18        2.622221
   19        2.629571
   20        4.061199
   21        4.102975
   22        4.192265
   23        4.568880
   24        4.578335
   25        5.120404
   26        6.391701
   27        6.622974
   28        6.641839
   29        7.101888
   30        7.113129
   31        7.547966
   32        8.179572
   33       13.943478
   34       14.869422
   35       16.678265
   36       16.691584
   37       17.002642
   38       17.451631
   39       17.801584
   40       17.825213
   41       17.951101
 
  0.5000000E+00  0.0000000E+00  0.2500000E+00  0.1388889E-01
    1      -10.155520
    2       -9.037638
    3       -7.924170
    4       -6.881597
    5       -6.871998
    6       -5.034131
    7       -4.004757
    8       -3.993538
    9       -1.859867
   10       -1.459446
   11       -1.450227
   12       -0.136337
   13       -0.126011
   14        1.312037
   15        1.324231
   16        1.952898
   17        1.980931
   18        2.186966
   19        3.359517
   20        3.368839
   21        3.428541
   22        3.436215
   23        4.493600
   24        4.624027
   25        4.851813
   26        5.338990
   27        5.496356
   28        5.621178
   29        5.638640
   30        6.819507
   31        7.659261
   32        7.848164
   33       14.843400
   34       15.508666
   35       16.512859
   36       17.187638
   37       17.202164
   38       17.617589
   39       17.634207
   40       17.792591
   41       18.294430
 
 -0.3333333E+00  0.0000000E+00  0.2500000E+00  0.1388889E-01
    1      -10.156280
    2       -9.036169
    3       -8.299878
    4       -6.505147
    5       -6.495472
    6       -4.652930
    7       -4.641026
    8       -3.764654
    9       -2.260733
   10       -2.250360
   11       -1.721330
   12        0.424747
   13        0.779765
   14        0.791309
   15        1.198030
   16        1.929405
   17        2.591573
   18        2.606001
   19        2.658696
   20        2.663956
   21        4.302410
   22        4.317615
   23        4.428023
   24        4.436715
   25        4.615710
   26        4.674093
   27        5.716099
   28        5.854951
   29        5.896109
   30        6.321212
   31        6.888286
   32        8.612658
   33       15.676771
   34       16.052318
   35       16.348580
   36       16.577528
   37       16.592496
   38       16.856702
   39       17.842192
   40       17.866247
   41       18.213274
 
 -0.1666667E+00  0.0000000E+00  0.2500000E+00  0.1388889E-01
    1      -10.913230
    2       -8.309946
    3       -7.594164
    4       -5.784154
    5       -5.774256
    6       -5.319203
    7       -5.307217
    8       -3.331422
    9       -2.866147
   10       -2.855504
   11       -2.048934
   12       -0.657766
   13        0.029085
   14        0.240760
   15        0.251908
   16        0.905799
   17        2.780287
   18        2.785222
   19        3.592674
   20        3.607374
   21        4.079861
   22        4.184733
   23        4.201092
   24        5.548719
   25        5.557543
   26        6.101053
   27        6.140230
   28        6.363934
   29        6.597979
   30        7.010829
   31        7.418696
   32        9.118385
   33       15.083352
   34       15.358082
   35       15.371849
   36       16.126043
   37       16.910760
   38       17.110337
   39       17.238562
   40       17.412867
   41       17.511262
 
  0.0000000E+00  0.1666667E+00  0.2500000E+00  0.1388889E-01
    1      -11.294284
    2       -7.262455
    3       -6.613514
    4       -6.599337
    5       -6.107957
    6       -6.033974
    7       -3.429627
    8       -3.413685
    9       -2.812450
   10       -2.265884
   11       -2.247362
   12       -2.174264
   13       -2.157539
   14       -1.620053
   15        0.408029
   16        2.282799
   17        2.295857
   18        3.051780
   19        3.064339
   20        3.658210
   21        3.830363
   22        5.198354
   23        5.563760
   24        5.582344
   25        6.036078
   26        6.525965
   27        6.680776
   28        6.692380
   29        7.079458
   30        7.967715
   31        8.385651
   32        8.941452
   33       13.971321
   34       15.102749
   35       15.534879
   36       15.544749
   37       16.091267
   38       16.478475
   39       16.490768
   40       16.909216
   41       16.925477
 
  0.1666667E+00  0.1666667E+00  0.2500000E+00  0.1388889E-01
    1      -11.421766
    2       -7.380986
    3       -6.722828
    4       -5.772743
    5       -5.761146
    6       -4.837495
    7       -4.827452
    8       -3.512562
    9       -3.304049
   10       -3.293449
   11       -2.367466
   12       -2.228177
   13       -1.732320
   14       -0.958733
   15       -0.947909
   16        2.176008
   17        2.977455
   18        2.985638
   19        3.505523
   20        3.510275
   21        3.675517
   22        5.694951
   23        5.715730
   24        6.378264
   25        6.388206
   26        6.439650
   27        6.512729
   28        6.847710
   29        7.019225
   30        8.045456
   31        8.771337
   32        9.463172
   33       14.563068
   34       14.575591
   35       14.671729
   36       15.610801
   37       15.890155
   38       15.904918
   39       16.100849
   40       16.368892
   41       16.377887
 
  0.3333333E+00  0.1666667E+00  0.2500000E+00  0.1388889E-01
    1      -11.167113
    2       -7.836717
    3       -7.142526
    4       -5.998703
    5       -5.916769
    6       -5.541110
    7       -4.632973
    8       -3.377274
    9       -3.073559
   10       -2.706083
   11       -2.123890
   12       -1.515957
   13       -0.922924
   14       -0.854118
   15        0.369195
   16        1.526697
   17        2.450133
   18        3.232354
   19        3.276045
   20        3.689942
   21        3.782317
   22        4.751449
   23        4.999448
   24        5.883349
   25        6.095861
   26        6.109028
   27        6.424126
   28        6.543552
   29        7.155213
   30        7.211299
   31        8.078936
   32        9.157224
   33       14.462504
   34       15.085917
   35       15.439547
   36       15.573792
   37       16.582745
   38       16.856879
   39       16.898316
   40       17.070003
   41       17.483974
 
  0.5000000E+00  0.1666667E+00  0.2500000E+00  0.1388889E-01
    1      -10.533745
    2       -8.670448
    3       -7.942439
    4       -6.841063
    5       -5.460692
    6       -5.348187
    7       -4.984874
    8       -3.383229
    9       -2.533677
   10       -2.183158
   11       -1.929996
   12       -0.001707
   13        0.280220
   14        0.549661
   15        0.997790
   16        1.281283
   17        2.245433
   18        3.141230
   19        3.250854
   20        3.390174
   21        3.441657
   22        4.199718
   23        4.212474
   24        5.099622
   25        5.180376
   26        5.453086
   27        5.485292
   28        6.113943
   29        6.290146
   30        6.633352
   31        7.130781
   32        8.747717
   33       15.368293
   34       15.586899
   35       16.158462
   36       16.574498
   37       16.676835
   38       16.984806
   39       17.420933
   40       17.966892
   41       18.011961
 
 -0.3333333E+00  0.1666667E+00  0.2500000E+00  0.1388889E-01
    1       -9.905494
    2       -9.531803
    3       -7.687024
    4       -7.336084
    5       -5.962699
    6       -4.984930
    7       -4.446062
    8       -4.098460
    9       -2.066461
   10       -1.895822
   11       -1.063562
   12       -0.635675
   13        0.641138
   14        1.383783
   15        1.430837
   16        1.622687
   17        2.096536
   18        2.802358
   19        2.820043
   20        3.709779
   21        3.852274
   22        3.923430
   23        4.221072
   24        4.313582
   25        4.642698
   26        4.978089
   27        5.105554
   28        5.383133
   29        5.986095
   30        6.566159
   31        7.874224
   32        8.023515
   33       15.501558
   34       16.209451
   35       16.345491
   36       16.462862