  32  32   0   0
  0.7533559E+01  0.4934311E-09  0.4934311E-09  0.1143376E-08  0.5000000E-15
  1.000000000000000E-004
  CAR 
 graphite                                
     17.47829455    -15.20526943  301      6.14265917      1.00000000
    -15.205  0.0000E+00  0.0000E+00
    -15.096  0.0000E+00  0.0000E+00
    -14.987  0.0000E+00  0.0000E+00
    -14.878  0.0000E+00  0.0000E+00
    -14.769  0.0000E+00  0.0000E+00
    -14.661  0.0000E+00  0.0000E+00
    -14.552  0.0000E+00  0.0000E+00
    -14.443  0.0000E+00  0.0000E+00
    -14.334  0.0000E+00  0.0000E+00
    -14.225  0.2800E-13  0.3051E-14
    -14.116  0.6982E-09  0.7607E-10
    -14.007  0.1853E-05  0.2020E-06
    -13.898  0.5948E-03  0.6500E-04
    -13.789  0.3013E-01  0.3348E-02
    -13.680  0.3287E+00  0.3916E-01
    -13.571  0.9734E+00  0.1452E+00
    -13.462  0.1574E+01  0.3167E+00
    -13.353  0.2122E+01  0.5479E+00
    -13.244  0.2166E+01  0.7839E+00
    -13.135  0.2959E+01  0.1106E+01
    -13.026  0.3372E+01  0.1474E+01
    -12.917  0.3328E+01  0.1836E+01
    -12.808  0.3885E+01  0.2259E+01
    -12.700  0.5226E+01  0.2829E+01
    -12.591  0.5141E+01  0.3389E+01
    -12.482  0.4665E+01  0.3897E+01
    -12.373  0.4398E+01  0.4376E+01
    -12.264  0.5160E+01  0.4938E+01
    -12.155  0.5425E+01  0.5529E+01
    -12.046  0.5171E+01  0.6093E+01
    -11.937  0.4817E+01  0.6618E+01
    -11.828  0.4651E+01  0.7124E+01
    -11.719  0.4396E+01  0.7603E+01
    -11.610  0.5243E+01  0.8174E+01
    -11.501  0.5493E+01  0.8773E+01
    -11.392  0.5878E+01  0.9413E+01
    -11.283  0.5162E+01  0.9976E+01
    -11.174  0.3646E+01  0.1037E+02
    -11.065  0.3943E+01  0.1080E+02
    -10.956  0.5550E+01  0.1141E+02
    -10.847  0.6441E+01  0.1211E+02
    -10.739  0.5722E+01  0.1273E+02
    -10.630  0.4750E+01  0.1325E+02
    -10.521  0.4770E+01  0.1377E+02
    -10.412  0.4298E+01  0.1424E+02
    -10.303  0.4282E+01  0.1470E+02
    -10.194  0.5383E+01  0.1529E+02
    -10.085  0.6432E+01  0.1599E+02
     -9.976  0.5599E+01  0.1660E+02
     -9.867  0.5392E+01  0.1719E+02
     -9.758  0.5069E+01  0.1774E+02
     -9.649  0.3978E+01  0.1817E+02
     -9.540  0.4917E+01  0.1871E+02
     -9.431  0.5804E+01  0.1934E+02
     -9.322  0.5324E+01  0.1992E+02
     -9.213  0.5370E+01  0.2051E+02
     -9.104  0.5771E+01  0.2114E+02
     -8.995  0.5255E+01  0.2171E+02
     -8.886  0.5832E+01  0.2234E+02
     -8.778  0.5699E+01  0.2297E+02
     -8.669  0.4764E+01  0.2348E+02
     -8.560  0.5512E+01  0.2408E+02
     -8.451  0.6038E+01  0.2474E+02
     -8.342  0.5509E+01  0.2534E+02
     -8.233  0.6432E+01  0.2604E+02
     -8.124  0.6653E+01  0.2677E+02
     -8.015  0.7230E+01  0.2756E+02
     -7.906  0.6723E+01  0.2829E+02
     -7.797  0.5511E+01  0.2889E+02
     -7.688  0.5752E+01  0.2952E+02
     -7.579  0.3806E+01  0.2993E+02
     -7.470  0.1902E+01  0.3014E+02
     -7.361  0.2612E+01  0.3042E+02
     -7.252  0.3266E+01  0.3078E+02
     -7.143  0.3179E+01  0.3112E+02
     -7.034  0.2688E+01  0.3142E+02
     -6.925  0.3474E+01  0.3180E+02
     -6.816  0.5715E+01  0.3242E+02
     -6.708  0.5076E+01  0.3297E+02
     -6.599  0.3407E+01  0.3334E+02
     -6.490  0.3861E+01  0.3376E+02
     -6.381  0.6449E+01  0.3447E+02
     -6.272  0.7798E+01  0.3531E+02
     -6.163  0.6585E+01  0.3603E+02
     -6.054  0.6455E+01  0.3674E+02
     -5.945  0.6330E+01  0.3743E+02
     -5.836  0.5530E+01  0.3803E+02
     -5.727  0.7056E+01  0.3880E+02
     -5.618  0.7781E+01  0.3964E+02
     -5.509  0.4522E+01  0.4014E+02
     -5.400  0.4248E+01  0.4060E+02
     -5.291  0.5874E+01  0.4124E+02
     -5.182  0.5622E+01  0.4185E+02
     -5.073  0.4836E+01  0.4238E+02
     -4.964  0.4991E+01  0.4292E+02
     -4.855  0.5668E+01  0.4354E+02
     -4.747  0.3709E+01  0.4394E+02
     -4.638  0.3157E+01  0.4429E+02
     -4.529  0.4877E+01  0.4482E+02
     -4.420  0.5074E+01  0.4537E+02
     -4.311  0.5239E+01  0.4594E+02
     -4.202  0.5658E+01  0.4656E+02
     -4.093  0.3790E+01  0.4697E+02
     -3.984  0.5036E+01  0.4752E+02
     -3.875  0.7249E+01  0.4831E+02
     -3.766  0.6992E+01  0.4907E+02
     -3.657  0.5539E+01  0.4968E+02
     -3.548  0.4338E+01  0.5015E+02
     -3.439  0.6428E+01  0.5085E+02
     -3.330  0.6950E+01  0.5161E+02
     -3.221  0.5299E+01  0.5218E+02
     -3.112  0.5008E+01  0.5273E+02
     -3.003  0.5891E+01  0.5337E+02
     -2.894  0.5373E+01  0.5396E+02
     -2.786  0.7198E+01  0.5474E+02
     -2.677  0.9965E+01  0.5583E+02
     -2.568  0.9983E+01  0.5691E+02
     -2.459  0.9383E+01  0.5794E+02
     -2.350  0.7233E+01  0.5872E+02
     -2.241  0.2770E+01  0.5903E+02
     -2.132  0.2404E+01  0.5929E+02
     -2.023  0.7501E+01  0.6010E+02
     -1.914  0.1180E+02  0.6139E+02
     -1.805  0.1313E+02  0.6282E+02
     -1.696  0.1100E+02  0.6402E+02
     -1.587  0.8151E+01  0.6491E+02
     -1.478  0.8188E+01  0.6580E+02
     -1.369  0.7750E+01  0.6664E+02
     -1.260  0.8122E+01  0.6753E+02
     -1.151  0.7316E+01  0.6833E+02
     -1.042  0.9415E+01  0.6935E+02
     -0.933  0.1292E+02  0.7076E+02
     -0.825  0.1295E+02  0.7217E+02
     -0.716  0.1115E+02  0.7338E+02
     -0.607  0.1011E+02  0.7449E+02
     -0.498  0.1151E+02  0.7574E+02
     -0.389  0.1339E+02  0.7720E+02
     -0.280  0.1553E+02  0.7889E+02
     -0.171  0.1617E+02  0.8065E+02
     -0.062  0.1218E+02  0.8198E+02
      0.047  0.1363E+02  0.8346E+02
      0.156  0.1606E+02  0.8521E+02
      0.265  0.1465E+02  0.8681E+02
      0.374  0.1192E+02  0.8811E+02
      0.483  0.1169E+02  0.8938E+02
      0.592  0.1205E+02  0.9069E+02
      0.701  0.9690E+01  0.9175E+02
      0.810  0.9495E+01  0.9278E+02
      0.919  0.1101E+02  0.9398E+02
      1.028  0.1331E+02  0.9543E+02
      1.137  0.1187E+02  0.9673E+02
      1.245  0.7728E+01  0.9757E+02
      1.354  0.5824E+01  0.9820E+02
      1.463  0.1054E+02  0.9935E+02
      1.572  0.1628E+02  0.1011E+03
      1.681  0.1303E+02  0.1025E+03
      1.790  0.8821E+01  0.1035E+03
      1.899  0.4914E+01  0.1040E+03
      2.008  0.5533E+01  0.1046E+03
      2.117  0.9124E+01  0.1056E+03
      2.226  0.1343E+02  0.1071E+03
      2.335  0.1176E+02  0.1084E+03
      2.444  0.9264E+01  0.1094E+03
      2.553  0.8562E+01  0.1103E+03
      2.662  0.8295E+01  0.1112E+03
      2.771  0.8533E+01  0.1122E+03
      2.880  0.8967E+01  0.1131E+03
      2.989  0.8437E+01  0.1141E+03
      3.098  0.1005E+02  0.1151E+03
      3.206  0.9719E+01  0.1162E+03
      3.315  0.7083E+01  0.1170E+03
      3.424  0.5343E+01  0.1176E+03
      3.533  0.6359E+01  0.1183E+03
      3.642  0.5361E+01  0.1188E+03
      3.751  0.4309E+01  0.1193E+03
      3.860  0.5382E+01  0.1199E+03
      3.969  0.5593E+01  0.1205E+03
      4.078  0.4810E+01  0.1210E+03
      4.187  0.6816E+01  0.1218E+03
      4.296  0.6849E+01  0.1225E+03
      4.405  0.8083E+01  0.1234E+03
      4.514  0.7343E+01  0.1242E+03
      4.623  0.4660E+01  0.1247E+03
      4.732  0.3136E+01  0.1250E+03
      4.841  0.3683E+01  0.1254E+03
      4.950  0.5292E+01  0.1260E+03
      5.059  0.2622E+01  0.1263E+03
      5.167  0.2125E+01  0.1265E+03
      5.276  0.2543E+01  0.1268E+03
      5.385  0.2214E+01  0.1271E+03
      5.494  0.1452E+01  0.1272E+03
      5.603  0.9225E+00  0.1273E+03
      5.712  0.1699E+01  0.1275E+03
      5.821  0.2257E+01  0.1277E+03
      5.930  0.1220E+01  0.1279E+03
      6.039  0.3688E+00  0.1279E+03
      6.148  0.7824E+00  0.1280E+03
      6.257  0.7511E+00  0.1281E+03
      6.366  0.2123E+00  0.1281E+03
      6.475  0.1239E-01  0.1281E+03
      6.584  0.7569E-01  0.1281E+03
      6.693  0.9699E+00  0.1282E+03
      6.802  0.2151E+01  0.1285E+03
      6.911  0.1423E+01  0.1286E+03
      7.020  0.7382E+00  0.1287E+03
      7.128  0.8328E+00  0.1288E+03
      7.237  0.7918E+00  0.1289E+03
      7.346  0.1974E+01  0.1291E+03
      7.455  0.3576E+01  0.1295E+03
      7.564  0.3722E+01  0.1299E+03
      7.673  0.4676E+01  0.1304E+03
      7.782  0.6598E+01  0.1311E+03
      7.891  0.6852E+01  0.1319E+03
      8.000  0.9227E+01  0.1329E+03
      8.109  0.8649E+01  0.1338E+03
      8.218  0.5852E+01  0.1344E+03
      8.327  0.6857E+01  0.1352E+03
      8.436  0.6315E+01  0.1359E+03
      8.545  0.4374E+01  0.1364E+03
      8.654  0.5400E+01  0.1369E+03
      8.763  0.6289E+01  0.1376E+03
      8.872  0.4425E+01  0.1381E+03
      8.981  0.4350E+01  0.1386E+03
      9.090  0.3990E+01  0.1390E+03
      9.198  0.3820E+01  0.1394E+03
      9.307  0.4681E+01  0.1399E+03
      9.416  0.5046E+01  0.1405E+03
      9.525  0.5508E+01  0.1411E+03
      9.634  0.5362E+01  0.1417E+03
      9.743  0.3777E+01  0.1421E+03
      9.852  0.2625E+01  0.1424E+03
      9.961  0.2762E+01  0.1427E+03
     10.070  0.2544E+01  0.1430E+03
     10.179  0.3696E+01  0.1434E+03
     10.288  0.4344E+01  0.1438E+03
     10.397  0.3021E+01  0.1442E+03
     10.506  0.3513E+01  0.1445E+03
     10.615  0.4360E+01  0.1450E+03
     10.724  0.4488E+01  0.1455E+03
     10.833  0.3252E+01  0.1459E+03
     10.942  0.2214E+01  0.1461E+03
     11.051  0.3006E+01  0.1464E+03
     11.159  0.2775E+01  0.1467E+03
     11.268  0.2626E+01  0.1470E+03
     11.377  0.2216E+01  0.1473E+03
     11.486  0.3070E+01  0.1476E+03
     11.595  0.2274E+01  0.1478E+03
     11.704  0.3183E+01  0.1482E+03
     11.813  0.4395E+01  0.1487E+03
     11.922  0.3660E+01  0.1491E+03
     12.031  0.2960E+01  0.1494E+03
     12.140  0.2612E+01  0.1497E+03
     12.249  0.1899E+01  0.1499E+03
     12.358  0.1682E+01  0.1501E+03
     12.467  0.1658E+01  0.1502E+03
     12.576  0.2524E+01  0.1505E+03
     12.685  0.3424E+01  0.1509E+03
     12.794  0.3731E+01  0.1513E+03
     12.903  0.3204E+01  0.1516E+03
     13.012  0.3650E+01  0.1520E+03
     13.120  0.4685E+01  0.1526E+03
     13.229  0.5072E+01  0.1531E+03
     13.338  0.4503E+01  0.1536E+03
     13.447  0.6789E+01  0.1543E+03
     13.556  0.7895E+01  0.1552E+03
     13.665  0.7215E+01  0.1560E+03
     13.774  0.8015E+01  0.1569E+03
     13.883  0.7894E+01  0.1577E+03
     13.992  0.8868E+01  0.1587E+03
     14.101  0.9165E+01  0.1597E+03
     14.210  0.1060E+02  0.1608E+03
     14.319  0.1078E+02  0.1620E+03
     14.428  0.1290E+02  0.1634E+03
     14.537  0.1157E+02  0.1647E+03
     14.646  0.9531E+01  0.1657E+03
     14.755  0.7000E+01  0.1665E+03
     14.864  0.3150E+01  0.1668E+03
     14.973  0.2259E+01  0.1671E+03
     15.081  0.3327E+01  0.1674E+03
     15.190  0.3045E+01  0.1678E+03
     15.299  0.1253E+01  0.1679E+03
     15.408  0.1427E+00  0.1679E+03
     15.517  0.5113E-01  0.1679E+03
     15.626  0.2324E+00  0.1679E+03
     15.735  0.1568E+00  0.1680E+03
     15.844  0.2541E-01  0.1680E+03
     15.953  0.1141E+00  0.1680E+03
     16.062  0.1737E+00  0.1680E+03
     16.171  0.3997E-01  0.1680E+03
     16.280  0.1245E-02  0.1680E+03
     16.389  0.4570E-05  0.1680E+03
     16.498  0.1800E-08  0.1680E+03
     16.607  0.7208E-13  0.1680E+03
     16.716  0.0000E+00  0.1680E+03
     16.825  0.0000E+00  0.1680E+03
     16.934  0.0000E+00  0.1680E+03
     17.043  0.0000E+00  0.1680E+03
     17.151  0.0000E+00  0.1680E+03
     17.260  0.0000E+00  0.1680E+03
     17.369  0.0000E+00  0.1680E+03
     17.478  0.0000E+00  0.1680E+03
