   32   32    1    1
  0.8468675E+01  0.4932875E-09  0.4932875E-09  0.1286560E-08  0.5000000E-15
  1.000000000000000E-004
  CAR 
 graphite                                
    128    163     84
 
  0.0000000E+00  0.0000000E+00  0.0000000E+00  0.3086420E-02
    1      -14.625559
    2      -14.428766
    3      -14.427830
    4      -14.212947
    5       -9.273139
    6       -9.265482
    7       -9.262134
    8       -9.186030
    9       -9.185779
   10       -9.178182
   11       -9.174124
   12       -9.174107
   13       -9.172302
   14       -9.119156
   15       -9.107477
   16       -9.105198
   17       -8.177024
   18       -8.174116
   19       -8.172539
   20       -8.140599
   21       -8.136260
   22       -8.134721
   23       -8.133718
   24       -8.133714
   25       -8.130336
   26       -8.062429
   27       -8.057375
   28       -8.054688
   29       -3.635514
   30       -2.553886
   31       -2.551791
   32       -1.352067
   33       -1.349322
   34       -1.329982
   35       -1.313099
   36       -1.308473
   37       -1.308461
   38       -1.308115
   39       -1.289795
   40       -1.287823
   41       -1.268780
   42       -1.266363
   43       -1.246925
   44       -1.213474
   45        2.048489
   46        2.062962
   47        2.069381
   48        2.072907
   49        2.081307
   50        2.085452
   51        2.089914
   52        2.103598
   53        2.171569
   54        2.174108
   55        2.175880
   56        2.698523
   57        2.699934
   58        2.702154
   59        2.706130
   60        2.706162
   61        2.707225
   62        3.010065
   63        3.027736
   64        3.029315
   65        6.601642
   66        6.603505
   67        6.607190
   68        6.697125
   69        6.703888
   70        6.707761
   71        6.709076
   72        6.709522
   73        6.715694
   74        7.362708
   75        7.376726
   76        7.380027
   77        9.750970
   78       12.188819
   79       12.192840
   80       12.226113
   81       12.447396
   82       12.451444
   83       12.460759
   84       12.479875
 
  0.1111111E+00  0.2081668E-16  0.0000000E+00  0.6172840E-02
    1      -14.551643
    2      -14.355682
    3      -14.354750
    4      -14.140741
    5      -10.074938
    6       -9.932077
    7       -9.930976
    8       -9.780159
    9       -9.531128
   10       -9.523008
   11       -9.406928
   12       -9.406185
   13       -9.397679
   14       -9.397299
   15       -9.281239
   16       -9.271623
   17       -7.894384
   18       -7.888149
   19       -7.799074
   20       -7.795556
   21       -7.790658
   22       -7.790103
   23       -7.684483
   24       -7.677316
   25       -7.380772
   26       -7.268372
   27       -7.267011
   28       -7.146463
   29       -3.545685
   30       -2.467032
   31       -2.464938
   32       -1.578455
   33       -1.558846
   34       -1.533425
   35       -1.532477
   36       -1.514177
   37       -1.512221
   38       -1.486506
   39       -1.466809
   40       -1.278894
   41       -1.239409
   42       -1.236018
   43       -1.196277
   44       -1.130634
   45        1.557262
   46        1.764708
   47        1.782822
   48        1.786682
   49        1.805306
   50        1.894681
   51        1.911367
   52        1.917000
   53        1.932914
   54        2.047674
   55        2.049472
   56        2.276652
   57        2.279366
   58        2.646745
   59        2.648047
   60        2.653564
   61        2.654306
   62        2.963270
   63        3.092413
   64        3.108133
   65        6.652295
   66        6.655236
   67        6.828968
   68        6.835478
   69        6.839639
   70        6.842364
   71        6.894805
   72        7.249615
   73        7.254023
   74        7.500112
   75        7.512134
   76        7.992962
   77        9.837761
   78       12.232670
   79       12.487303
   80       12.489675
   81       12.526113
   82       12.561248
   83       12.756479
   84       12.790337
 
  0.2222222E+00  0.2775558E-16  0.0000000E+00  0.6172840E-02
    1      -14.330218
    2      -14.136626
    3      -14.135704
    4      -13.924532
    5      -11.090870
    6      -10.932442
    7      -10.931596
    8      -10.762170
    9       -9.882640
   10       -9.876940
   11       -9.742693
   12       -9.741453
   13       -9.736054
   14       -9.735626
   15       -9.593650
   16       -9.587431
   17       -7.218513
   18       -7.209266
   19       -7.110683
   20       -7.107569
   21       -7.100041
   22       -7.099335
   23       -6.991495
   24       -6.982127
   25       -6.053224
   26       -5.947024
   27       -5.945819
   28       -5.834238
   29       -3.277148
   30       -2.207273
   31       -2.205176
   32       -2.188776
   33       -2.170370
   34       -2.133980
   35       -2.133201
   36       -2.115948
   37       -2.114009
   38       -2.076393
   39       -2.057908
   40       -1.063647
   41       -1.024998
   42       -1.021453
   43       -0.982490
   44       -0.883368
   45        0.516875
   46        0.933750
   47        0.964125
   48        0.967852
   49        0.998466
   50        1.388086
   51        1.390255
   52        1.472194
   53        1.495144
   54        1.500723
   55        1.523399
   56        1.810720
   57        1.813315
   58        2.381807
   59        2.525519
   60        2.526265
   61        2.530786
   62        2.532187
   63        3.207336
   64        3.218093
   65        6.847463
   66        6.850035
   67        7.164448
   68        7.170487
   69        7.174570
   70        7.177023
   71        7.802453
   72        7.810229
   73        7.967294
   74        8.472110
   75        8.475697
   76        9.202520
   77       10.099010
   78       12.353560
   79       12.599509
   80       12.601747
   81       12.836845
   82       12.976368
   83       12.980600
   84       13.421156
 
  0.3333333E+00  0.5551115E-16  0.0000000E+00  0.6172840E-02
    1      -13.962543
    2      -13.772810
    3      -13.771905
    4      -13.565430
    5      -12.007236
    6      -11.838500
    7      -11.837680
    8      -11.655801
    9      -10.140745
   10      -10.137104
   11       -9.994944
   12       -9.993328
   13       -9.990260
   14       -9.989841
   15       -9.838311
   16       -9.834474
   17       -6.408253
   18       -6.397502
   19       -6.308059
   20       -6.304810
   21       -6.296177
   22       -6.295165
   23       -6.199506
   24       -6.189023
   25       -4.614742
   26       -4.522158
   27       -4.520766
   28       -4.423882
   29       -3.007266
   30       -2.991289
   31       -2.943445
   32       -2.943066
   33       -2.928056
   34       -2.926001
   35       -2.875899
   36       -2.859690
   37       -2.832452
   38       -1.777907
   39       -1.775809
   40       -0.714281
   41       -0.677133
   42       -0.673347
   43       -0.635623
   44       -0.515485
   45       -0.475926
   46       -0.257622
   47       -0.211983
   48       -0.208892
   49       -0.162896
   50        0.435402
   51        0.437434
   52        0.907441
   53        0.935798
   54        0.940814
   55        0.969179
   56        1.572205
   57        1.608223
   58        1.610745
   59        2.401471
   60        2.402052
   61        2.405097
   62        2.407186
   63        3.260197
   64        3.266576
   65        7.165713
   66        7.170428
   67        7.557329
   68        7.562780
   69        7.565836
   70        7.567744
   71        8.089995
   72        8.094098
   73        9.465079
   74        9.949759
   75        9.952930
   76       10.534310
   77       10.593638
   78       12.505647
   79       12.773309
   80       12.775814
   81       12.788553
   82       13.155655
   83       13.160728
   84       13.219785
 
  0.4444444E+00  0.5551115E-16  0.0000000E+00  0.6172840E-02
    1      -13.450303
    2      -13.266067
    3      -13.265172
    4      -13.065239
    5      -12.796847
    6      -12.619468
    7      -12.618644
    8      -12.426989
    9      -10.273485
   10      -10.271404
   11      -10.125599
   12      -10.123436
   13      -10.122415
   14      -10.121727
   15       -9.965823
   16       -9.963688
   17       -5.649585
   18       -5.641424
   19       -5.576494
   20       -5.572484
   21       -5.567696
   22       -5.565722
   23       -5.499846
   24       -5.493018
   25       -3.749984
   26       -3.741466
   27       -3.699320
   28       -3.698378
   29       -3.690763
   30       -3.688222
   31       -3.638955
   32       -3.629104
   33       -3.128454
   34       -3.051057
   35       -3.049256
   36       -2.969221
   37       -2.216678
   38       -1.650065
   39       -1.589850
   40       -1.587586
   41       -1.523254
   42       -1.438462
   43       -1.183239
   44       -1.181338
   45       -0.439057
   46       -0.437045
   47       -0.247405
   48       -0.211975
   49       -0.207825
   50       -0.172392
   51        0.083203
   52        0.308959
   53        0.341581
   54        0.345998
   55        0.378705
   56        0.777375
   57        1.497049
   58        1.499132
   59        2.326708
   60        2.327970
   61        2.329095
   62        2.331981
   63        3.271096
   64        3.274187
   65        7.435015
   66        7.438671
   67        7.826003
   68        7.831276
   69        7.832099
   70        7.833182
   71        8.239922
   72        8.242610
   73       11.098407
   74       11.142041
   75       11.488652
   76       11.492074
   77       11.902415
   78       12.026459
   79       12.710650
   80       12.830914
   81       12.875130
   82       12.882084
   83       12.989099
   84       12.993102
 
  0.0000000E+00  0.1111111E+00  0.0000000E+00  0.6172840E-02
    1      -14.551645
    2      -14.355685
    3      -14.354750
    4      -14.140743
    5      -10.074859
    6       -9.931902
    7       -9.930968
    8       -9.780055
    9       -9.531115
   10       -9.523304
   11       -9.406927
   12       -9.406182
   13       -9.398243
   14       -9.397389
   15       -9.281204
   16       -9.272042
   17       -7.894495
   18       -7.886817
   19       -7.799384
   20       -7.795557
   21       -7.790147
   22       -7.787828
   23       -7.684604
   24       -7.675935
   25       -7.381768
   26       -7.269063
   27       -7.268308
   28       -7.147460
   29       -3.545680
   30       -2.467025
   31       -2.464934
   32       -1.579776
   33       -1.558841
   34       -1.535860
   35       -1.532480
   36       -1.514177
   37       -1.512425
   38       -1.487748
   39       -1.466951
   40       -1.277423
   41       -1.236713
   42       -1.236014
   43       -1.195023
   44       -1.130627
   45        1.558128
   46        1.762219
   47        1.780774
   48        1.782825
   49        1.801450
   50        1.898999
   51        1.916995
   52        1.917136
   53        1.935206
   54        2.047008
   55        2.048916
   56        2.278482
   57        2.279553
   58        2.646723
   59        2.648023
   60        2.651478
   61        2.653842
   62        2.964404
   63        3.092431
   64        3.107000
   65        6.654205
   66        6.655126
   67        6.829451
   68        6.835408
   69        6.840552
   70        6.845399
   71        6.892943
   72        7.248324
   73        7.251635
   74        7.500248
   75        7.514327
   76        7.991126
   77        9.837769
   78       12.233180
   79       12.488148
   80       12.489678
   81       12.525711
   82       12.561185
   83       12.756675
   84       12.788248
 
  0.1111111E+00  0.1111111E+00  0.0000000E+00  0.6172840E-02
    1      -14.403861
    2      -14.209478
    3      -14.208553
    4      -13.996438
    5      -10.542889
    6      -10.539779
    7      -10.393159
    8      -10.389265
    9      -10.389239
   10      -10.386893
   11      -10.229584
   12      -10.226439
   13       -9.083121
   14       -8.997706
   15       -8.996888
   16       -8.931911
   17       -7.992003
   18       -7.956964
   19       -7.952992
   20       -7.882359
   21       -6.697980
   22       -6.694705
   23       -6.588678
   24       -6.585482
   25       -6.585459
   26       -6.581939
   27       -6.469898
   28       -6.466426
   29       -3.366403
   30       -2.293575
   31       -2.291482
   32       -2.246121
   33       -2.190891
   34       -2.189261
   35       -2.132587
   36       -1.434941
   37       -1.431969
   38       -1.392227
   39       -1.387505
   40       -1.387495
   41       -1.386736
   42       -1.344029
   43       -1.341446
   44       -0.965432
   45        1.110363
   46        1.112421
   47        1.235358
   48        1.253723
   49        1.257904
   50        1.275092
   51        1.581506
   52        1.595588
   53        1.601083
   54        1.615803
   55        1.916598
   56        1.920369
   57        1.920498
   58        1.921943
   59        2.441339
   60        2.787237
   61        2.789611
   62        2.964270
   63        2.966429
   64        3.268960
   65        6.600937
   66        6.626592
   67        6.632171
   68        7.161472
   69        7.337937
   70        7.340410
   71        7.790548
   72        7.792608
   73        7.793365
   74        7.797940
   75        8.513572
   76        8.516402
   77       10.012171
   78       12.606989
   79       12.611194
   80       12.857768
   81       12.863394
   82       12.863465
   83       12.866214
   84       12.928711
 
  0.2222222E+00  0.1111111E+00  0.0000000E+00  0.6172840E-02
    1      -14.109206
    2      -13.917953
    3      -13.917045
    4      -13.708693
    5      -11.511993
    6      -11.348830
    7      -11.347976
    8      -11.172897
    9      -10.885175
   10      -10.729401
   11      -10.728496
   12      -10.561735
   13       -9.143631
   14       -9.023678
   15       -9.023330
   16       -8.902973
   17       -7.545516
   18       -7.456405
   19       -7.452957
   20       -7.349717
   21       -5.910123
   22       -5.808416
   23       -5.807276
   24       -5.700618
   25       -5.309991
   26       -5.211392
   27       -5.210167
   28       -5.106873
   29       -3.158389
   30       -3.092266
   31       -3.090672
   32       -3.021503
   33       -3.009699
   34       -1.962877
   35       -1.948845
   36       -1.946750
   37       -1.909692
   38       -1.909312
   39       -1.854302
   40       -1.147493
   41       -1.105534
   42       -1.102070
   43       -1.059476
   44       -0.637871
   45        0.053814
   46        0.275965
   47        0.307095
   48        0.311441
   49        0.341574
   50        0.768540
   51        0.968059
   52        0.970132
   53        1.034063
   54        1.055365
   55        1.061339
   56        1.083366
   57        1.631878
   58        1.633272
   59        2.042648
   60        2.566849
   61        2.617162
   62        3.166246
   63        3.168287
   64        3.609399
   65        6.543789
   66        6.636166
   67        6.641520
   68        7.095594
   69        7.895733
   70        8.361662
   71        8.364615
   72        8.666271
   73        8.979473
   74        9.163064
   75        9.166140
   76        9.824323
   77       10.362119
   78       12.756584
   79       13.005119
   80       13.007364
   81       13.164401
   82       13.168345
   83       13.173213
   84       13.593613
 
  0.3333333E+00  0.1111111E+00  0.0000000E+00  0.6172840E-02
    1      -13.669124
    2      -13.482581
    3      -13.481693
    4      -13.278922
    5      -12.365522
    6      -12.192910
    7      -12.192067
    8      -12.005839
    9      -11.094963
   10      -10.936431
   11      -10.935490
   12      -10.765942
   13       -9.291509
   14       -9.158178
   15       -9.157588
   16       -9.017982
   17       -6.781395
   18       -6.689357
   19       -6.686058
   20       -6.589134
   21       -5.105121
   22       -5.020878
   23       -5.019012
   24       -4.932211
   25       -4.097070
   26       -4.029679
   27       -4.027922
   28       -3.954315
   29       -3.854936
   30       -3.771256
   31       -3.769826
   32       -3.683184
   33       -2.662346
   34       -2.606200
   35       -2.605637
   36       -2.545328
   37       -2.479081
   38       -1.437850
   39       -1.435674
   40       -0.977671
   41       -0.931915
   42       -0.927638
   43       -0.922172
   44       -0.875202
   45       -0.730279
   46       -0.690641
   47       -0.686999
   48       -0.646635
   49       -0.153970
   50        0.045587
   51        0.047555
   52        0.406466
   53        0.436344
   54        0.441765
   55        0.472380
   56        0.554594
   57        1.223507
   58        1.447928
   59        1.449401
   60        2.494908
   61        2.550959
   62        3.256127
   63        3.257800
   64        3.943718
   65        6.457995
   66        6.757271
   67        6.761651
   68        7.198898
   69        8.403438
   70        8.816593
   71        8.819376
   72        9.275519
   73       10.235593
   74       10.668759
   75       10.671564
   76       10.886382
   77       11.224267
   78       12.408377
   79       13.032770
   80       13.195468
   81       13.197904
   82       13.292293
   83       13.302136
   84       13.363174
 
  0.4444444E+00  0.1111111E+00  0.0000000E+00  0.6172840E-02
    1      -13.088213
    2      -13.085168
    3      -12.909156
    4      -12.905991
    5      -12.905039
    6      -12.903220
    7      -12.711595
    8      -12.708492
    9      -11.165823
   10      -11.006674
   11      -11.005716
   12      -10.835124
   13       -9.347172
   14       -9.211405
   15       -9.210651
   16       -9.067624
   17       -6.261792
   18       -6.201529
   19       -6.198377
   20       -6.142459
   21       -4.622687
   22       -4.607532
   23       -4.574399
   24       -4.573585
   25       -4.571235
   26       -4.568470
   27       -4.524926
   28       -4.521829
   29       -3.067670
   30       -3.036459
   31       -3.033977
   32       -2.992559
   33       -2.389893
   34       -2.386567
   35       -2.322549
   36       -2.322317
   37       -2.320332
   38       -2.316042
   39       -2.251901
   40       -2.248008
   41       -1.783092
   42       -1.780578
   43       -0.769199
   44       -0.765762
   45       -0.764937
   46       -0.762884
   47       -0.204380
   48       -0.197939
   49       -0.169294
   50       -0.161654
   51       -0.159843
   52       -0.159425
   53       -0.125925
   54       -0.121540
   55        0.472611
   56        0.475420
   57        0.481502
   58        1.384320
   59        1.385833
   60        2.450391
   61        2.533876
   62        3.279115
   63        3.280347
   64        4.077484
   65        6.429505
   66        6.826326
   67        6.829517
   68        7.253682
   69        8.625278
   70        8.993351
   71        8.996404
   72        9.360756
   73       11.576150
   74       11.578135
   75       11.843371
   76       11.847074
   77       12.161140
   78       12.163812
   79       12.165224
   80       12.171071
   81       12.614825
   82       12.618591
   83       13.265912
   84       13.271663
 
 -0.4444444E+00  0.1111111E+00  0.0000000E+00  0.6172840E-02
    1      -13.669891
    2      -13.483347
    3      -13.482438
    4      -13.279684
    5      -12.364334
    6      -12.191694
    7      -12.190883
    8      -12.004641
    9      -11.096740
   10      -10.938292
   11      -10.937333
   12      -10.767754
   13       -9.288890
   14       -9.155463
   15       -9.154645
   16       -9.014877
   17       -6.773023
   18       -6.680141
   19       -6.678623
   20       -6.580987
   21       -5.116621
   22       -5.032803
   23       -5.029412
   24       -4.943074
   25       -4.109168
   26       -4.041331
   27       -4.041113
   28       -3.966989
   29       -3.857132
   30       -3.773644
   31       -3.771847
   32       -3.685406
   33       -2.647987
   34       -2.592405
   35       -2.590032
   36       -2.530383
   37       -2.479818
   38       -1.438553
   39       -1.436407
   40       -0.977639
   41       -0.931342
   42       -0.926990
   43       -0.922512
   44       -0.875543
   45       -0.728216
   46       -0.688769
   47       -0.684719
   48       -0.644648
   49       -0.154666
   50        0.046587
   51        0.048625
   52        0.406741
   53        0.436932
   54        0.440797
   55        0.471837
   56        0.553292
   57        1.224466
   58        1.446250
   59        1.447788
   60        2.492473
   61        2.551196
   62        3.258947
   63        3.259792
   64        3.951457
   65        6.457946
   66        6.761159
   67        6.763757
   68        7.199959
   69        8.397855
   70        8.811379
   71        8.815187
   72        9.273886
   73       10.236346
   74       10.668239
   75       10.671175
   76       10.885351
   77       11.222763
   78       12.409593
   79       13.029645
   80       13.192012
   81       13.195224
   82       13.295224
   83       13.304669
   84       13.353632
 
 -0.3333333E+00  0.1111111E+00  0.0000000E+00  0.6172840E-02
    1      -14.109748
    2      -13.918506
    3      -13.917583
    4      -13.709245
    5      -11.510568
    6      -11.347383
    7      -11.346573
    8      -11.171468
    9      -10.888753
   10      -10.732963
   11      -10.732030
   12      -10.565404
   13       -9.138059
   14       -9.017617
   15       -9.016789
   16       -8.895687
   17       -7.539004
   18       -7.447915
   19       -7.446971
   20       -7.342112
   21       -5.921759
   22       -5.820787
   23       -5.817923
   24       -5.711970
   25       -5.312296
   26       -5.213791
   27       -5.212420
   28       -5.109221
   29       -3.174283
   30       -3.107704
   31       -3.107089
   32       -3.037501
   33       -3.010245
   34       -1.949387
   35       -1.947301
   36       -1.944477
   37       -1.892009
   38       -1.889995
   39       -1.835847
   40       -1.145773
   41       -1.103934
   42       -1.100221
   43       -1.057761
   44       -0.638384
   45        0.055000
   46        0.271953
   47        0.304205
   48        0.305622
   49        0.336530
   50        0.766118
   51        0.969086
   52        0.971304
   53        1.039642
   54        1.060889
   55        1.063947
   56        1.086686
   57        1.628575
   58        1.630150
   59        2.043569
   60        2.566213
   61        2.612135
   62        3.171479
   63        3.172105
   64        3.624001
   65        6.540917
   66        6.642483
   67        6.645317
   68        7.101221
   69        7.888889
   70        8.353279
   71        8.357799
   72        8.666423
   73        8.974432
   74        9.162152
   75        9.165445
   76        9.822667
   77       10.361356
   78       12.754178
   79       13.002634
   80       13.005273
   81       13.163172
   82       13.168719
   83       13.173270
   84       13.595879
 
 -0.2222222E+00  0.1111111E+00  0.0000000E+00  0.6172840E-02
    1      -14.404193
    2      -14.209809
    3      -14.208875
    4      -13.996774
    5      -10.546687
    6      -10.539701
    7      -10.395630
    8      -10.394769
    9      -10.388503
   10      -10.387605
   11      -10.233654
   12      -10.226477
   13       -9.074131
   14       -8.987068
   15       -8.986273
   16       -8.919355
   17       -7.989537
   18       -7.951653
   19       -7.950902
   20       -7.877586
   21       -6.706724
   22       -6.697957
   23       -6.597115
   24       -6.594430
   25       -6.587715
   26       -6.586467
   27       -6.478548
   28       -6.469938
   29       -3.366730
   30       -2.293892
   31       -2.291810
   32       -2.263977
   33       -2.208349
   34       -2.207563
   35       -2.150488
   36       -1.432974
   37       -1.412970
   38       -1.389792
   39       -1.386326
   40       -1.369063
   41       -1.367146
   42       -1.342342
   43       -1.322449
   44       -0.965744
   45        1.108508
   46        1.112235
   47        1.222932
   48        1.242851
   49        1.243876
   50        1.261868
   51        1.595890
   52        1.610424
   53        1.610869
   54        1.627400
   55        1.914706
   56        1.916379
   57        1.919341
   58        1.921769
   59        2.439769
   60        2.780955
   61        2.788529
   62        2.970922
   63        2.971591
   64        3.287433
   65        6.595658
   66        6.634021
   67        6.637228
   68        7.172288
   69        7.333039
   70        7.340176
   71        7.781528
   72        7.786548
   73        7.791746
   74        7.795706
   75        8.506280
   76        8.514140
   77       10.011692
   78       12.607297
   79       12.643260
   80       12.859786
   81       12.862141
   82       12.896621
   83       12.897311
   84       12.927529
 
 -0.1111111E+00  0.1111111E+00  0.0000000E+00  0.6172840E-02
    1      -14.551754
    2      -14.355796
    3      -14.354857
    4      -14.140851
    5      -10.082149
    6       -9.939300
    7       -9.938595
    8       -9.787980
    9       -9.523063
   10       -9.520666
   11       -9.399515
   12       -9.396045
   13       -9.396009
   14       -9.394750
   15       -9.271838
   16       -9.269534
   17       -7.889995
   18       -7.888098
   19       -7.793232
   20       -7.791778
   21       -7.791755
   22       -7.789235
   23       -7.679514
   24       -7.677473
   25       -7.389453
   26       -7.277813
   27       -7.275077
   28       -7.155210
   29       -3.545790
   30       -2.467131
   31       -2.465043
   32       -1.580067
   33       -1.577400
   34       -1.536622
   35       -1.532090
   36       -1.532077
   37       -1.531688
   38       -1.487870
   39       -1.485557
   40       -1.257628
   41       -1.217480
   42       -1.215590
   43       -1.175138
   44       -1.130732
   45        1.555056
   46        1.746446
   47        1.764816
   48        1.770747
   49        1.788335
   50        1.912684
   51        1.929104
   52        1.933258
   53        1.950413
   54        2.047558
   55        2.050492
   56        2.272371
   57        2.274176
   58        2.649953
   59        2.654208
   60        2.654396
   61        2.655012
   62        2.952938
   63        3.106548
   64        3.108400
   65        6.652718
   66        6.654816
   67        6.837813
   68        6.840150
   69        6.840569
   70        6.846249
   71        6.891011
   72        7.238924
   73        7.244371
   74        7.510500
   75        7.513712
   76        7.981500
   77        9.837605
   78       12.267704
   79       12.521156
   80       12.523436
   81       12.524640
   82       12.528435
   83       12.781861
   84       12.787902
 
  0.0000000E+00  0.2222222E+00  0.0000000E+00  0.6172840E-02
    1      -14.330224
    2      -14.136638
    3      -14.135706
    4      -13.924539
    5      -11.090908
    6      -10.932510
    7      -10.931601
    8      -10.762205
    9       -9.882801
   10       -9.876873
   11       -9.743190
   12       -9.741461
   13       -9.735890
   14       -9.735437
   15       -9.593756
   16       -9.587394
   17       -7.218668
   18       -7.208087
   19       -7.111106
   20       -7.107570
   21       -7.099383
   22       -7.097362
   23       -6.991586
   24       -6.980851
   25       -6.054145
   26       -5.947755
   27       -5.946967
   28       -5.835199
   29       -3.277129
   30       -2.207242
   31       -2.205159
   32       -2.190103
   33       -2.170453
   34       -2.136453
   35       -2.133207
   36       -2.115948
   37       -2.114255
   38       -2.077612
   39       -2.058042
   40       -1.062113
   41       -1.022207
   42       -1.021450
   43       -0.981198
   44       -0.883336
   45        0.517355
   46        0.931676
   47        0.963059
   48        0.964129
   49        0.995594
   50        1.389003
   51        1.390494
   52        1.475520
   53        1.500053
   54        1.500723
   55        1.525413
   56        1.810111
   57        1.812869
   58        2.382565
   59        2.524941
   60        2.525871
   61        2.530233
   62        2.531351
   63        3.207241
   64        3.216913
   65        6.847845
   66        6.851745
   67        7.165010
   68        7.170429
   69        7.175579
   70        7.179844
   71        7.802649
   72        7.812220
   73        7.965725
   74        8.470980
   75        8.474064
   76        9.201192
   77       10.099032
   78       12.354170
   79       12.600696
   80       12.601785
   81       12.837466
   82       12.976897
   83       12.980997
   84       13.424621
 
  0.1111111E+00  0.2222222E+00  0.0000000E+00  0.6172840E-02
    1      -14.109211
    2      -13.917962
    3      -13.917046
    4      -13.708698
    5      -11.512047
    6      -11.348930
    7      -11.347984
    8      -11.172952
    9      -10.885136
   10      -10.729333
   11      -10.728491
   12      -10.561702
   13       -9.143621
   14       -9.023671
   15       -9.023320
   16       -8.902966
   17       -7.545457
   18       -7.456281
   19       -7.452957
   20       -7.349650
   21       -5.909089
   22       -5.807321
   23       -5.806264
   24       -5.699542
   25       -5.311004
   26       -5.212292
   27       -5.211348
   28       -5.107943
   29       -3.158474
   30       -3.092267
   31       -3.090842
   32       -3.021589
   33       -3.009684
   34       -1.964356
   35       -1.948820
   36       -1.946737
   37       -1.912485
   38       -1.909330
   39       -1.855644
   40       -1.145899
   41       -1.102594
   42       -1.102063
   43       -1.058099
   44       -0.637845
   45        0.054201
   46        0.275027
   47        0.307096
   48        0.309171
   49        0.340059