   32   32    1    1
  0.8992511E+01  0.4932875E-09  0.4932875E-09  0.1366141E-08  0.5000000E-15
  1.000000000000000E-004
  CAR 
 graphite                                
    128     76     84
 
  0.0000000E+00  0.0000000E+00  0.0000000E+00  0.6944444E-02
    1      -15.093577
    2      -14.967156
    3      -14.966671
    4      -14.832551
    5       -9.782728
    6       -9.772336
    7       -9.769465
    8       -9.731927
    9       -9.730349
   10       -9.720201
   11       -9.718732
   12       -9.718724
   13       -9.714855
   14       -9.687112
   15       -9.674497
   16       -9.671930
   17       -8.710289
   18       -8.709153
   19       -8.707923
   20       -8.682131
   21       -8.681465
   22       -8.679316
   23       -8.678746
   24       -8.678737
   25       -8.676381
   26       -8.636856
   27       -8.635991
   28       -8.633598
   29       -3.907576
   30       -3.095997
   31       -3.094343
   32       -2.114583
   33       -1.884435
   34       -1.882221
   35       -1.866722
   36       -1.861425
   37       -1.860744
   38       -1.860739
   39       -1.856848
   40       -1.844064
   41       -1.841949
   42       -1.837642
   43       -1.834868
   44       -1.819575
   45        1.509167
   46        1.515817
   47        1.515847
   48        1.520688
   49        1.527380
   50        1.532049
   51        1.532275
   52        1.538455
   53        1.801166
   54        1.804438
   55        1.806487
   56        2.158986
   57        2.161581
   58        2.168787
   59        2.169151
   60        2.169213
   61        2.173088
   62        2.415085
   63        2.432003
   64        2.433773
   65        6.027398
   66        6.029586
   67        6.034700
   68        6.174803
   69        6.177593
   70        6.179671
   71        6.182015
   72        6.182347
   73        6.185616
   74        6.654111
   75        6.660471
   76        6.663714
   77        8.681488
   78       11.179320
   79       11.182148
   80       11.739536
   81       11.743399
   82       11.775173
   83       11.909893
   84       11.913763
 
  0.1666667E+00 -0.1387779E-16  0.0000000E+00  0.1388889E-01
    1      -14.928105
    2      -14.802916
    3      -14.802439
    4      -14.669738
    5      -11.077617
    6      -10.982282
    7      -10.981864
    8      -10.882471
    9      -10.207198
   10      -10.199908
   11      -10.123657
   12      -10.123023
   13      -10.115991
   14      -10.115112
   15      -10.037026
   16      -10.029143
   17       -8.086043
   18       -8.080012
   19       -8.020115
   20       -8.018074
   21       -8.013039
   22       -8.012266
   23       -7.947797
   24       -7.941439
   25       -7.241872
   26       -7.173850
   27       -7.172448
   28       -7.101898
   29       -3.706747
   30       -2.900323
   31       -2.898674
   32       -2.374991
   33       -2.358333
   34       -2.346198
   35       -2.345991
   36       -2.330189
   37       -2.328270
   38       -2.316726
   39       -2.299958
   40       -1.926006
   41       -1.719947
   42       -1.698447
   43       -1.695618
   44       -1.673804
   45        0.729139
   46        0.858945
   47        0.872239
   48        0.876201
   49        0.888831
   50        1.171001
   51        1.181189
   52        1.185546
   53        1.197148
   54        1.321721
   55        1.323854
   56        1.581777
   57        1.586477
   58        1.964723
   59        2.051643
   60        2.054127
   61        2.060266
   62        2.061092
   63        2.487057
   64        2.499702
   65        6.221643
   66        6.223776
   67        6.456404
   68        6.459797
   69        6.462034
   70        6.465592
   71        6.918551
   72        6.932888
   73        6.939735
   74        7.280241
   75        7.284060
   76        7.820762
   77        8.883020
   78       11.357483
   79       11.360294
   80       11.831566
   81       11.994492
   82       11.995884
   83       12.157689
   84       12.493811
 
  0.3333333E+00 -0.5551115E-16  0.0000000E+00  0.1388889E-01
    1      -14.433479
    2      -14.312009
    3      -14.311556
    4      -14.183047
    5      -12.486744
    6      -12.379861
    7      -12.379469
    8      -12.267302
    9      -10.628978
   10      -10.625310
   11      -10.537637
   12      -10.537085
   13      -10.533873
   14      -10.532723
   15      -10.441728
   16      -10.437912
   17       -6.912930
   18       -6.903861
   19       -6.851750
   20       -6.849666
   21       -6.842050
   22       -6.840980
   23       -6.786233
   24       -6.777302
   25       -5.127524
   26       -5.071761
   27       -5.070099
   28       -5.012877
   29       -3.531000
   30       -3.516939
   31       -3.493103
   32       -3.492736
   33       -3.479644
   34       -3.477683
   35       -3.453505
   36       -3.439297
   37       -3.108736
   38       -2.318443
   39       -2.316799
   40       -1.366684
   41       -1.246114
   42       -1.225511
   43       -1.222471
   44       -1.201699
   45       -0.809997
   46       -0.791914
   47       -0.766274
   48       -0.763431
   49       -0.737528
   50       -0.101707
   51       -0.100019
   52        0.372732
   53        0.387993
   54        0.392093
   55        0.407882
   56        0.727241
   57        1.283871
   58        1.287287
   59        1.863221
   60        1.865721
   61        1.868878
   62        1.869758
   63        2.495608
   64        2.502022
   65        6.736308
   66        6.739454
   67        7.032628
   68        7.034834
   69        7.037243
   70        7.040561
   71        7.413146
   72        7.416657
   73        9.069106
   74        9.419841
   75        9.423646
   76        9.489644
   77        9.880312
   78       11.810486
   79       11.874503
   80       11.877504
   81       12.137692
   82       12.222564
   83       12.224291
   84       12.486307
 
  0.5000000E+00  0.0000000E+00  0.0000000E+00  0.6944444E-02
    1      -13.617003
    2      -13.614258
    3      -13.502677
    4      -13.500150
    5      -13.500135
    6      -13.497129
    7      -13.379567
    8      -13.376758
    9      -10.777380
   10      -10.775690
   11      -10.684536
   12      -10.683173
   13      -10.683146
   14      -10.681080
   15      -10.586437
   16      -10.584696
   17       -6.004438
   18       -6.002739
   19       -5.971119
   20       -5.971117
   21       -5.970412
   22       -5.966439
   23       -5.938683
   24       -5.936208
   25       -4.418190
   26       -4.416501
   27       -4.397473
   28       -4.394920
   29       -4.393916
   30       -4.393914
   31       -4.368823
   32       -4.367714
   33       -2.909399
   34       -2.905977
   35       -2.869692
   36       -2.864501
   37       -2.864495
   38       -2.863834
   39       -2.823933
   40       -2.821321
   41       -2.130461
   42       -2.128218
   43       -1.370513
   44       -1.368341
   45       -1.368182
   46       -1.364938
   47       -0.512835
   48       -0.509485
   49       -0.493250
   50       -0.492069
   51       -0.492048
   52       -0.484829
   53       -0.472464
   54       -0.464991
   55       -0.461678
   56       -0.459119
   57        1.166491
   58        1.168529
   59        1.779257
   60        1.782462
   61        1.782711
   62        1.784066
   63        2.474880
   64        2.477183
   65        7.067705
   66        7.070190
   67        7.338878
   68        7.339089
   69        7.339116
   70        7.343940
   71        7.612173
   72        7.614695
   73       10.492210
   74       10.493111
   75       11.494389
   76       11.497721
   77       11.689331
   78       11.697161
   79       11.697866
   80       11.702467
   81       12.061100
   82       12.064686
   83       12.461766
   84       12.466517
 
  0.1355253E-19  0.1666667E+00  0.0000000E+00  0.1388889E-01
    1      -14.928101
    2      -14.802914
    3      -14.802432
    4      -14.669734
    5      -11.077630
    6      -10.982288
    7      -10.981894
    8      -10.882495
    9      -10.207286
   10      -10.199678
   11      -10.123874
   12      -10.123032
   13      -10.115983
   14      -10.114505
   15      -10.037070
   16      -10.028849
   17       -8.086385
   18       -8.080888
   19       -8.020125
   20       -8.019363
   21       -8.013186
   22       -8.012952
   23       -7.948051
   24       -7.942116
   25       -7.240972
   26       -7.172484
   27       -7.172063
   28       -7.101042
   29       -3.706757
   30       -2.900333
   31       -2.898688
   32       -2.373863
   33       -2.358201
   34       -2.346184
   35       -2.343645
   36       -2.330201
   37       -2.328269
   38       -2.315471
   39       -2.299982
   40       -1.926020
   41       -1.721004
   42       -1.698453
   43       -1.698060
   44       -1.675272
   45        0.728521
   46        0.862378
   47        0.876204
   48        0.876586
   49        0.890532
   50        1.169473
   51        1.181184
   52        1.181403
   53        1.193029
   54        1.321509
   55        1.322581
   56        1.581932
   57        1.587433
   58        1.963817
   59        2.052008
   60        2.054119
   61        2.060308
   62        2.063099
   63        2.487155
   64        2.500818
   65        6.219942
   66        6.223516
   67        6.455805
   68        6.458258
   69        6.461677
   70        6.463984
   71        6.920168
   72        6.932511
   73        6.937994
   74        7.282379
   75        7.284933
   76        7.822249
   77        8.883010
   78       11.357437
   79       11.360248
   80       11.830952
   81       11.994349
   82       11.994760
   83       12.157034
   84       12.478297
 
  0.1666667E+00  0.1666667E+00  0.0000000E+00  0.1388889E-01
    1      -14.597814
    2      -14.475116
    3      -14.474654
    4      -14.344749
    5      -11.699083
    6      -11.696204
    7      -11.599368
    8      -11.596769
    9      -11.596752
   10      -11.593552
   11      -11.492438
   12      -11.489489
   13       -9.357550
   14       -9.308807
   15       -9.307659
   16       -9.266209
   17       -8.305813
   18       -8.282029
   19       -8.278542
   20       -8.241741
   21       -6.133247
   22       -6.129813
   23       -6.073344
   24       -6.069581
   25       -6.069563
   26       -6.066630
   27       -6.007878
   28       -6.004540
   29       -3.703046
   30       -3.663890
   31       -3.662105
   32       -3.621767
   33       -3.306984
   34       -2.511160
   35       -2.509520
   36       -2.046936
   37       -2.044379
   38       -2.019937
   39       -2.018486
   40       -2.018481
   41       -2.014363
   42       -1.991071
   43       -1.987874
   44       -1.551642
   45       -0.175184
   46       -0.162055
   47       -0.158093
   48       -0.146438
   49        0.088401
   50        0.090374
   51        0.494467
   52        0.502422
   53        0.506652
   54        0.517290
   55        0.746677
   56        0.748595
   57        0.748708
   58        0.751868
   59        1.501726
   60        1.504117
   61        2.400420
   62        2.756776
   63        2.759053
   64        3.001725
   65        5.944767
   66        5.962207
   67        5.967069
   68        6.231589
   69        7.871958
   70        7.874408
   71        8.231712
   72        8.235663
   73        8.236144
   74        8.238057
   75        8.696813
   76        8.699542
   77        9.288418
   78       11.716250
   79       11.719105
   80       12.607525
   81       12.611629
   82       12.807231
   83       12.808116
   84       12.813029
 
  0.3333333E+00  0.1666667E+00  0.0000000E+00  0.1388889E-01
    1      -13.941330
    2      -13.823540
    3      -13.823115
    4      -13.698778
    5      -12.969236
    6      -12.858745
    7      -12.858323
    8      -12.742125
    9      -12.014293
   10      -11.911098
   11      -11.910587
   12      -11.802504
   13       -9.339392
   14       -9.262814
   15       -9.262506
   16       -9.184120
   17       -7.445719
   18       -7.395538
   19       -7.392672
   20       -7.340655
   21       -5.137184
   22       -5.098733
   23       -5.096818
   24       -5.055044
   25       -4.973906
   26       -4.930367
   27       -4.928629
   28       -4.884706
   29       -3.992188
   30       -3.946353
   31       -3.944725
   32       -3.897846
   33       -2.946430
   34       -2.917218
   35       -2.915896
   36       -2.884986
   37       -2.517168
   38       -1.903190
   39       -1.876843
   40       -1.873306
   41       -1.844585
   42       -1.742622
   43       -1.741245
   44       -1.407263
   45       -1.383750
   46       -1.381014
   47       -1.363979
   48       -1.356925
   49       -0.816915
   50       -0.630736
   51       -0.629189
   52       -0.510721
   53       -0.494214
   54       -0.489718
   55       -0.472141
   56       -0.246499
   57        0.238140
   58        0.441032
   59        0.442322
   60        1.243309
   61        2.696654
   62        3.165234
   63        3.167232
   64        3.608248
   65        5.618881
   66        5.819507
   67        5.823016
   68        6.109647
   69        8.677594
   70        8.950443
   71        8.952334
   72        9.242060
   73       10.098045
   74       10.164814
   75       10.442703
   76       10.445329
   77       10.787738
   78       11.298136
   79       12.348225
   80       12.357977
   81       12.420083
   82       12.499035
   83       12.653436
   84       12.662364
 
  0.5000000E+00  0.1666667E+00  0.0000000E+00  0.1388889E-01
    1      -13.942529
    2      -13.824741
    3      -13.824299
    4      -13.699967
    5      -12.967552
    6      -12.857055
    7      -12.856651
    8      -12.740448
    9      -12.015512
   10      -11.912324
   11      -11.911805
   12      -11.803730
   13       -9.336553
   14       -9.259716
   15       -9.259419
   16       -9.180730
   17       -7.441084
   18       -7.389987
   19       -7.388828
   20       -7.335968
   21       -5.145359
   22       -5.106494
   23       -5.106015
   24       -5.063778
   25       -4.983263
   26       -4.940074
   27       -4.936975
   28       -4.893329
   29       -3.995870
   30       -3.950390
   31       -3.948065
   32       -3.901548
   33       -2.935367
   34       -2.906592
   35       -2.903703
   36       -2.873318
   37       -2.518457
   38       -1.901103
   39       -1.874088
   40       -1.872413
   41       -1.842868
   42       -1.743846
   43       -1.742527
   44       -1.403799
   45       -1.380643
   46       -1.377096
   47       -1.362251
   48       -1.353311
   49       -0.818182
   50       -0.629077
   51       -0.627457
   52       -0.512542
   53       -0.495361
   54       -0.492840
   55       -0.474998
   56       -0.247768
   57        0.239790
   58        0.439574
   59        0.440920
   60        1.241599
   61        2.697827
   62        3.169284
   63        3.170145
   64        3.616320
   65        5.615752
   66        5.820124
   67        5.821953
   68        6.109281
   69        8.673805
   70        8.947053
   71        8.949622
   72        9.240802
   73       10.096337
   74       10.165125
   75       10.441370
   76       10.444438
   77       10.785387
   78       11.300499
   79       12.348186
   80       12.357833
   81       12.417657
   82       12.497660
   83       12.651472
   84       12.660293
 
 -0.3333333E+00  0.1666667E+00  0.0000000E+00  0.1388889E-01
    1      -14.598529
    2      -14.475835
    3      -14.475360
    4      -14.345458
    5      -11.701251
    6      -11.695455
    7      -11.600538
    8      -11.600041
    9      -11.594670
   10      -11.594293
   11      -11.494730
   12      -11.488906
   13       -9.346987
   14       -9.296843
   15       -9.296509
   16       -9.253595
   17       -8.306328
   18       -8.280459
   19       -8.280122
   20       -8.241264
   21       -6.141125
   22       -6.135520
   23       -6.080515
   24       -6.078238
   25       -6.074695
   26       -6.073082
   27       -6.015787
   28       -6.010442
   29       -3.716516
   30       -3.676715
   31       -3.676337
   32       -3.635337
   33       -3.307778
   34       -2.511947
   35       -2.510320
   36       -2.042435
   37       -2.029481
   38       -2.016128
   39       -2.013161
   40       -2.002869
   41       -2.000530
   42       -1.986378
   43       -1.973545
   44       -1.552428
   45       -0.179823
   46       -0.165817
   47       -0.165544
   48       -0.152220
   49        0.085493
   50        0.091612
   51        0.500659
   52        0.510030
   53        0.510240
   54        0.520568
   55        0.743762
   56        0.745123
   57        0.750224
   58        0.752115
   59        1.497399
   60        1.504935
   61        2.402857
   62        2.765812
   63        2.766154
   64        3.017981
   65        5.938846
   66        5.963874
   67        5.966000
   68        6.234556
   69        7.868323
   70        7.871660
   71        8.227806
   72        8.231307
   73        8.231559
   74        8.234852
   75        8.693875
   76        8.694823
   77        9.287354
   78       11.715119
   79       11.717964
   80       12.608356
   81       12.632462
   82       12.806900
   83       12.810310
   84       12.828668
 
 -0.1666667E+00  0.1666667E+00  0.0000000E+00  0.1388889E-01
    1      -14.928341
    2      -14.803153
    3      -14.802667
    4      -14.669970
    5      -11.083925
    6      -10.988648
    7      -10.988250
    8      -10.888926
    9      -10.198610
   10      -10.196599
   11      -10.115196
   12      -10.113637
   13      -10.113619
   14      -10.111098
   15      -10.027931
   16      -10.025857
   17       -8.084316
   18       -8.082509
   19       -8.018336
   20       -8.015860
   21       -8.015845
   22       -8.014811
   23       -7.945806
   24       -7.944090
   25       -7.248254
   26       -7.180566
   27       -7.178452
   28       -7.108210
   29       -3.707025
   30       -2.900597
   31       -2.898956
   32       -2.374527
   33       -2.372499
   34       -2.346075
   35       -2.345347
   36       -2.345342
   37       -2.341542
   38       -2.316508
   39       -2.313886
   40       -1.926286
   41       -1.703943
   42       -1.682111
   43       -1.679935
   44       -1.658020
   45        0.722994
   46        0.851083
   47        0.863512
   48        0.868121
   49        0.881742
   50        1.178409
   51        1.189961
   52        1.194006
   53        1.204175
   54        1.314596
   55        1.316057
   56        1.587313
   57        1.589379
   58        1.954906
   59        2.060719
   60        2.061397
   61        2.061519
   62        2.065272
   63        2.499733
   64        2.501827
   65        6.219610
   66        6.222090
   67        6.456274
   68        6.461568
   69        6.461845
   70        6.463483
   71        6.917306
   72        6.934911
   73        6.937839
   74        7.276099
   75        7.280175
   76        7.816413
   77        8.882642
   78       11.357021
   79       11.359832
   80       11.863857
   81       12.027019
   82       12.028057
   83       12.189746
   84       12.472493
 
  0.2710505E-19  0.3333333E+00  0.0000000E+00  0.1388889E-01
    1      -14.433463
    2      -14.312002
    3      -14.311529
    4      -14.183029
    5      -12.486709
    6      -12.379847
    7      -12.379411
    8      -12.267265
    9      -10.629299
   10      -10.625053
   11      -10.538414
   12      -10.537109
   13      -10.533867
   14      -10.531926
   15      -10.441987
   16      -10.437589
   17       -6.913439
   18       -6.904760
   19       -6.851762
   20       -6.851129
   21       -6.842124
   22       -6.841923
   23       -6.786637
   24       -6.778002
   25       -5.126500
   26       -5.070124
   27       -5.069746
   28       -5.011908
   29       -3.529850
   30       -3.516631
   31       -3.492747
   32       -3.490730
   33       -3.479065
   34       -3.477681
   35       -3.452209
   36       -3.439046
   37       -3.108780
   38       -2.318484
   39       -2.316860
   40       -1.366745
   41       -1.247280
   42       -1.225517
   43       -1.225192
   44       -1.203370
   45       -0.810048
   46       -0.790060
   47       -0.763430
   48       -0.762705
   49       -0.735907
   50       -0.101886
   51       -0.100490
   52        0.371244
   53        0.387988
   54        0.388308
   55        0.405083
   56        0.726834
   57        1.283943
   58        1.288139
   59        1.863512
   60        1.865675
   61        1.868902
   62        1.871587
   63        2.495830
   64        2.503019
   65        6.735183
   66        6.738380
   67        7.031237
   68        7.033192
   69        7.037256
   70        7.039374
   71        7.411675
   72        7.416114
   73        9.070253
   74        9.421354
   75        9.424104
   76        9.489648
   77        9.881288
   78       11.810321
   79       11.874294
   80       11.877309
   81       12.136990
   82       12.222553
   83       12.222755
   84       12.485680
 
  0.1666667E+00  0.3333333E+00  0.0000000E+00  0.1388889E-01
    1      -13.941316
    2      -13.823533
    3      -13.823092
    4      -13.698762
    5      -12.969201
    6      -12.858732
    7      -12.858261
    8      -12.742085
    9      -12.014337
   10      -11.911110
   11      -11.910668
   12      -11.802551
   13       -9.339329
   14       -9.262715
   15       -9.262471
   16       -9.184049
   17       -7.446076
   18       -7.395541
   19       -7.393507
   20       -7.341146
   21       -5.136749
   22       -5.097987
   23       -5.096816
   24       -5.054718
   25       -4.975246
   26       -4.931367
   27       -4.930363
   28       -4.886109
   29       -3.990844
   30       -3.944732
   31       -3.943699
   32       -3.896534
   33       -2.944841
   34       -2.915896
   35       -2.914029
   36       -2.883359
   37       -2.517206
   38       -1.901962
   39       -1.875040
   40       -1.873297
   41       -1.843847
   42       -1.742628
   43       -1.741300
   44       -1.408710
   45       -1.384176
   46       -1.383748
   47       -1.364194
   48       -1.358698
   49       -0.816962
   50       -0.630933
   51       -0.629503
   52       -0.511408
   53       -0.494216
   54       -0.491756
   55       -0.473936
   56       -0.246183
   57        0.237835
   58        0.441331
   59        0.442756
   60        1.243756
   61        2.697117
   62        3.166144
   63        3.167259
   64        3.608655
   65        5.618380
   66        5.819468
   67        5.821670
   68        6.108861
   69        8.676320
   70        8.949621
   71        8.950870
   72        9.241036
   73       10.098061
   74       10.165923
   75       10.443674
   76       10.446293
   77       10.788671
   78       11.298085
   79       12.347871
   80       12.357694
   81       12.420424
   82       12.499063
   83       12.654002
   84       12.662807
 
  0.3333333E+00  0.3333333E+00  0.0000000E+00  0.1388889E-01
    1      -13.133460
    2      -13.130826
    3      -13.128324
    4      -13.023170
    5      -13.020024
    6      -13.020007
    7      -13.018427
    8      -13.017123
    9      -13.014633
   10      -12.903695
   11      -12.901100
   12      -12.898522
   13       -8.123413
   14       -8.048175
   15       -8.046496
   16       -8.040154
   17       -8.038082
   18       -8.033951
   19       -8.031691
   20       -7.959043
   21       -5.996752
   22       -5.996421
   23       -5.993395
   24       -5.992580
   25       -3.233711
   26       -3.230307
   27       -3.228706
   28       -3.211586
   29       -3.207136
   30       -3.207127
   31       -3.206503
   32       -3.206194
   33       -3.201528
   34       -3.185838
   35       -3.183784
   36       -3.179989
   37       -1.874274
   38       -1.870116
   39       -1.867700
   40       -1.858568
   41       -1.855625
   42       -1.853841
   43       -1.853066
   44       -1.853050
   45       -1.848317
   46       -1.837296
   47       -1.835894
   48       -1.830922
   49       -1.553371
   50       -1.551200
   51       -1.548624
   52       -0.813153
   53       -0.809924
   54       -0.809755
   55       -0.808443
   56       -0.807190
   57       -0.804330
   58        0.069358
   59        0.071678
   60        0.074383
   61        3.950126
   62        4.502407
   63        4.509721
   64        4.516110
   65        4.516451
   66        4.534061
   67        4.535400
   68        5.162611
   69       10.681427
   70       10.684323
   71       10.688002
   72       10.888686
   73       10.893684
   74       10.893915
   75       10.894921
   76       10.895581
   77       10.897315
   78       11.096018
   79       11.107888
   80       11.110397
   81       11.112977
   82       11.115749
   83       11.130650
   84       13.278003
 
  0.5000000E+00  0.3333333E+00  0.0000000E+00  0.1388889E-01
    1      -13.943225
    2      -13.825453
    3      -13.824983
    4      -13.700662
    5      -12.971090
    6      -12.860650
    7      -12.860117
    8      -12.743970
    9      -12.010506
   10      -11.907254
   11      -11.906876
   12      -11.798711
   13       -9.329190
   14       -9.252514
   15       -9.252024
   16       -9.173515
   17       -7.449399
   18       -7.398487
   19       -7.397941
   20       -7.345271
   21       -5.143629
   22       -5.105164
   23       -5.104060
   24       -5.062216
   25       -4.981684
   26       -4.938595
   27       -4.936198
   28       -4.892721
   29       -4.002675
   30       -3.957296
   31       -3.954348
   32       -3.907898
   33       -2.940906
   34       -2.912757
   35       -2.909237
   36       -2.879284
   37       -2.519292
   38       -1.910114
   39       -1.883030
   40       -1.880755
   41       -1.851273
   42       -1.744773
   43       -1.743507
   44       -1.393539
   45       -1.370006
   46       -1.367042
   47       -1.366235
   48       -1.343111
   49       -0.819063
   50       -0.633082
   51       -0.631652
   52       -0.502597
   53       -0.485026
   54       -0.483097
   55       -0.464948
   56       -0.242440
   57        0.235505
   58        0.444874
   59        0.446549
   60        1.247319
   61        2.703275
   62        3.173937
   63        3.175237
   64        3.619205
   65        5.618967
   66        5.816172
   67        5.817676
   68        6.098902
   69        8.677836
   70        8.947088
   71        8.949576
   72        9.235405
   73       10.095391
   74       10.159273
   75       10.437487
   76       10.440702
   77       10.785253
   78       11.295862
   79       12.343563
   80       12.353443
   81       12.413906
   82       12.504344
   83       12.654374
   84       12.663442
 
 -0.3333333E+00  0.3333333E+00  0.0000000E+00  0.1388889E-01
    1      -14.434414
    2      -14.312959
    3      -14.312468
    4      -14.183974
    5      -12.490538
    6      -12.383709
    7      -12.383198
    8      -12.271097
    9      -10.621681
   10      -10.619924
   11      -10.530621
   12      -10.529140
   13      -10.529117
   14      -10.527041
   15      -10.434342
   16      -10.432539
   17       -6.912064
   18       -6.910154
   19       -6.851261
   20       -6.848508
   21       -6.848493
   22       -6.847562
   23       -6.785675
   24       -6.783887
   25       -5.136492
   26       -5.080966
   27       -5.078653
   28       -5.021607
   29       -3.528369
   30       -3.526665
   31       -3.490441
   32       -3.490340
   33       -3.490312
   34       -3.486588
   35       -3.451126
   36       -3.448952
   37       -3.109842
   38       -2.319537
   39       -2.317928
   40       -1.367817
   41       -1.231226
   42       -1.210339
   43       -1.207864
   44       -1.187020
   45       -0.814252
   46       -0.801954
   47       -0.776784
   48       -0.772505
   49       -0.746878
   50       -0.106118
   51       -0.104743
   52        0.383238
   53        0.399021
   54        0.402582
   55        0.418030
   56        0.722182
   57        1.290345
   58        1.292304
   59        1.871292
   60        1.872174
   61        1.872329
   62        1.875990
   63        2.504214
   64        2.506484
   65        6.736533
   66        6.739196
   67        7.029986
   68        7.034830
   69        7.035006
   70        7.036174
   71        7.407915
   72        7.410580
   73        9.063263
   74        9.414501
   75        9.417457
   76        9.488252
   77        9.876364
   78       11.811546
   79       11.873142
   80       11.876191
   81       12.166052
   82       12.251977
   83       12.253229
   84       12.512428
 
 -0.1666667E+00  0.3333333E+00  0.0000000E+00  0.1388889E-01
    1      -14.598517
    2      -14.475831
    3      -14.475341
    4      -14.345446
    5      -11.701656
    6      -11.695152
    7      -11.601356
    8      -11.600462
    9      -11.594607
   10      -11.593116
   11      -11.495048
   12      -11.488487
   13       -9.346277
   14       -9.296827
   15       -9.295063
   16       -9.252858
   17       -8.308052
   18       -8.283187
   19       -8.280456
   20       -8.242717
   21       -6.141662
   22       -6.134404
   23       -6.080523
   24       -6.079931
   25       -6.073093
   26       -6.071513
   27       -6.016220
   28       -6.009091
   29       -3.715557
   30       -3.676703
   31       -3.674274
   32       -3.634208
   33       -3.307809
   34       -2.511979
   35       -2.510360
   36       -2.043650
   37       -2.029482
   38       -2.016135
   39       -2.015711
   40       -2.002272
   41       -2.000529
   42       -1.987580
   43       -1.973258
   44       -1.552471
   45       -0.178290
   46       -0.165812
   47       -0.161542
   48       -0.148759
   49        0.085354