  32  32   0   0
  0.8294063E+01  0.4932875E-09  0.4932875E-09  0.1260033E-08  0.5000000E-15
  1.000000000000000E-004
  CAR 
 graphite                                
     16.94752968    -16.46461126  301      5.22989620      1.00000000
    -16.465  0.0000E+00  0.0000E+00
    -16.353  0.0000E+00  0.0000E+00
    -16.242  0.0000E+00  0.0000E+00
    -16.130  0.0000E+00  0.0000E+00
    -16.019  0.0000E+00  0.0000E+00
    -15.908  0.0000E+00  0.0000E+00
    -15.796  0.0000E+00  0.0000E+00
    -15.685  0.0000E+00  0.0000E+00
    -15.574  0.0000E+00  0.0000E+00
    -15.462  0.0000E+00  0.0000E+00
    -15.351  0.0000E+00  0.0000E+00
    -15.239  0.0000E+00  0.0000E+00
    -15.128  0.0000E+00  0.0000E+00
    -15.017  0.0000E+00  0.0000E+00
    -14.905  0.0000E+00  0.0000E+00
    -14.794  0.0000E+00  0.0000E+00
    -14.683  0.0000E+00  0.0000E+00
    -14.571  0.0000E+00  0.0000E+00
    -14.460  0.4055E-02  0.6391E-05
    -14.349  0.1216E+01  0.5480E-01
    -14.237  0.2112E+01  0.2624E+00
    -14.126  0.2822E+01  0.5358E+00
    -14.014  0.3769E+01  0.8993E+00
    -13.903  0.5099E+01  0.1399E+01
    -13.792  0.4766E+01  0.1959E+01
    -13.680  0.4887E+01  0.2497E+01
    -13.569  0.4999E+01  0.3048E+01
    -13.458  0.5000E+01  0.3606E+01
    -13.346  0.5102E+01  0.4166E+01
    -13.235  0.6566E+01  0.4810E+01
    -13.123  0.7027E+01  0.5573E+01
    -13.012  0.6216E+01  0.6324E+01
    -12.901  0.6211E+01  0.7017E+01
    -12.789  0.2666E+01  0.7535E+01
    -12.678  0.1895E+01  0.7780E+01
    -12.567  0.1809E+01  0.7980E+01
    -12.455  0.2354E+01  0.8206E+01
    -12.344  0.7180E+01  0.8604E+01
    -12.232  0.5891E+01  0.9477E+01
    -12.121  0.6618E+01  0.1016E+02
    -12.010  0.6797E+01  0.1092E+02
    -11.898  0.4090E+01  0.1156E+02
    -11.787  0.4245E+01  0.1203E+02
    -11.676  0.4448E+01  0.1251E+02
    -11.564  0.4656E+01  0.1302E+02
    -11.453  0.4852E+01  0.1355E+02
    -11.341  0.5063E+01  0.1410E+02
    -11.230  0.5191E+01  0.1467E+02
    -11.119  0.5335E+01  0.1526E+02
    -11.007  0.5698E+01  0.1586E+02
    -10.896  0.5999E+01  0.1654E+02
    -10.785  0.5779E+01  0.1719E+02
    -10.673  0.5692E+01  0.1783E+02
    -10.562  0.5867E+01  0.1847E+02
    -10.450  0.6049E+01  0.1913E+02
    -10.339  0.5850E+01  0.1980E+02
    -10.228  0.5829E+01  0.2045E+02
    -10.116  0.5822E+01  0.2109E+02
    -10.005  0.5011E+01  0.2171E+02
     -9.894  0.3835E+01  0.2219E+02
     -9.782  0.3784E+01  0.2261E+02
     -9.671  0.4555E+01  0.2307E+02
     -9.559  0.4894E+01  0.2360E+02
     -9.448  0.6189E+01  0.2422E+02
     -9.337  0.7611E+01  0.2498E+02
     -9.225  0.1031E+02  0.2595E+02
     -9.114  0.8927E+01  0.2708E+02
     -9.003  0.6539E+01  0.2793E+02
     -8.891  0.4955E+01  0.2856E+02
     -8.780  0.4398E+01  0.2908E+02
     -8.668  0.6687E+01  0.2955E+02
     -8.557  0.4377E+01  0.3019E+02
     -8.446  0.4450E+01  0.3068E+02
     -8.334  0.1943E+01  0.3104E+02
     -8.223  0.1723E+01  0.3124E+02
     -8.112  0.1503E+01  0.3142E+02
     -8.000  0.1283E+01  0.3158E+02
     -7.889  0.1504E+01  0.3173E+02
     -7.777  0.2001E+01  0.3192E+02
     -7.666  0.2510E+01  0.3217E+02
     -7.555  0.3464E+01  0.3249E+02
     -7.443  0.8772E+01  0.3312E+02
     -7.332  0.6734E+01  0.3412E+02
     -7.221  0.5157E+01  0.3472E+02
     -7.109  0.5650E+01  0.3532E+02
     -6.998  0.6918E+01  0.3602E+02
     -6.886  0.8187E+01  0.3686E+02
     -6.775  0.9456E+01  0.3784E+02
     -6.664  0.7845E+01  0.3881E+02
     -6.552  0.5781E+01  0.3960E+02
     -6.441  0.5570E+01  0.4023E+02
     -6.330  0.5500E+01  0.4084E+02
     -6.218  0.5413E+01  0.4145E+02
     -6.107  0.5226E+01  0.4205E+02
     -5.995  0.5048E+01  0.4262E+02
     -5.884  0.4927E+01  0.4317E+02
     -5.773  0.4807E+01  0.4372E+02
     -5.661  0.4688E+01  0.4424E+02
     -5.550  0.4569E+01  0.4476E+02
     -5.439  0.4450E+01  0.4526E+02
     -5.327  0.4326E+01  0.4575E+02
     -5.216  0.4591E+01  0.4624E+02
     -5.104  0.5264E+01  0.4679E+02
     -4.993  0.5891E+01  0.4741E+02
     -4.882  0.6518E+01  0.4810E+02
     -4.770  0.7145E+01  0.4886E+02
     -4.659  0.7772E+01  0.4969E+02
     -4.548  0.8400E+01  0.5059E+02
     -4.436  0.8761E+01  0.5156E+02
     -4.325  0.5742E+01  0.5232E+02
     -4.213  0.5567E+01  0.5289E+02
     -4.102  0.7185E+01  0.5360E+02
     -3.991  0.5589E+01  0.5431E+02
     -3.879  0.3989E+01  0.5484E+02
     -3.768  0.2389E+01  0.5520E+02
     -3.657  0.1080E+01  0.5538E+02
     -3.545  0.2223E+01  0.5554E+02
     -3.434  0.4231E+01  0.5590E+02
     -3.323  0.6459E+01  0.5649E+02
     -3.211  0.9867E+01  0.5741E+02
     -3.100  0.1317E+02  0.5868E+02
     -2.988  0.1317E+02  0.6014E+02
     -2.877  0.9872E+01  0.6145E+02
     -2.766  0.5222E+01  0.6224E+02
     -2.654  0.5472E+01  0.6281E+02
     -2.543  0.6595E+01  0.6349E+02
     -2.432  0.8049E+01  0.6429E+02
     -2.320  0.1419E+02  0.6551E+02
     -2.209  0.2397E+02  0.6755E+02
     -2.097  0.9295E+01  0.6935E+02
     -1.986  0.7374E+01  0.7022E+02
     -1.875  0.7188E+01  0.7104E+02
     -1.763  0.7302E+01  0.7184E+02
     -1.652  0.8400E+01  0.7270E+02
     -1.541  0.1560E+02  0.7388E+02
     -1.429  0.1301E+02  0.7552E+02
     -1.318  0.9219E+01  0.7676E+02
     -1.206  0.1512E+02  0.7785E+02
     -1.095  0.2789E+02  0.8066E+02
     -0.984  0.2215E+02  0.8296E+02
     -0.872  0.1516E+02  0.8497E+02
     -0.761  0.1462E+02  0.8663E+02
     -0.650  0.1290E+02  0.8823E+02
     -0.538  0.9675E+01  0.8949E+02
     -0.427  0.8218E+01  0.9048E+02
     -0.315  0.7131E+01  0.9130E+02
     -0.204  0.8171E+01  0.9216E+02
     -0.093  0.8898E+01  0.9311E+02
      0.019  0.1027E+02  0.9417E+02
      0.130  0.1126E+02  0.9537E+02
      0.241  0.1938E+02  0.9691E+02
      0.353  0.1206E+02  0.9867E+02
      0.464  0.1236E+02  0.1000E+03
      0.576  0.1092E+02  0.1013E+03
      0.687  0.9316E+01  0.1024E+03
      0.798  0.8989E+01  0.1035E+03
      0.910  0.8814E+01  0.1044E+03
      1.021  0.8598E+01  0.1054E+03
      1.132  0.8576E+01  0.1064E+03
      1.244  0.1072E+02  0.1075E+03
      1.355  0.9861E+01  0.1086E+03
      1.467  0.1012E+02  0.1097E+03
      1.578  0.1006E+02  0.1108E+03
      1.689  0.1028E+02  0.1120E+03
      1.801  0.9296E+01  0.1131E+03
      1.912  0.9033E+01  0.1141E+03
      2.023  0.1011E+02  0.1152E+03
      2.135  0.9011E+01  0.1163E+03
      2.246  0.7304E+01  0.1172E+03
      2.358  0.6541E+01  0.1179E+03
      2.469  0.5021E+01  0.1186E+03
      2.580  0.4098E+01  0.1191E+03
      2.692  0.3197E+01  0.1195E+03
      2.803  0.3559E+01  0.1199E+03
      2.914  0.4561E+01  0.1203E+03
      3.026  0.6305E+01  0.1209E+03
      3.137  0.8540E+01  0.1218E+03
      3.249  0.7303E+01  0.1227E+03
      3.360  0.6426E+01  0.1234E+03
      3.471  0.6855E+01  0.1241E+03
      3.583  0.5961E+01  0.1249E+03
      3.694  0.4541E+01  0.1254E+03
      3.805  0.3609E+01  0.1259E+03
      3.917  0.3143E+01  0.1263E+03
      4.028  0.2674E+01  0.1266E+03
      4.140  0.2264E+01  0.1269E+03
      4.251  0.1943E+01  0.1271E+03
      4.362  0.1653E+01  0.1273E+03
      4.474  0.1441E+01  0.1275E+03
      4.585  0.1258E+01  0.1276E+03
      4.696  0.1017E+01  0.1277E+03
      4.808  0.7850E+00  0.1278E+03
      4.919  0.5613E+00  0.1279E+03
      5.031  0.3451E+00  0.1280E+03
      5.142  0.1362E+00  0.1280E+03
      5.253  0.8821E-02  0.1280E+03
      5.365  0.1357E+00  0.1280E+03
      5.476  0.2728E+00  0.1280E+03
      5.587  0.4183E+00  0.1281E+03
      5.699  0.5733E+00  0.1281E+03
      5.810  0.7401E+00  0.1282E+03
      5.922  0.9187E+00  0.1283E+03
      6.033  0.1113E+01  0.1284E+03
      6.144  0.1331E+01  0.1285E+03
      6.256  0.1626E+01  0.1287E+03
      6.367  0.2415E+01  0.1289E+03
      6.478  0.2934E+01  0.1292E+03
      6.590  0.3413E+01  0.1296E+03
      6.701  0.4174E+01  0.1300E+03
      6.813  0.8096E+01  0.1306E+03
      6.924  0.1041E+02  0.1320E+03
      7.035  0.1027E+02  0.1332E+03
      7.147  0.7782E+01  0.1342E+03
      7.258  0.6145E+01  0.1350E+03
      7.369  0.5210E+01  0.1356E+03
      7.481  0.4714E+01  0.1361E+03
      7.592  0.4128E+01  0.1366E+03
      7.704  0.3902E+01  0.1371E+03
      7.815  0.3670E+01  0.1375E+03
      7.926  0.3649E+01  0.1379E+03
      8.038  0.3891E+01  0.1383E+03
      8.149  0.4299E+01  0.1388E+03
      8.260  0.4596E+01  0.1393E+03
      8.372  0.4803E+01  0.1398E+03
      8.483  0.4844E+01  0.1403E+03
      8.594  0.4626E+01  0.1409E+03
      8.706  0.4488E+01  0.1414E+03
      8.817  0.4422E+01  0.1419E+03
      8.929  0.4315E+01  0.1423E+03
      9.040  0.4216E+01  0.1428E+03
      9.151  0.4121E+01  0.1433E+03
      9.263  0.3835E+01  0.1437E+03
      9.374  0.3551E+01  0.1441E+03
      9.485  0.3392E+01  0.1445E+03
      9.597  0.3320E+01  0.1449E+03
      9.708  0.3253E+01  0.1453E+03
      9.820  0.3159E+01  0.1456E+03
      9.931  0.3097E+01  0.1460E+03
     10.042  0.3052E+01  0.1463E+03
     10.154  0.2991E+01  0.1466E+03
     10.265  0.3005E+01  0.1470E+03
     10.376  0.3213E+01  0.1473E+03
     10.488  0.3301E+01  0.1477E+03
     10.599  0.3263E+01  0.1481E+03
     10.711  0.3328E+01  0.1484E+03
     10.822  0.4208E+01  0.1489E+03
     10.933  0.4456E+01  0.1493E+03
     11.045  0.4531E+01  0.1498E+03
     11.156  0.4492E+01  0.1503E+03
     11.267  0.4331E+01  0.1508E+03
     11.379  0.4139E+01  0.1513E+03
     11.490  0.4056E+01  0.1518E+03
     11.602  0.5848E+01  0.1523E+03
     11.713  0.6141E+01  0.1530E+03
     11.824  0.2926E+01  0.1535E+03
     11.936  0.2451E+01  0.1537E+03
     12.047  0.2223E+01  0.1540E+03
     12.158  0.2122E+01  0.1542E+03
     12.270  0.2443E+01  0.1545E+03
     12.381  0.3134E+01  0.1548E+03
     12.493  0.5212E+01  0.1553E+03
     12.604  0.5858E+01  0.1559E+03
     12.715  0.8192E+01  0.1567E+03
     12.827  0.9199E+01  0.1576E+03
     12.938  0.1045E+02  0.1587E+03
     13.049  0.1365E+02  0.1601E+03
     13.161  0.1411E+02  0.1617E+03
     13.272  0.1281E+02  0.1632E+03
     13.384  0.1242E+02  0.1646E+03
     13.495  0.1003E+02  0.1658E+03
     13.606  0.1060E+02  0.1670E+03
     13.718  0.1832E+01  0.1677E+03
     13.829  0.6343E+00  0.1679E+03
     13.940  0.3644E+00  0.1679E+03
     14.052  0.2139E+00  0.1679E+03
     14.163  0.1484E+00  0.1680E+03
     14.275  0.1092E+00  0.1680E+03
     14.386  0.7606E-01  0.1680E+03
     14.497  0.4888E-01  0.1680E+03
     14.609  0.2769E-01  0.1680E+03
     14.720  0.1248E-01  0.1680E+03
     14.831  0.3251E-02  0.1680E+03
     14.943  0.5392E-05  0.1680E+03
     15.054  0.0000E+00  0.1680E+03
     15.166  0.0000E+00  0.1680E+03
     15.277  0.0000E+00  0.1680E+03
     15.388  0.0000E+00  0.1680E+03
     15.500  0.0000E+00  0.1680E+03
     15.611  0.0000E+00  0.1680E+03
     15.722  0.0000E+00  0.1680E+03
     15.834  0.0000E+00  0.1680E+03
     15.945  0.0000E+00  0.1680E+03
     16.057  0.0000E+00  0.1680E+03
     16.168  0.0000E+00  0.1680E+03
     16.279  0.0000E+00  0.1680E+03
     16.391  0.0000E+00  0.1680E+03
     16.502  0.0000E+00  0.1680E+03
     16.613  0.0000E+00  0.1680E+03
     16.725  0.0000E+00  0.1680E+03
     16.836  0.0000E+00  0.1680E+03
     16.948  0.0000E+00  0.1680E+03
