  48  48   0   0
  0.1000542E+02  0.7451788E-09  0.9494317E-09  0.6788168E-09  0.5000000E-15
  1.000000000000000E-004
  CAR 
 benzene                                 
     10.18343843    -18.91577266  301     -1.62599140      1.00000000
    -18.916  0.0000E+00  0.0000E+00
    -18.819  0.0000E+00  0.0000E+00
    -18.722  0.0000E+00  0.0000E+00
    -18.625  0.0000E+00  0.0000E+00
    -18.528  0.0000E+00  0.0000E+00
    -18.431  0.0000E+00  0.0000E+00
    -18.334  0.0000E+00  0.0000E+00
    -18.237  0.0000E+00  0.0000E+00
    -18.140  0.0000E+00  0.0000E+00
    -18.043  0.0000E+00  0.0000E+00
    -17.946  0.0000E+00  0.0000E+00
    -17.849  0.0000E+00  0.0000E+00
    -17.752  0.0000E+00  0.0000E+00
    -17.655  0.0000E+00  0.0000E+00
    -17.558  0.0000E+00  0.0000E+00
    -17.461  0.0000E+00  0.0000E+00
    -17.364  0.0000E+00  0.0000E+00
    -17.267  0.0000E+00  0.0000E+00
    -17.170  0.0000E+00  0.0000E+00
    -17.073  0.0000E+00  0.0000E+00
    -16.976  0.0000E+00  0.0000E+00
    -16.879  0.8634E-01  0.1366E-02
    -16.782  0.4587E+00  0.3250E-01
    -16.685  0.0000E+00  0.4000E-01
    -16.588  0.0000E+00  0.4000E-01
    -16.491  0.0000E+00  0.4000E-01
    -16.394  0.0000E+00  0.4000E-01
    -16.297  0.0000E+00  0.4000E-01
    -16.200  0.0000E+00  0.4000E-01
    -16.103  0.0000E+00  0.4000E-01
    -16.006  0.0000E+00  0.4000E-01
    -15.909  0.0000E+00  0.4000E-01
    -15.812  0.0000E+00  0.4000E-01
    -15.715  0.0000E+00  0.4000E-01
    -15.618  0.0000E+00  0.4000E-01
    -15.521  0.0000E+00  0.4000E-01
    -15.424  0.0000E+00  0.4000E-01
    -15.327  0.0000E+00  0.4000E-01
    -15.230  0.0000E+00  0.4000E-01
    -15.133  0.0000E+00  0.4000E-01
    -15.036  0.0000E+00  0.4000E-01
    -14.939  0.0000E+00  0.4000E-01
    -14.842  0.0000E+00  0.4000E-01
    -14.745  0.0000E+00  0.4000E-01
    -14.648  0.0000E+00  0.4000E-01
    -14.551  0.0000E+00  0.4000E-01
    -14.454  0.0000E+00  0.4000E-01
    -14.357  0.0000E+00  0.4000E-01
    -14.260  0.0000E+00  0.4000E-01
    -14.163  0.2688E-01  0.4031E-01
    -14.066  0.5437E+00  0.5862E-01
    -13.969  0.3324E+00  0.9786E-01
    -13.872  0.0000E+00  0.1200E+00
    -13.775  0.0000E+00  0.1200E+00
    -13.678  0.0000E+00  0.1200E+00
    -13.581  0.0000E+00  0.1200E+00
    -13.484  0.0000E+00  0.1200E+00
    -13.387  0.0000E+00  0.1200E+00
    -13.290  0.0000E+00  0.1200E+00
    -13.193  0.0000E+00  0.1200E+00
    -13.096  0.0000E+00  0.1200E+00
    -12.999  0.0000E+00  0.1200E+00
    -12.902  0.0000E+00  0.1200E+00
    -12.805  0.0000E+00  0.1200E+00
    -12.708  0.0000E+00  0.1200E+00
    -12.611  0.0000E+00  0.1200E+00
    -12.514  0.0000E+00  0.1200E+00
    -12.417  0.0000E+00  0.1200E+00
    -12.320  0.0000E+00  0.1200E+00
    -12.223  0.0000E+00  0.1200E+00
    -12.126  0.0000E+00  0.1200E+00
    -12.029  0.0000E+00  0.1200E+00
    -11.932  0.0000E+00  0.1200E+00
    -11.835  0.0000E+00  0.1200E+00
    -11.738  0.0000E+00  0.1200E+00
    -11.641  0.0000E+00  0.1200E+00
    -11.544  0.0000E+00  0.1200E+00
    -11.447  0.0000E+00  0.1200E+00
    -11.350  0.0000E+00  0.1200E+00
    -11.253  0.0000E+00  0.1200E+00
    -11.156  0.0000E+00  0.1200E+00
    -11.059  0.0000E+00  0.1200E+00
    -10.962  0.0000E+00  0.1200E+00
    -10.865  0.0000E+00  0.1200E+00
    -10.768  0.0000E+00  0.1200E+00
    -10.671  0.0000E+00  0.1200E+00
    -10.574  0.0000E+00  0.1200E+00
    -10.477  0.4240E+00  0.1281E+00
    -10.380  0.1686E+00  0.1606E+00
    -10.283  0.2436E+00  0.1939E+00
    -10.186  0.2111E-02  0.2000E+00
    -10.089  0.0000E+00  0.2000E+00
     -9.992  0.0000E+00  0.2000E+00
     -9.895  0.0000E+00  0.2000E+00
     -9.798  0.0000E+00  0.2000E+00
     -9.701  0.0000E+00  0.2000E+00
     -9.604  0.0000E+00  0.2000E+00
     -9.507  0.0000E+00  0.2000E+00
     -9.410  0.0000E+00  0.2000E+00
     -9.313  0.0000E+00  0.2000E+00
     -9.216  0.0000E+00  0.2000E+00
     -9.119  0.0000E+00  0.2000E+00
     -9.022  0.0000E+00  0.2000E+00
     -8.925  0.0000E+00  0.2000E+00
     -8.828  0.0000E+00  0.2000E+00
     -8.731  0.1852E-01  0.2005E+00
     -8.634  0.3849E-01  0.2033E+00
     -8.537  0.7371E-01  0.2084E+00
     -8.440  0.9479E-01  0.2193E+00
     -8.343  0.9323E-01  0.2324E+00
     -8.246  0.3378E-01  0.2380E+00
     -8.149  0.5991E-02  0.2399E+00
     -8.052  0.0000E+00  0.2400E+00
     -7.955  0.0000E+00  0.2400E+00
     -7.858  0.0000E+00  0.2400E+00
     -7.761  0.0000E+00  0.2400E+00
     -7.664  0.0000E+00  0.2400E+00
     -7.567  0.0000E+00  0.2400E+00
     -7.470  0.0000E+00  0.2400E+00
     -7.373  0.0000E+00  0.2400E+00
     -7.276  0.0000E+00  0.2400E+00
     -7.179  0.0000E+00  0.2400E+00
     -7.082  0.0000E+00  0.2400E+00
     -6.985  0.1403E-01  0.2403E+00
     -6.888  0.6928E-01  0.2441E+00
     -6.791  0.1452E+00  0.2559E+00
     -6.694  0.1451E+00  0.2684E+00
     -6.597  0.5571E-01  0.2772E+00
     -6.500  0.5834E-01  0.2803E+00
     -6.403  0.0000E+00  0.3200E+00
     -6.306  0.0000E+00  0.3200E+00
     -6.209  0.0000E+00  0.3200E+00
     -6.112  0.3223E-02  0.3200E+00
     -6.015  0.2742E+00  0.3302E+00
     -5.918  0.1357E+00  0.3497E+00
     -5.821  0.5226E-01  0.3577E+00
     -5.724  0.1399E+00  0.3629E+00
     -5.627  0.1897E+00  0.3809E+00
     -5.530  0.4697E-01  0.3989E+00
     -5.433  0.0000E+00  0.4000E+00
     -5.336  0.0000E+00  0.4000E+00
     -5.239  0.0000E+00  0.4000E+00
     -5.142  0.0000E+00  0.4000E+00
     -5.045  0.0000E+00  0.4000E+00
     -4.948  0.0000E+00  0.4000E+00
     -4.851  0.1365E-02  0.4000E+00
     -4.754  0.1136E+00  0.4051E+00
     -4.657  0.1316E+00  0.4202E+00
     -4.560  0.9332E-01  0.4377E+00
     -4.463  0.6357E-03  0.4400E+00
     -4.366  0.0000E+00  0.4400E+00
     -4.269  0.0000E+00  0.4400E+00
     -4.172  0.0000E+00  0.4400E+00
     -4.075  0.0000E+00  0.4400E+00
     -3.978  0.6868E-02  0.4402E+00
     -3.881  0.3049E+00  0.4480E+00
     -3.784  0.1489E+00  0.4776E+00
     -3.687  0.2491E+00  0.4951E+00
     -3.590  0.7059E-01  0.5176E+00
     -3.493  0.0000E+00  0.5200E+00
     -3.396  0.0000E+00  0.5200E+00
     -3.299  0.0000E+00  0.5200E+00
     -3.202  0.0000E+00  0.5200E+00
     -3.105  0.0000E+00  0.5200E+00
     -3.008  0.0000E+00  0.5200E+00
     -2.911  0.0000E+00  0.5200E+00
     -2.814  0.0000E+00  0.5200E+00
     -2.717  0.0000E+00  0.5200E+00
     -2.620  0.0000E+00  0.5200E+00
     -2.523  0.0000E+00  0.5200E+00
     -2.426  0.0000E+00  0.5200E+00
     -2.329  0.0000E+00  0.5200E+00
     -2.232  0.5025E-01  0.5216E+00
     -2.135  0.1313E+00  0.5300E+00
     -2.038  0.3467E+00  0.5493E+00
     -1.941  0.2513E+00  0.5666E+00
     -1.844  0.1807E+00  0.5879E+00
     -1.747  0.5798E-01  0.5983E+00
     -1.650  0.0000E+00  0.6000E+00
     -1.553  0.0000E+00  0.6000E+00
     -1.456  0.0000E+00  0.6000E+00
     -1.359  0.0000E+00  0.6000E+00
     -1.262  0.0000E+00  0.6000E+00
     -1.165  0.0000E+00  0.6000E+00
     -1.068  0.0000E+00  0.6000E+00
     -0.971  0.0000E+00  0.6000E+00
     -0.874  0.0000E+00  0.6000E+00
     -0.777  0.0000E+00  0.6000E+00
     -0.680  0.0000E+00  0.6000E+00
     -0.583  0.0000E+00  0.6000E+00
     -0.486  0.0000E+00  0.6000E+00
     -0.389  0.0000E+00  0.6000E+00
     -0.292  0.0000E+00  0.6000E+00
     -0.195  0.0000E+00  0.6000E+00
     -0.098  0.0000E+00  0.6000E+00
     -0.001  0.0000E+00  0.6000E+00
      0.096  0.0000E+00  0.6000E+00
      0.193  0.0000E+00  0.6000E+00
      0.290  0.0000E+00  0.6000E+00
      0.387  0.0000E+00  0.6000E+00
      0.484  0.0000E+00  0.6000E+00
      0.581  0.0000E+00  0.6000E+00
      0.678  0.0000E+00  0.6000E+00
      0.775  0.0000E+00  0.6000E+00
      0.872  0.0000E+00  0.6000E+00
      0.969  0.0000E+00  0.6000E+00
      1.066  0.0000E+00  0.6000E+00
      1.163  0.0000E+00  0.6000E+00
      1.260  0.0000E+00  0.6000E+00
      1.357  0.0000E+00  0.6000E+00
      1.454  0.0000E+00  0.6000E+00
      1.551  0.0000E+00  0.6000E+00
      1.648  0.0000E+00  0.6000E+00
      1.745  0.0000E+00  0.6000E+00
      1.842  0.0000E+00  0.6000E+00
      1.939  0.0000E+00  0.6000E+00
      2.036  0.0000E+00  0.6000E+00
      2.133  0.0000E+00  0.6000E+00
      2.230  0.0000E+00  0.6000E+00
      2.327  0.0000E+00  0.6000E+00
      2.424  0.0000E+00  0.6000E+00
      2.521  0.0000E+00  0.6000E+00
      2.618  0.0000E+00  0.6000E+00
      2.715  0.0000E+00  0.6000E+00
      2.812  0.4578E-01  0.6004E+00
      2.909  0.1386E+00  0.6202E+00
      3.006  0.1404E+00  0.6326E+00
      3.103  0.1077E-01  0.6400E+00
      3.200  0.1466E+00  0.6532E+00
      3.297  0.1785E+00  0.6669E+00
      3.394  0.4900E-01  0.6783E+00
      3.491  0.1805E-02  0.6800E+00
      3.588  0.0000E+00  0.6800E+00
      3.685  0.0000E+00  0.6800E+00
      3.782  0.0000E+00  0.6800E+00
      3.879  0.0000E+00  0.6800E+00
      3.976  0.1453E-05  0.6800E+00
      4.073  0.7738E-03  0.6800E+00
      4.170  0.2902E-02  0.6802E+00
      4.267  0.5791E-02  0.6806E+00
      4.364  0.7482E-02  0.6813E+00
      4.461  0.8055E-02  0.6820E+00
      4.558  0.9733E-02  0.6829E+00
      4.655  0.1181E-01  0.6839E+00
      4.752  0.1402E-01  0.6852E+00
      4.849  0.1751E-01  0.6867E+00
      4.946  0.2736E-01  0.6888E+00
      5.043  0.3420E-01  0.6918E+00
      5.140  0.3517E-01  0.6952E+00
      5.237  0.3531E-01  0.6987E+00
      5.334  0.2292E-01  0.7016E+00
      5.431  0.3768E-01  0.7041E+00
      5.528  0.6332E-01  0.7105E+00
      5.625  0.3793E-01  0.7154E+00
      5.722  0.2692E-01  0.7188E+00
      5.819  0.5516E-01  0.7213E+00
      5.916  0.1101E+00  0.7308E+00
      6.013  0.5470E-01  0.7393E+00
      6.110  0.4497E-01  0.7437E+00
      6.207  0.5206E-01  0.7485E+00
      6.304  0.5008E-01  0.7534E+00
      6.401  0.4838E-01  0.7575E+00
      6.498  0.7076E-01  0.7634E+00
      6.595  0.1414E+00  0.7740E+00
      6.692  0.9493E-01  0.7856E+00
      6.789  0.9835E-01  0.7940E+00
      6.886  0.6733E-01  0.8034E+00
      6.983  0.5475E-01  0.8084E+00
      7.080  0.5632E-01  0.8139E+00
      7.177  0.6253E-01  0.8197E+00
      7.274  0.7714E-01  0.8265E+00
      7.371  0.6365E-01  0.8351E+00
      7.468  0.2813E-01  0.8390E+00
      7.565  0.3308E-01  0.8411E+00
      7.662  0.7757E-01  0.8461E+00
      7.759  0.7294E-01  0.8554E+00
      7.856  0.1221E-01  0.8590E+00
      7.952  0.4198E-02  0.8597E+00
      8.049  0.1387E-02  0.8599E+00
      8.146  0.1055E-03  0.8600E+00
      8.243  0.0000E+00  0.8600E+00
      8.340  0.0000E+00  0.8600E+00
      8.437  0.0000E+00  0.8600E+00
      8.534  0.0000E+00  0.8600E+00
      8.631  0.0000E+00  0.8600E+00
      8.728  0.0000E+00  0.8600E+00
      8.825  0.0000E+00  0.8600E+00
      8.922  0.0000E+00  0.8600E+00
      9.019  0.0000E+00  0.8600E+00
      9.116  0.0000E+00  0.8600E+00
      9.213  0.0000E+00  0.8600E+00
      9.310  0.0000E+00  0.8600E+00
      9.407  0.0000E+00  0.8600E+00
      9.504  0.0000E+00  0.8600E+00
      9.601  0.0000E+00  0.8600E+00
      9.698  0.0000E+00  0.8600E+00
      9.795  0.0000E+00  0.8600E+00
      9.892  0.0000E+00  0.8600E+00
      9.989  0.0000E+00  0.8600E+00
     10.086  0.0000E+00  0.8600E+00
     10.183  0.0000E+00  0.8600E+00
