   48   48  200    1
  0.1000542E+02  0.7451787E-09  0.9494317E-09  0.6788168E-09  0.5000000E-15
  1.000000000000000E-004
  CAR 
 benzene                                 
    120     27     86
 
  0.0000000E+00  0.0000000E+00  0.0000000E+00  0.1562500E-01
    1      -16.915773
    2      -16.818701
    3      -16.762218
    4      -16.743378
    5      -14.197740
    6      -14.071079
    7      -14.036964
    8      -14.010618
    9      -13.985709
   10      -13.951801
   11      -13.942933
   12      -13.923387
   13      -10.498661
   14      -10.497761
   15      -10.453935
   16      -10.412482
   17      -10.371273
   18      -10.352659
   19      -10.322941
   20      -10.172764
   21       -8.794285
   22       -8.427266
   23       -8.369159
   24       -8.099709
   25       -7.041156
   26       -6.895657
   27       -6.634866
   28       -6.536143
   29       -6.514852
   30       -6.496252
   31       -6.424909
   32       -6.414019
   33       -6.128175
   34       -6.119477
   35       -6.074484
   36       -5.731433
   37       -5.683281
   38       -5.647348
   39       -5.638183
   40       -5.449834
   41       -4.673217
   42       -4.569949
   43       -4.507969
   44       -4.449242
   45       -4.052481
   46       -3.976692
   47       -3.965795
   48       -3.901100
   49       -3.709883
   50       -3.681264
   51       -3.668931
   52       -3.496789
   53       -2.294216
   54       -2.284971
   55       -2.151331
   56       -2.065576
   57       -1.898323
   58       -1.790962
   59       -1.699322
   60       -1.663482
   61        2.803634
   62        2.829105
   63        2.954324
   64        3.107191
   65        3.107888
   66        3.200201
   67        3.373963
   68        3.521617
   69        3.971213
   70        5.162390
   71        5.366516
   72        5.906152
   73        6.118858
   74        6.236369
   75        6.446435
   76        6.546538
   77        6.567748
   78        6.573718
   79        6.644634
   80        6.797111
   81        6.905487
   82        7.298797
   83        7.308629
   84        7.486218
   85        7.573390
   86        7.970985
 
  0.2500000E+00  0.0000000E+00  0.0000000E+00  0.3125000E-01
    1      -16.894378
    2      -16.807853
    3      -16.785871
    4      -16.754574
    5      -14.171455
    6      -14.065689
    7      -14.030636
    8      -14.010930
    9      -14.004648
   10      -13.964437
   11      -13.943447
   12      -13.928543
   13      -10.475528
   14      -10.452038
   15      -10.449072
   16      -10.420485
   17      -10.367934
   18      -10.354863
   19      -10.349065
   20      -10.218980
   21       -8.763073
   22       -8.509132
   23       -8.334974
   24       -8.146142
   25       -7.014269
   26       -6.910835
   27       -6.583841
   28       -6.511113
   29       -6.505503
   30       -6.490309
   31       -6.421084
   32       -6.411716
   33       -6.098611
   34       -6.017280
   35       -5.976816
   36       -5.806366
   37       -5.683415
   38       -5.650346
   39       -5.630142
   40       -5.486145
   41       -4.791815
   42       -4.701648
   43       -4.586128
   44       -4.551826
   45       -3.965656
   46       -3.886223
   47       -3.885713
   48       -3.871483
   49       -3.698034
   50       -3.692990
   51       -3.640779
   52       -3.525739
   53       -2.212886
   54       -2.211510
   55       -2.145545
   56       -2.085112
   57       -1.883960
   58       -1.843446
   59       -1.762965
   60       -1.762756
   61        2.857493
   62        2.903420
   63        2.978697
   64        3.101235
   65        3.111446
   66        3.145432
   67        3.277264
   68        3.397093
   69        4.192036
   70        5.294061
   71        5.479728
   72        5.591262
   73        5.895530
   74        6.193590
   75        6.493541
   76        6.546567
   77        6.575449
   78        6.578280
   79        6.768299
   80        6.836441
   81        6.975726
   82        7.289998
   83        7.322924
   84        7.524817
   85        7.691102
   86        7.834742
 
  0.5000000E+00  0.0000000E+00  0.0000000E+00  0.1562500E-01
    1      -16.841274
    2      -16.841273
    3      -16.781363
    4      -16.781363
    5      -14.108087
    6      -14.108086
    7      -14.017793
    8      -14.017793
    9      -13.995021
   10      -13.995020
   11      -13.938816
   12      -13.938815
   13      -10.444968
   14      -10.444968
   15      -10.408126
   16      -10.408126
   17      -10.362580
   18      -10.362580
   19      -10.331106
   20      -10.331106
   21       -8.659974
   22       -8.659973
   23       -8.246398
   24       -8.246398
   25       -6.957282
   26       -6.957281
   27       -6.511826
   28       -6.511825
   29       -6.490267
   30       -6.490267
   31       -6.413968
   32       -6.413968
   33       -6.002250
   34       -6.002250
   35       -5.777124
   36       -5.777124
   37       -5.752962
   38       -5.752962
   39       -5.566665
   40       -5.566664
   41       -4.860222
   42       -4.860222
   43       -4.660960
   44       -4.660960
   45       -3.881428
   46       -3.881427
   47       -3.750183
   48       -3.750183
   49       -3.742882
   50       -3.742882
   51       -3.586966
   52       -3.586966
   53       -2.126687
   54       -2.126687
   55       -2.028080
   56       -2.028080
   57       -1.991785
   58       -1.991784
   59       -1.838579
   60       -1.838579
   61        2.988412
   62        2.988413
   63        3.050382
   64        3.050383
   65        3.118597
   66        3.118597
   67        3.170514
   68        3.170515
   69        4.787527
   70        4.787528
   71        5.506873
   72        5.506873
   73        6.010595
   74        6.010596
   75        6.609640
   76        6.609641
   77        6.691220
   78        6.691220
   79        6.694747
   80        6.694748
   81        7.291437
   82        7.291437
   83        7.368786
   84        7.368787
   85        7.685346
   86        7.685347
 
  0.0000000E+00  0.2500000E+00  0.0000000E+00  0.3125000E-01
    1      -16.902296
    2      -16.833741
    3      -16.759467
    4      -16.746160
    5      -14.159427
    6      -14.061850
    7      -14.028823
    8      -14.018983
    9      -13.980062
   10      -13.963483
   11      -13.960455
   12      -13.950009
   13      -10.482272
   14      -10.458590
   15      -10.450920
   16      -10.397491
   17      -10.373256
   18      -10.362265
   19      -10.339522
   20      -10.220983
   21       -8.713619
   22       -8.420777
   23       -8.379137
   24       -8.232488
   25       -6.979509
   26       -6.828448
   27       -6.686552
   28       -6.545282
   29       -6.494922
   30       -6.484227
   31       -6.435017
   32       -6.424468
   33       -6.084944
   34       -6.038858
   35       -6.022304
   36       -5.765704
   37       -5.728410
   38       -5.713210
   39       -5.669558
   40       -5.541498
   41       -4.663252
   42       -4.566537
   43       -4.550619
   44       -4.484083
   45       -3.956489
   46       -3.914884
   47       -3.909833
   48       -3.830529
   49       -3.734643
   50       -3.708758
   51       -3.688313
   52       -3.547225
   53       -2.298965
   54       -2.294271
   55       -2.096214
   56       -2.043331
   57       -1.927025
   58       -1.831630
   59       -1.707668
   60       -1.672596
   61        2.800310
   62        2.818927
   63        2.987553
   64        3.096604
   65        3.127541
   66        3.239506
   67        3.317518
   68        3.466936
   69        4.129868
   70        5.019139
   71        5.465885
   72        5.795307
   73        5.941352
   74        6.221294
   75        6.313821
   76        6.492357
   77        6.639556
   78        6.733975
   79        6.750796
   80        6.792970
   81        7.108207
   82        7.294955
   83        7.366491
   84        7.445699
   85        7.560038
   86        7.722482
 
  0.2500000E+00  0.2500000E+00  0.0000000E+00  0.6250000E-01
    1      -16.882280
    2      -16.821148
    3      -16.781356
    4      -16.759232
    5      -14.139933
    6      -14.060103
    7      -14.026889
    8      -14.021253
    9      -13.987719
   10      -13.987003
   11      -13.949998
   12      -13.948105
   13      -10.449580
   14      -10.445404
   15      -10.442519
   16      -10.408370
   17      -10.372905
   18      -10.362376
   19      -10.356006
   20      -10.258309
   21       -8.686235
   22       -8.481257
   23       -8.357639
   24       -8.254527
   25       -6.957303
   26       -6.848829
   27       -6.654972
   28       -6.563802
   29       -6.478489
   30       -6.476237
   31       -6.431619
   32       -6.422785
   33       -6.044190
   34       -6.001373
   35       -5.902268
   36       -5.866814
   37       -5.733297
   38       -5.655232
   39       -5.634389
   40       -5.536339
   41       -4.766639
   42       -4.685600
   43       -4.622274
   44       -4.581260
   45       -3.906996
   46       -3.846181
   47       -3.838867
   48       -3.824772
   49       -3.715268
   50       -3.711079
   51       -3.664379
   52       -3.574823
   53       -2.226717
   54       -2.208369
   55       -2.097258
   56       -2.055015
   57       -1.916170
   58       -1.862016
   59       -1.793952
   60       -1.764033
   61        2.846160
   62        2.899624
   63        2.990110
   64        3.089862
   65        3.128258
   66        3.188115
   67        3.248167
   68        3.364579
   69        4.340580
   70        5.170374
   71        5.538672
   72        5.731274
   73        5.824012
   74        5.977744
   75        6.279777
   76        6.466818
   77        6.539528
   78        6.677184
   79        6.915513
   80        6.929438
   81        7.033305
   82        7.260194
   83        7.306667
   84        7.557542
   85        7.656542
   86        7.670905
 
  0.5000000E+00  0.2500000E+00  0.0000000E+00  0.3125000E-01
    1      -16.832767
    2      -16.832767
    3      -16.790402
    4      -16.790401
    5      -14.093449
    6      -14.093449
    7      -14.015349
    8      -14.015348
    9      -14.003549
   10      -14.003548
   11      -13.947065
   12      -13.947065
   13      -10.434177
   14      -10.434176
   15      -10.406431
   16      -10.406431
   17      -10.366106
   18      -10.366106
   19      -10.346045
   20      -10.346045
   21       -8.599718
   22       -8.599718
   23       -8.306224
   24       -8.306224
   25       -6.902772
   26       -6.902771
   27       -6.599699
   28       -6.599698
   29       -6.468725
   30       -6.468724
   31       -6.424575
   32       -6.424575
   33       -5.990710
   34       -5.990709
   35       -5.821555
   36       -5.821554
   37       -5.711181
   38       -5.711181
   39       -5.554757
   40       -5.554756
   41       -4.828433
   42       -4.828433
   43       -4.695016
   44       -4.695016
   45       -3.840399
   46       -3.840398
   47       -3.742480
   48       -3.742480
   49       -3.741090
   50       -3.741090
   51       -3.625471
   52       -3.625470
   53       -2.101401
   54       -2.101400
   55       -2.009177
   56       -2.009177
   57       -2.000218
   58       -2.000217
   59       -1.877654
   60       -1.877653
   61        2.963038
   62        2.963038
   63        3.055217
   64        3.055217
   65        3.118864
   66        3.118865
   67        3.192970
   68        3.192970
   69        4.913094
   70        4.913095
   71        5.503178
   72        5.503178
   73        5.888312
   74        5.888312
   75        6.414330
   76        6.414330
   77        6.584291
   78        6.584292
   79        6.908406
   80        6.908406
   81        7.252240
   82        7.252240
   83        7.381723
   84        7.381723
   85        7.662070
   86        7.662070
 
  0.0000000E+00  0.5000000E+00  0.0000000E+00  0.1562500E-01
    1      -16.868787
    2      -16.868785
    3      -16.752827
    4      -16.752825
    5      -14.068633
    6      -14.068633
    7      -14.039972
    8      -14.039971
    9      -13.988548
   10      -13.988546
   11      -13.965769
   12      -13.965768
   13      -10.455357
   14      -10.455356
   15      -10.391985
   16      -10.391984
   17      -10.367616
   18      -10.367615
   19      -10.328993
   20      -10.328992
   21       -8.496472
   22       -8.496469
   23       -8.401612
   24       -8.401611
   25       -6.830522
   26       -6.830521
   27       -6.671392
   28       -6.671392
   29       -6.457849
   30       -6.457848
   31       -6.455284
   32       -6.455283
   33       -5.942983
   34       -5.942981
   35       -5.884740
   36       -5.884738
   37       -5.778682
   38       -5.778679
   39       -5.708144
   40       -5.708144
   41       -4.620048
   42       -4.620046
   43       -4.539078
   44       -4.539077
   45       -3.816388
   46       -3.816387
   47       -3.808191
   48       -3.808190
   49       -3.765961
   50       -3.765960
   51       -3.679259
   52       -3.679257
   53       -2.304374
   54       -2.304372
   55       -1.987977
   56       -1.987976
   57       -1.961593
   58       -1.961592
   59       -1.693975
   60       -1.693974
   61        2.801506
   62        2.801506
   63        3.052738
   64        3.052739
   65        3.206685
   66        3.206687
   67        3.346003
   68        3.346004
   69        4.552617
   70        4.552624
   71        5.677587
   72        5.677590
   73        5.935183
   74        5.935188
   75        6.519781
   76        6.519786
   77        6.586949
   78        6.586950
   79        6.881055
   80        6.881056
   81        7.225563
   82        7.225564
   83        7.369025
   84        7.369032
   85        7.702504
   86        7.702510
 
  0.2500000E+00  0.5000000E+00  0.0000000E+00  0.3125000E-01
    1      -16.852328
    2      -16.852326
    3      -16.770372
    4      -16.770370
    5      -14.065360
    6      -14.065359
    7      -14.045426
    8      -14.045425
    9      -13.983394
   10      -13.983393
   11      -13.966904
   12      -13.966904
   13      -10.441265
   14      -10.441264
   15      -10.395810
   16      -10.395809
   17      -10.370659
   18      -10.370658
   19      -10.343676
   20      -10.343675
   21       -8.485243
   22       -8.485240
   23       -8.416869
   24       -8.416868
   25       -6.812182
   26       -6.812181
   27       -6.697872
   28       -6.697871
   29       -6.453456
   30       -6.453454
   31       -6.451648
   32       -6.451647
   33       -5.949224
   34       -5.949223
   35       -5.903024
   36       -5.903022
   37       -5.703213
   38       -5.703211
   39       -5.639490
   40       -5.639490
   41       -4.699960
   42       -4.699959
   43       -4.639084
   44       -4.639083
   45       -3.802749
   46       -3.802749
   47       -3.766862
   48       -3.766861
   49       -3.733249
   50       -3.733248
   51       -3.697089
   52       -3.697087
   53       -2.222573
   54       -2.222572
   55       -1.986966
   56       -1.986965
   57       -1.976410
   58       -1.976409
   59       -1.783417
   60       -1.783416
   61        2.862505
   62        2.862506
   63        3.037241
   64        3.037243
   65        3.185423
   66        3.185424
   67        3.284395
   68        3.284396
   69        4.735419
   70        4.735426
   71        5.693914
   72        5.693915
   73        5.992279
   74        5.992283
   75        6.098874
   76        6.098875
   77        6.747019
   78        6.747020
   79        6.861985
   80        6.861986
   81        7.140366
   82        7.140368
   83        7.284492
   84        7.284498
   85        7.781536
   86        7.781541
 
  0.5000000E+00  0.5000000E+00  0.0000000E+00  0.1562500E-01
    1      -16.811856
    2      -16.811856
    3      -16.811855
    4      -16.811854
    5      -14.056379
    6      -14.056379
    7      -14.056379
    8      -14.056378
    9      -13.973197
   10      -13.973196
   11      -13.973196
   12      -13.973195
   13      -10.411151
   14      -10.411151
   15      -10.411150
   16      -10.411150
   17      -10.368243
   18      -10.368243
   19      -10.368243
   20      -10.368243
   21       -8.453006
   22       -8.453006
   23       -8.453004
   24       -8.453004
   25       -6.760049
   26       -6.760048
   27       -6.760048
   28       -6.760048
   29       -6.448339
   30       -6.448339
   31       -6.448338
   32       -6.448338
   33       -5.928111
   34       -5.928110
   35       -5.928110
   36       -5.928109
   37       -5.600964
   38       -5.600964
   39       -5.600963
   40       -5.600962
   41       -4.762593
   42       -4.762593
   43       -4.762592
   44       -4.762591
   45       -3.760943
   46       -3.760943
   47       -3.760943
   48       -3.760942
   49       -3.708331
   50       -3.708331
   51       -3.708330
   52       -3.708329
   53       -2.041065
   54       -2.041065
   55       -2.041064
   56       -2.041063
   57       -1.954694
   58       -1.954694
   59       -1.954693
   60       -1.954693
   61        2.983911
   62        2.983911
   63        2.983912
   64        2.983912
   65        3.182811
   66        3.182811
   67        3.182811
   68        3.182812
   69        5.221457
   70        5.221458
   71        5.221464
   72        5.221465
   73        6.052665
   74        6.052666
   75        6.052670
   76        6.052671
   77        6.799613
   78        6.799613
   79        6.799615
   80        6.799615
   81        7.168177
   82        7.168177
   83        7.168180
   84        7.168180
   85        7.853632
   86        7.853633
 
  0.0000000E+00  0.0000000E+00  0.2500000E+00  0.3125000E-01
    1      -16.891250
    2      -16.809986
    3      -16.770004
    4      -16.769399
    5      -14.163037
    6      -14.058817
    7      -14.036090
    8      -14.008033
    9      -13.983623
   10      -13.977860
   11      -13.961346
   12      -13.938264
   13      -10.492775
   14      -10.491990
   15      -10.427501
   16      -10.413900
   17      -10.384956
   18      -10.357836
   19      -10.312359
   20      -10.203704
   21       -8.759455
   22       -8.464022
   23       -8.378393
   24       -8.148065
   25       -6.954365
   26       -6.850276
   27       -6.663794
   28       -6.583567
   29       -6.503329
   30       -6.475990
   31       -6.440774
   32       -6.417249
   33       -6.091153
   34       -6.041291
   35       -5.979318
   36       -5.757522
   37       -5.688931
   38       -5.642040
   39       -5.637942
   40       -5.498472
   41       -4.768933
   42       -4.674040
   43       -4.613049
   44       -4.592684
   45       -3.945973
   46       -3.909241
   47       -3.865262
   48       -3.831586
   49       -3.701457
   50       -3.684105
   51       -3.637914
   52       -3.562998
   53       -2.199895
   54       -2.182052
   55       -2.134940
   56       -2.021717
   57       -1.951689
   58       -1.833659
   59       -1.772664
   60       -1.736619
   61        2.894723
   62        2.899494
   63        2.964574
   64        3.095804
   65        3.113766
   66        3.173756
   67        3.292539
   68        3.436270
   69        4.234957
   70        5.325430
   71        5.495746
   72        5.854001
   73        5.875087
   74        6.138565
   75        6.328631
   76        6.349542
   77        6.404883
   78        6.511458
   79        6.572562
   80        6.714000
   81        6.907474
   82        7.192960
   83        7.300487
   84        7.478331
   85        7.593801
   86        7.733559
 
  0.2500000E+00  0.0000000E+00  0.2500000E+00  0.6250000E-01
    1      -16.874062
    2      -16.803876
    3      -16.788324
    4      -16.775160
    5      -14.142185
    6      -14.051734
    7      -14.036836
    8      -14.009712
    9      -14.006806
   10      -13.974385
   11      -13.968121
   12      -13.941040
   13      -10.473424
   14      -10.452138
   15      -10.428571
   16      -10.411885
   17      -10.380272
   18      -10.357650
   19      -10.337022
   20      -10.244406
   21       -8.716342
   22       -8.449968
   23       -8.416670
   24       -8.192979
   25       -6.936160
   26       -6.862816
   27       -6.631962
   28       -6.573972
   29       -6.494372
   30       -6.474740
   31       -6.435038
   32       -6.421123
   33       -6.055935
   34       -5.993635
   35       -5.957454
   36       -5.761154
   37       -5.721337
   38       -5.696136
   39       -5.662846
   40       -5.533396
   41       -4.839317
   42       -4.697009
   43       -4.613457
   44       -4.516762
   45       -3.925435
   46       -3.860447
   47       -3.845642
   48       -3.816862
   49       -3.706685
   50       -3.693321
   51       -3.650973
   52       -3.583709
   53       -2.153597
   54       -2.132252
   55       -2.104061
   56       -2.038383
   57       -1.939550
   58       -1.865829
   59       -1.808871
   60       -1.804384
   61        2.887010
   62        2.894133
   63        3.007898
   64        3.032968
   65        3.142654
   66        3.169147
   67        3.200133
   68        3.388185
   69        4.384045
   70        5.379421
   71        5.455118
   72        5.538660
   73        5.926329
   74        5.943117
   75        6.186984
   76        6.496759
   77        6.523734
   78        6.551147
   79        6.599491
   80        6.800208
   81        6.810582
   82        7.190562
   83        7.274464
   84        7.317394
   85        7.675709
   86        7.747246
 
  0.5000000E+00  0.0000000E+00  0.2500000E+00  0.3125000E-01
    1      -16.831729
    2      -16.831728
    3      -16.789331
    4      -16.789331
    5      -14.089644
    6      -14.089643
    7      -14.026896
    8      -14.026895
    9      -13.995730
   10      -13.995730
   11      -13.954954
   12      -13.954953
   13      -10.439477
   14      -10.439476
   15      -10.388158
   16      -10.388158
   17      -10.380607
   18      -10.380607
   19      -10.334566
   20      -10.334565
   21       -8.596895
   22       -8.596895
   23       -8.303733
   24       -8.303733
   25       -6.895648
   26       -6.895648
   27       -6.584730
   28       -6.584729
   29       -6.479275
   30       -6.479274
   31       -6.426125
   32       -6.426125
   33       -5.950690
   34       -5.950690
   35       -5.858158
   36       -5.858158
   37       -5.800195
   38       -5.800194
   39       -5.619643
   40       -5.619643
   41       -4.732655
   42       -4.732655
   43       -4.605519
   44       -4.605519
   45       -3.850399
   46       -3.850399
   47       -3.760567
   48       -3.760567
   49       -3.759255
   50       -3.759255
   51       -3.632858
   52       -3.632858
   53       -2.090257
   54       -2.090256
   55       -2.010725
   56       -2.010724
   57       -1.963075
   58       -1.963074
   59       -1.865621
   60       -1.865620
   61        2.922019
   62        2.922019
   63        2.956524
   64        2.956525
   65        3.184493
   66        3.184493
   67        3.225683
   68        3.225683
   69        4.839905
   70        4.839906
   71        5.406390
   72        5.406391
   73        6.062080
   74        6.062081
   75        6.222263
   76        6.222263
   77        6.614388
   78        6.614390
   79        6.642757
   80        6.642758
   81        7.037013
   82        7.037014
   83        7.238525
   84        7.238525
   85        7.895981
   86        7.895981
 
  0.0000000E+00  0.2500000E+00  0.2500000E+00  0.6250000E-01
    1      -16.879869
    2      -16.822451
    3      -16.769892
    4      -16.769461
    5      -14.135787
    6      -14.063402
    7      -14.029663
    8      -14.017584
    9      -13.993913
   10      -13.982992
   11      -13.954679
   12      -13.949424
   13      -10.506327
   14      -10.468565
   15      -10.445985
   16      -10.393227
   17      -10.389572
   18      -10.350838
   19      -10.305581
   20      -10.229859
   21       -8.684204
   22       -8.449023
   23       -8.389658
   24       -8.257932
   25       -6.909709
   26       -6.806021
   27       -6.704804
   28       -6.597906
   29       -6.486479
   30       -6.471600
   31       -6.445711
   32       -6.427054
   33       -6.028463
   34       -5.998175
   35       -5.967332
   36       -5.846435
   37       -5.693355
   38       -5.672337
   39       -5.599117
   40       -5.579129
   41       -4.751146
   42       -4.675598
   43       -4.623450
   44       -4.606211
   45       -3.899064
   46       -3.895362
   47       -3.852144
   48       -3.770557
   49       -3.737020
   50       -3.703007
   51       -3.635243
   52       -3.570031
   53       -2.209919
   54       -2.205929
   55       -2.069478
   56       -2.023563
   57       -1.973621
   58       -1.861495
   59       -1.774617
   60       -1.739213
   61        2.852185
   62        2.860997
   63        3.027103
   64        3.082174
   65        3.114643
   66        3.140907
   67        3.333120
   68        3.422568
   69        4.386396
   70        5.215420
   71        5.609375
   72        5.751840
   73        5.863345
   74        6.011459
   75        6.338563
   76        6.379757
   77        6.395733
   78        6.575245
   79        6.603369
   80        6.744858
   81        6.925124
   82        7.048595
   83        7.422252
   84        7.486415
   85        7.490651
   86        7.753692
 
  0.2500000E+00  0.2500000E+00  0.2500000E+00  0.1250000E+00
    1      -16.864130
    2      -16.814533
    3      -16.786375
    4      -16.777059
    5      -14.124002
    6      -14.064226
    7      -14.043570
    8      -14.021284
    9      -14.001620
   10      -13.976008
   11      -13.957297
   12      -13.941287
   13      -10.486090
   14      -10.463899
   15      -10.448272
   16      -10.404920
   17      -10.373268
   18      -10.345028
   19      -10.314301
   20      -10.258988
   21       -8.646245
   22       -8.437975
   23       -8.413338
   24       -8.277172
   25       -6.898181
   26       -6.825400
   27       -6.689450
   28       -6.616604
   29       -6.477604
   30       -6.466554
   31       -6.440784
   32       -6.429760
   33       -6.038871
   34       -6.016475
   35       -5.984053
   36       -5.796839
   37       -5.723101
   38       -5.664105
   39       -5.616211
   40       -5.531162
   41       -4.826918
   42       -4.705906
   43       -4.597149
   44       -4.528754
   45       -3.919581
   46       -3.864722
   47       -3.835145
   48       -3.790929
   49       -3.722698
   50       -3.698610
   51       -3.644623
   52       -3.588093
   53       -2.168131
   54       -2.152912
   55       -2.046521
   56       -2.033396
   57       -1.965193
   58       -1.879078
   59       -1.825520
   60       -1.793220
   61        2.845500
   62        2.858954
   63        2.983801
   64        3.047752
   65        3.103024
   66        3.176697
   67        3.299128
   68        3.395840
   69        4.524196
   70        5.302460
   71        5.520799
   72        5.649049
   73        5.759294
   74        5.931898
   75        6.049932
   76        6.350219
   77        6.499071
   78        6.619877
   79        6.738377
   80        6.842457
   81        6.847555
   82        7.135563
   83        7.321171
   84        7.400633
   85        7.521768
   86        7.714155
 
  0.5000000E+00  0.2500000E+00  0.2500000E+00  0.6250000E-01
    1      -16.825626
    2      -16.825625
    3      -16.795633
    4      -16.795632
    5      -14.091872
    6      -14.091872
    7      -14.042306
    8      -14.042305
    9      -13.985977
   10      -13.985976
   11      -13.945424
   12      -13.945423
   13      -10.457902
   14      -10.457902
   15      -10.437881
   16      -10.437880
   17      -10.334834
   18      -10.334833
   19      -10.319188
   20      -10.319187
   21       -8.547175
   22       -8.547175
   23       -8.337476
   24       -8.337475
   25       -6.864492
   26       -6.864491
   27       -6.653471
   28       -6.653471
   29       -6.466018
   30       -6.466017
   31       -6.433512
   32       -6.433512
   33       -6.032202
   34       -6.032202
   35       -5.919298
   36       -5.919298
   37       -5.685901
   38       -5.685900
   39       -5.558972
   40       -5.558971
   41       -4.711648
   42       -4.711648
   43       -4.615736
   44       -4.615735
   45       -3.868967
   46       -3.868967
   47       -3.804706
   48       -3.804706
   49       -3.714765
   50       -3.714765
   51       -3.632770
   52       -3.632770
   53       -2.094676
   54       -2.094675
   55       -2.020558
   56       -2.020557
   57       -1.943937
   58       -1.943936
   59       -1.875275
   60       -1.875275
   61        2.869278
   62        2.869278
   63        2.926150
   64        2.926150
   65        3.222721
   66        3.222722
   67        3.276395
   68        3.276395
   69        4.955490
   70        4.955492
   71        5.438289
   72        5.438290
   73        5.835895
   74        5.835895
   75        6.194661
   76        6.194662
   77        6.560587
   78        6.560588
   79        6.801286
   80        6.801286
   81        6.994823
   82        6.994823
   83        7.390052
   84        7.390054
   85        7.637720
   86        7.637721
 
  0.0000000E+00  0.5000000E+00  0.2500000E+00  0.3125000E-01
    1      -16.851692
    2      -16.851690
    3      -16.769660
    4      -16.769658
    5      -14.080379
    6      -14.080378
    7      -14.030120
    8      -14.030120
    9      -14.003126
   10      -14.003125
   11      -13.950262
   12      -13.950262
   13      -10.487192
   14      -10.487191
   15      -10.435233
   16      -10.435232
   17      -10.337953
   18      -10.337953
   19      -10.286993