# Thermal properties / unit cell (natom)

unit:
  temperature:   K
  free_energy:   kJ/mol
  entropy:       J/K/mol
  heat_capacity: J/K/mol

natom:     4
num_modes: 3888
num_integrated_modes: 3874

zero_point_energy:      65.8015102
high_T_entropy:        229.5594001

thermal_properties:
- temperature:         0.0000000
  free_energy:        65.8015102
  entropy:             0.0000000
  heat_capacity:       0.0000000
  energy:             65.8015102

- temperature:        10.0000000
  free_energy:        65.8014952
  entropy:             0.0078048
  heat_capacity:       0.0270926
  energy:             65.8015732

- temperature:        20.0000000
  free_energy:        65.8012317
  entropy:             0.0489107
  heat_capacity:       0.1045892
  energy:             65.8022099

- temperature:        30.0000000
  free_energy:        65.8004430
  entropy:             0.1130353
  heat_capacity:       0.2332077
  energy:             65.8038341

- temperature:        40.0000000
  free_energy:        65.7988659
  entropy:             0.2087394
  heat_capacity:       0.4630189
  energy:             65.8072155

- temperature:        50.0000000
  free_energy:        65.7961230
  entropy:             0.3478175
  heat_capacity:       0.8179672
  energy:             65.8135139

- temperature:        60.0000000
  free_energy:        65.7917398
  entropy:             0.5376992
  heat_capacity:       1.3011085
  energy:             65.8240018

- temperature:        70.0000000
  free_energy:        65.7851853
  entropy:             0.7826706
  heat_capacity:       1.9151346
  energy:             65.8399722

- temperature:        80.0000000
  free_energy:        65.7758926
  entropy:             1.0857533
  heat_capacity:       2.6635570
  energy:             65.8627529

- temperature:        90.0000000
  free_energy:        65.7632691
  entropy:             1.4491454
  heat_capacity:       3.5464380
  energy:             65.8936922

- temperature:       100.0000000
  free_energy:        65.7467044
  entropy:             1.8740887
  heat_capacity:       4.5586507
  energy:             65.9341133

- temperature:       110.0000000
  free_energy:        65.7255815
  entropy:             2.3607480
  heat_capacity:       5.6903157
  energy:             65.9852637

- temperature:       120.0000000
  free_energy:        65.6992867
  entropy:             2.9082234
  heat_capacity:       6.9280637
  energy:             66.0482735

- temperature:       130.0000000
  free_energy:        65.6672203
  entropy:             3.5146685
  heat_capacity:       8.2564597
  energy:             66.1241273

- temperature:       140.0000000
  free_energy:        65.6288054
  entropy:             4.1774678
  heat_capacity:       9.6593320
  energy:             66.2136509

- temperature:       150.0000000
  free_energy:        65.5834937
  entropy:             4.8934375
  heat_capacity:      11.1208801
  energy:             66.3175093

- temperature:       160.0000000
  free_energy:        65.5307712
  entropy:             5.6590247
  heat_capacity:      12.6264939
  energy:             66.4362152

- temperature:       170.0000000
  free_energy:        65.4701603
  entropy:             6.4704856
  heat_capacity:      14.1632661
  energy:             66.5701429

- temperature:       180.0000000
  free_energy:        65.4012212
  entropy:             7.3240352
  heat_capacity:      15.7202265
  energy:             66.7195476

- temperature:       190.0000000
  free_energy:        65.3235517
  entropy:             8.2159617
  heat_capacity:      17.2883554
  energy:             66.8845844

- temperature:       200.0000000
  free_energy:        65.2367859
  entropy:             9.1427087
  heat_capacity:      18.8604428
  energy:             67.0653277

- temperature:       210.0000000
  free_energy:        65.1405926
  entropy:            10.1009282
  heat_capacity:      20.4308579
  energy:             67.2617876

- temperature:       220.0000000
  free_energy:        65.0346729
  entropy:            11.0875086
  heat_capacity:      21.9952804
  energy:             67.4739247

- temperature:       230.0000000
  free_energy:        64.9187575
  entropy:            12.0995855
  heat_capacity:      23.5504309
  energy:             67.7016622

- temperature:       240.0000000
  free_energy:        64.7926049
  entropy:            13.1345383
  heat_capacity:      25.0938258
  energy:             67.9448941

- temperature:       250.0000000
  free_energy:        64.6559985
  entropy:            14.1899786
  heat_capacity:      26.6235662
  energy:             68.2034931

- temperature:       260.0000000
  free_energy:        64.5087443
  entropy:            15.2637332
  heat_capacity:      28.1381682
  energy:             68.4773149

- temperature:       270.0000000
  free_energy:        64.3506694
  entropy:            16.3538246
  heat_capacity:      29.6364318
  energy:             68.7662020

- temperature:       280.0000000
  free_energy:        64.1816194
  entropy:            17.4584512
  heat_capacity:      31.1173447
  energy:             69.0699857

- temperature:       290.0000000
  free_energy:        64.0014574
  entropy:            18.5759679
  heat_capacity:      32.5800153
  energy:             69.3884881

- temperature:       300.0000000
  free_energy:        63.8100621
  entropy:            19.7048680
  heat_capacity:      34.0236295
  energy:             69.7215225

- temperature:       310.0000000
  free_energy:        63.6073267
  entropy:            20.8437674
  heat_capacity:      35.4474246
  energy:             70.0688946

- temperature:       320.0000000
  free_energy:        63.3931577
  entropy:            21.9913901
  heat_capacity:      36.8506765
  energy:             70.4304025

- temperature:       330.0000000
  free_energy:        63.1674738
  entropy:            23.1465563
  heat_capacity:      38.2326956
  energy:             70.8058374

- temperature:       340.0000000
  free_energy:        62.9302051
  entropy:            24.3081718
  heat_capacity:      39.5928281
  energy:             71.1949835

- temperature:       350.0000000
  free_energy:        62.6812922
  entropy:            25.4752191
  heat_capacity:      40.9304607
  energy:             71.5976189

- temperature:       360.0000000
  free_energy:        62.4206858
  entropy:            26.6467501
  heat_capacity:      42.2450267
  energy:             72.0135158

- temperature:       370.0000000
  free_energy:        62.1483453
  entropy:            27.8218800
  heat_capacity:      43.5360119
  energy:             72.4424408

- temperature:       380.0000000
  free_energy:        61.8642389
  entropy:            28.9997815
  heat_capacity:      44.8029604
  energy:             72.8841559

- temperature:       390.0000000
  free_energy:        61.5683430
  entropy:            30.1796811
  heat_capacity:      46.0454787
  energy:             73.3384186

- temperature:       400.0000000
  free_energy:        61.2606411
  entropy:            31.3608547
  heat_capacity:      47.2632396
  energy:             73.8049829

- temperature:       410.0000000
  free_energy:        60.9411239
  entropy:            32.5426247
  heat_capacity:      48.4559830
  energy:             74.2836000

- temperature:       420.0000000
  free_energy:        60.6097887
  entropy:            33.7243568
  heat_capacity:      49.6235173
  energy:             74.7740186

- temperature:       430.0000000
  free_energy:        60.2666389
  entropy:            34.9054582
  heat_capacity:      50.7657182
  energy:             75.2759859

- temperature:       440.0000000
  free_energy:        59.9116835
  entropy:            36.0853745
  heat_capacity:      51.8825270
  energy:             75.7892483

- temperature:       450.0000000
  free_energy:        59.5449371
  entropy:            37.2635883
  heat_capacity:      52.9739482
  energy:             76.3135518

- temperature:       460.0000000
  free_energy:        59.1664190
  entropy:            38.4396170
  heat_capacity:      54.0400464
  energy:             76.8486428

- temperature:       470.0000000
  free_energy:        58.7761535
  entropy:            39.6130111
  heat_capacity:      55.0809421
  energy:             77.3942687

- temperature:       480.0000000
  free_energy:        58.3741690
  entropy:            40.7833526
  heat_capacity:      56.0968079
  energy:             77.9501782

- temperature:       490.0000000
  free_energy:        57.9604979
  entropy:            41.9502536
  heat_capacity:      57.0878643
  energy:             78.5161222

- temperature:       500.0000000
  free_energy:        57.5351766
  entropy:            43.1133543
  heat_capacity:      58.0543750
  energy:             79.0918537

- temperature:       510.0000000
  free_energy:        57.0982446
  entropy:            44.2723221
  heat_capacity:      58.9966429
  energy:             79.6771289

- temperature:       520.0000000
  free_energy:        56.6497449
  entropy:            45.4268499
  heat_capacity:      59.9150050
  energy:             80.2717069

- temperature:       530.0000000
  free_energy:        56.1897234
  entropy:            46.5766550
  heat_capacity:      60.8098292
  energy:             80.8753505

- temperature:       540.0000000
  free_energy:        55.7182284
  entropy:            47.7214775
  heat_capacity:      61.6815094
  energy:             81.4878263

- temperature:       550.0000000
  free_energy:        55.2353112
  entropy:            48.8610795
  heat_capacity:      62.5304621
  energy:             82.1089049

- temperature:       560.0000000
  free_energy:        54.7410250
  entropy:            49.9952433
  heat_capacity:      63.3571225
  energy:             82.7383612

- temperature:       570.0000000
  free_energy:        54.2354251
  entropy:            51.1237709
  heat_capacity:      64.1619416
  energy:             83.3759746

- temperature:       580.0000000
  free_energy:        53.7185689
  entropy:            52.2464825
  heat_capacity:      64.9453826
  energy:             84.0215288

- temperature:       590.0000000
  free_energy:        53.1905154
  entropy:            53.3632155
  heat_capacity:      65.7079184
  energy:             84.6748125

- temperature:       600.0000000
  free_energy:        52.6513251
  entropy:            54.4738234
  heat_capacity:      66.4500288
  energy:             85.3356191

- temperature:       610.0000000
  free_energy:        52.1010598
  entropy:            55.5781751
  heat_capacity:      67.1721983
  energy:             86.0037466

- temperature:       620.0000000
  free_energy:        51.5397828
  entropy:            56.6761539
  heat_capacity:      67.8749137
  energy:             86.6789982

- temperature:       630.0000000
  free_energy:        50.9675583
  entropy:            57.7676562
  heat_capacity:      68.5586625
  energy:             87.3611817

- temperature:       640.0000000
  free_energy:        50.3844516
  entropy:            58.8525911
  heat_capacity:      69.2239312
  energy:             88.0501099

- temperature:       650.0000000
  free_energy:        49.7905286
  entropy:            59.9308795
  heat_capacity:      69.8712037
  energy:             88.7456003

- temperature:       660.0000000
  free_energy:        49.1858564
  entropy:            61.0024533
  heat_capacity:      70.5009596
  energy:             89.4474755

- temperature:       670.0000000
  free_energy:        48.5705022
  entropy:            62.0672546
  heat_capacity:      71.1136740
  energy:             90.1555627

- temperature:       680.0000000
  free_energy:        47.9445340
  entropy:            63.1252350
  heat_capacity:      71.7098155
  energy:             90.8696938

- temperature:       690.0000000
  free_energy:        47.3080203
  entropy:            64.1763551
  heat_capacity:      72.2898460
  energy:             91.5897053

- temperature:       700.0000000
  free_energy:        46.6610299
  entropy:            65.2205838
  heat_capacity:      72.8542197
  energy:             92.3154385

- temperature:       710.0000000
  free_energy:        46.0036317
  entropy:            66.2578976
  heat_capacity:      73.4033827
  energy:             93.0467390

- temperature:       720.0000000
  free_energy:        45.3358950
  entropy:            67.2882804
  heat_capacity:      73.9377721
  energy:             93.7834569

- temperature:       730.0000000
  free_energy:        44.6578892
  entropy:            68.3117225
  heat_capacity:      74.4578162
  energy:             94.5254466

- temperature:       740.0000000
  free_energy:        43.9696837
  entropy:            69.3282204
  heat_capacity:      74.9639335
  energy:             95.2725668

- temperature:       750.0000000
  free_energy:        43.2713480
  entropy:            70.3377764
  heat_capacity:      75.4565331
  energy:             96.0246803

- temperature:       760.0000000
  free_energy:        42.5629513
  entropy:            71.3403979
  heat_capacity:      75.9360139
  energy:             96.7816538

- temperature:       770.0000000
  free_energy:        41.8445631
  entropy:            72.3360974
  heat_capacity:      76.4027650
  energy:             97.5433581

- temperature:       780.0000000
  free_energy:        41.1162524
  entropy:            73.3248917
  heat_capacity:      76.8571655
  energy:             98.3096679

- temperature:       790.0000000
  free_energy:        40.3780882
  entropy:            74.3068016
  heat_capacity:      77.2995842
  energy:             99.0804615

- temperature:       800.0000000
  free_energy:        39.6301392
  entropy:            75.2818520
  heat_capacity:      77.7303800
  energy:             99.8556208

- temperature:       810.0000000
  free_energy:        38.8724739
  entropy:            76.2500711
  heat_capacity:      78.1499016
  energy:            100.6350315

- temperature:       820.0000000
  free_energy:        38.1051605
  entropy:            77.2114902
  heat_capacity:      78.5584881
  energy:            101.4185824

- temperature:       830.0000000
  free_energy:        37.3282667
  entropy:            78.1661437
  heat_capacity:      78.9564685
  energy:            102.2061659

- temperature:       840.0000000
  free_energy:        36.5418600
  entropy:            79.1140684
  heat_capacity:      79.3441622
  energy:            102.9976775

- temperature:       850.0000000
  free_energy:        35.7460076
  entropy:            80.0553039
  heat_capacity:      79.7218792
  energy:            103.7930159

- temperature:       860.0000000
  free_energy:        34.9407761
  entropy:            80.9898915
  heat_capacity:      80.0899200
  energy:            104.5920828

- temperature:       870.0000000
  free_energy:        34.1262318
  entropy:            81.9178750
  heat_capacity:      80.4485760
  energy:            105.3947830

- temperature:       880.0000000
  free_energy:        33.3024405
  entropy:            82.8392995
  heat_capacity:      80.7981296
  energy:            106.2010240

- temperature:       890.0000000
  free_energy:        32.4694675
  entropy:            83.7542120
  heat_capacity:      81.1388545
  energy:            107.0107162

- temperature:       900.0000000
  free_energy:        31.6273778
  entropy:            84.6626609
  heat_capacity:      81.4710157
  energy:            107.8237726

- temperature:       910.0000000
  free_energy:        30.7762357
  entropy:            85.5646958
  heat_capacity:      81.7948699
  energy:            108.6401088

- temperature:       920.0000000
  free_energy:        29.9161051
  entropy:            86.4603674
  heat_capacity:      82.1106658
  energy:            109.4596431

- temperature:       930.0000000
  free_energy:        29.0470494
  entropy:            87.3497276
  heat_capacity:      82.4186440
  energy:            110.2822961

- temperature:       940.0000000
  free_energy:        28.1691314
  entropy:            88.2328291
  heat_capacity:      82.7190375
  energy:            111.1079907

- temperature:       950.0000000
  free_energy:        27.2824135
  entropy:            89.1097251
  heat_capacity:      83.0120718
  energy:            111.9366523

- temperature:       960.0000000
  free_energy:        26.3869574
  entropy:            89.9804697
  heat_capacity:      83.2979650
  energy:            112.7682083

- temperature:       970.0000000
  free_energy:        25.4828244
  entropy:            90.8451176
  heat_capacity:      83.5769283
  energy:            113.6025885

- temperature:       980.0000000
  free_energy:        24.5700752
  entropy:            91.7037238
  heat_capacity:      83.8491661
  energy:            114.4397245

- temperature:       990.0000000
  free_energy:        23.6487699
  entropy:            92.5563436
  heat_capacity:      84.1148760
  energy:            115.2795500

- temperature:      1000.0000000
  free_energy:        22.7189681
  entropy:            93.4030328
  heat_capacity:      84.3742494
  energy:            116.1220009
