benzene                                 
           1
     7.451787    0.000000    0.000000
     0.000000    9.494317    0.000000
     0.000000    0.000000    6.788168
   C    H 
  24  24
Direct configuration=     1
   0.94599998  0.13760001  0.99980003
   0.05400000  0.86239999  0.00020000
   0.55400002  0.86239999  0.49980000
   0.44600001  0.13760001  0.50019997
   0.05400000  0.63760001  0.50019997
   0.94599998  0.36239999  0.49980000
   0.44600001  0.36239999  0.00020000
   0.55400002  0.63760001  0.99980003
   0.07680000  0.09030000  0.13240001
   0.92320001  0.90969998  0.86759996
   0.42320001  0.90969998  0.63240004
   0.57679999  0.09030000  0.36759999
   0.92320001  0.59030002  0.36759999
   0.07680000  0.40970001  0.63240004
   0.57679999  0.40970001  0.86759996
   0.42320001  0.59030002  0.13240001
   0.87000001  0.04540000  0.87180000
   0.12999999  0.95459998  0.12820000
   0.62999999  0.95459998  0.37180000
   0.37000001  0.04540000  0.62820000
   0.12999999  0.54540002  0.62820000
   0.87000001  0.45460001  0.37180000
   0.37000001  0.45460001  0.12820000
   0.62999999  0.54540002  0.87180000
   0.91119999  0.23160000  0.99910003
   0.08880000  0.76840001  0.00090000
   0.58880001  0.76840001  0.49910000
   0.41119999  0.23160000  0.50089997
   0.08880000  0.73159999  0.50089997
   0.91119999  0.26840001  0.49910000
   0.41119999  0.26840001  0.00090000
   0.58880001  0.73159999  0.99910003
   0.12650000  0.15199999  0.22240000
   0.87349999  0.84799999  0.77759999
   0.37349999  0.84799999  0.72240001
   0.62650001  0.15199999  0.27759999
   0.87349999  0.65200001  0.27759999
   0.12650000  0.34799999  0.72240001
   0.62650001  0.34799999  0.77759999
   0.37349999  0.65200001  0.22240000
   0.78079999  0.07640000  0.78670001
   0.21920000  0.92360002  0.21330001
   0.71920001  0.92360002  0.28670001
   0.28079999  0.07640000  0.71329999
   0.21920000  0.57639998  0.71329999
   0.78079999  0.42360002  0.28670001
   0.28079999  0.42360002  0.21330001
   0.71920001  0.57639998  0.78670001
Direct configuration=     2
   0.96592830  0.10284833  0.00935531
   0.03407168  0.89715167 -0.00935528
   0.53407170  0.89715167  0.50935528
   0.46592833  0.10284833  0.49064469
   0.03407168  0.60284833  0.49064469
   0.96592830  0.39715167  0.50935528
   0.46592833  0.39715167 -0.00935528
   0.53407170  0.60284833  0.00935531
   0.04995813  0.07368053  0.09078427
   0.95004188  0.92631945  0.90921570
   0.45004188  0.92631945  0.59078430
   0.54995812  0.07368053  0.40921573
   0.95004188  0.57368055  0.40921573
   0.04995813  0.42631948  0.59078430
   0.54995812  0.42631948  0.90921570
   0.45004188  0.57368055  0.09078427
   0.90030443  0.03718491  0.90070847
   0.09969557  0.96281507  0.09929153
   0.59969557  0.96281507  0.40070847
   0.40030443  0.03718491  0.59929153
   0.09969557  0.53718493  0.59929153
   0.90030443  0.46281510  0.40070847
   0.40030443  0.46281510  0.09929153
   0.59969557  0.53718493  0.90070847
   0.89543928  0.27412481  0.99976803
   0.10456070  0.72587520  0.00023200
   0.60456072  0.72587520  0.49976800
   0.39543928  0.27412481  0.50023197
   0.10456070  0.77412480  0.50023197
   0.89543928  0.22587520  0.49976800
   0.39543928  0.22587520  0.00023200
   0.60456072  0.77412480  0.99976803
   0.15036844  0.18182643  0.26488784
   0.84963154  0.81817355  0.73511215
   0.34963154  0.81817355  0.76488785
   0.65036846  0.18182643  0.23511215
   0.84963154  0.68182645  0.23511215
   0.15036844  0.31817355  0.76488785
   0.65036846  0.31817355  0.73511215
   0.34963154  0.68182645  0.26488784
   0.74025491  0.09045373  0.74714680
   0.25974508  0.90954628  0.25285321
   0.75974509  0.90954628  0.24714680
   0.24025491  0.09045373  0.75285320
   0.25974508  0.59045372  0.75285320
   0.74025491  0.40954628  0.24714680
   0.24025491  0.40954628  0.25285321
   0.75974509  0.59045372  0.74714680
Direct configuration=     3
   0.95014581  0.13037037  0.00178788
   0.04985417  0.86962963 -0.00178785
   0.54985419  0.86962963  0.50178785
   0.45014584  0.13037037  0.49821212
   0.04985417  0.63037037  0.49821212
   0.95014581  0.36962963  0.50178785
   0.45014584  0.36962963 -0.00178785
   0.54985419  0.63037037  0.00178788
   0.07121590  0.08684254  0.12374240
   0.92878411  0.91315744  0.87625757
   0.42878411  0.91315744  0.62374243
   0.57121589  0.08684254  0.37625760
   0.92878411  0.58684256  0.37625760
   0.07121590  0.41315747  0.62374243
   0.57121589  0.41315747  0.87625757
   0.42878411  0.58684256  0.12374240
   0.87630445  0.04369096  0.87781403
   0.12369555  0.95630902  0.12218597
   0.62369555  0.95630902  0.37781403
   0.37630445  0.04369096  0.62218597
   0.12369555  0.54369098  0.62218597
   0.87630445  0.45630905  0.37781403
   0.37630445  0.45630905  0.12218597
   0.62369555  0.54369098  0.87781403
   0.90792118  0.24044673  0.99923900
   0.09207881  0.75955328  0.00076103
   0.59207882  0.75955328  0.49923897
   0.40792118  0.24044673  0.50076100
   0.09207881  0.74044672  0.50076100
   0.90792118  0.25955328  0.49923897
   0.40792118  0.25955328  0.00076103
   0.59207882  0.74044672  0.99923900
   0.13146551  0.15820500  0.23123904
   0.86853447  0.84179499  0.76876095
   0.36853447  0.84179499  0.73123905
   0.63146553  0.15820500  0.26876095
   0.86853447  0.65820501  0.26876095
   0.13146551  0.34179499  0.73123905
   0.63146553  0.34179499  0.76876095
   0.36853447  0.65820501  0.23123904
   0.77236511  0.07932369  0.77847148
   0.22763487  0.92067632  0.22152853
   0.72763489  0.92067632  0.27847148
   0.27236511  0.07932369  0.72152852
   0.22763487  0.57932368  0.72152852
   0.77236511  0.42067632  0.27847148
   0.27236511  0.42067632  0.22152853
   0.72763489  0.57932368  0.77847148
Direct configuration=     4
   0.94912401  0.13215221  0.00129795
   0.05087597  0.86784779 -0.00129792
   0.55087599  0.86784779  0.50129792
   0.44912404  0.13215221  0.49870205
   0.05087597  0.63215221  0.49870205
   0.94912401  0.36784779  0.50129792
   0.44912404  0.36784779 -0.00129792
   0.55087599  0.63215221  0.00129795
   0.07259218  0.08769468  0.12587618
   0.92740784  0.91230530  0.87412379
   0.42740784  0.91230530  0.62587621
   0.57259216  0.08769468  0.37412382
   0.92740784  0.58769470  0.37412382
   0.07259218  0.41230533  0.62587621
   0.57259216  0.41230533  0.87412379
   0.42740784  0.58769470  0.12587618
   0.87475063  0.04411218  0.87633180
   0.12524937  0.95588780  0.12366820
   0.62524937  0.95588780  0.37633180
   0.37475063  0.04411218  0.62366820
   0.12524937  0.54411220  0.62366820
   0.87475063  0.45588783  0.37633180
   0.37475063  0.45588783  0.12366820
   0.62524937  0.54411220  0.87633180
   0.90872928  0.23826634  0.99920475
   0.09127070  0.76173368  0.00079528
   0.59127072  0.76173368  0.49920472
   0.40872928  0.23826634  0.50079525
   0.09127070  0.73826632  0.50079525
   0.90872928  0.26173368  0.49920472
   0.40872928  0.26173368  0.00079528
   0.59127072  0.73826632  0.99920475
   0.13024170  0.15667569  0.22906054
   0.86975829  0.84332429  0.77093945
   0.36975829  0.84332429  0.72906055
   0.63024171  0.15667569  0.27093945
   0.86975829  0.65667571  0.27093945
   0.13024170  0.34332429  0.72906055
   0.63024171  0.34332429  0.77093945
   0.36975829  0.65667571  0.22906054
   0.77444400  0.07860311  0.78049951
   0.22555599  0.92139691  0.21950050
   0.72555600  0.92139691  0.28049951
   0.27444400  0.07860311  0.71950049
   0.22555599  0.57860309  0.71950049
   0.77444400  0.42139691  0.28049951
   0.27444400  0.42139691  0.21950050
   0.72555600  0.57860309  0.78049951
Direct configuration=     5
   0.94886132  0.13261030  0.00117199
   0.05113866  0.86738970 -0.00117196
   0.55113868  0.86738970  0.50117196
   0.44886135  0.13261030  0.49882801
   0.05113866  0.63261030  0.49882801
   0.94886132  0.36738970  0.50117196
   0.44886135  0.36738970 -0.00117196
   0.55113868  0.63261030  0.00117199
   0.07294601  0.08791375  0.12642475
   0.92705401  0.91208623  0.87357522
   0.42705401  0.91208623  0.62642478
   0.57294599  0.08791375  0.37357525
   0.92705401  0.58791377  0.37357525
   0.07294601  0.41208626  0.62642478
   0.57294599  0.41208626  0.87357522
   0.42705401  0.58791377  0.12642475
   0.87435116  0.04422047  0.87595073
   0.12564884  0.95577951  0.12404927
   0.62564884  0.95577951  0.37595073
   0.37435116  0.04422047  0.62404927
   0.12564884  0.54422049  0.62404927
   0.87435116  0.45577954  0.37595073
   0.37435116  0.45577954  0.12404927
   0.62564884  0.54422049  0.87595073
   0.90893704  0.23770578  0.99919594
   0.09106295  0.76229423  0.00080409
   0.59106296  0.76229423  0.49919591
   0.40893704  0.23770578  0.50080406
   0.09106295  0.73770577  0.50080406
   0.90893704  0.26229423  0.49919591
   0.40893704  0.26229423  0.00080409
   0.59106296  0.73770577  0.99919594
   0.12992707  0.15628252  0.22850047
   0.87007292  0.84371746  0.77149952
   0.37007292  0.84371746  0.72850048
   0.62992708  0.15628252  0.27149952
   0.87007292  0.65628254  0.27149952
   0.12992707  0.34371746  0.72850048
   0.62992708  0.34371746  0.77149952
   0.37007292  0.65628254  0.22850047
   0.77497846  0.07841785  0.78102090
   0.22502153  0.92158216  0.21897912
   0.72502154  0.92158216  0.28102090
   0.27497846  0.07841785  0.71897910
   0.22502153  0.57841784  0.71897910
   0.77497846  0.42158216  0.28102090
   0.27497846  0.42158216  0.21897912
   0.72502154  0.57841784  0.78102090
Direct configuration=     6
   0.94731440  0.14151399  0.00419123
   0.05268558  0.85848601 -0.00419121
   0.55268560  0.85848601  0.50419121
   0.44731443  0.14151399  0.49580877
   0.05268558  0.64151399  0.49580877
   0.94731440  0.35848601  0.50419121
   0.44731443  0.35848601 -0.00419121
   0.55268560  0.64151399  0.00419123
   0.07578877  0.09618294  0.13270244
   0.92421125  0.90381703  0.86729753
   0.42421125  0.90381703  0.63270247
   0.57578875  0.09618294  0.36729756
   0.92421125  0.59618297  0.36729756
   0.07578877  0.40381706  0.63270247
   0.57578875  0.40381706  0.86729753
   0.42421125  0.59618297  0.13270244
   0.86755440  0.04756588  0.86893746
   0.13244560  0.95243410  0.13106254
   0.63244560  0.95243410  0.36893746
   0.36755440  0.04756588  0.63106254
   0.13244560  0.54756590  0.63106254
   0.86755440  0.45243413  0.36893746
   0.36755440  0.45243413  0.13106254
   0.63244560  0.54756590  0.86893746
   0.90491273  0.24893908  0.00010468
   0.09508725  0.75106094 -0.00010465
   0.59508727  0.75106094  0.50010465
   0.40491273  0.24893908  0.49989532
   0.09508725  0.74893906  0.49989532
   0.90491273  0.25106094  0.50010465
   0.40491273  0.25106094 -0.00010465
   0.59508727  0.74893906  0.00010468
   0.13600902  0.16428066  0.23905515
   0.86399097  0.83571932  0.76094484
   0.36399097  0.83571932  0.73905516
   0.63600903  0.16428066  0.26094484
   0.86399097  0.66428068  0.26094484
   0.13600902  0.33571932  0.73905516
   0.63600903  0.33571932  0.76094484
   0.36399097  0.66428068  0.23905515
   0.76340580  0.08243041  0.76929743
   0.23659418  0.91756960  0.23070258
   0.73659420  0.91756960  0.26929743
   0.26340580  0.08243041  0.73070257
   0.23659418  0.58243040  0.73070257
   0.76340580  0.41756960  0.26929743
   0.26340580  0.41756960  0.23070258
   0.73659420  0.58243040  0.76929743
Direct configuration=     7
   0.94739499  0.14105010  0.00403393
   0.05260499  0.85894990 -0.00403390
   0.55260501  0.85894990  0.50403390
   0.44739502  0.14105010  0.49596607
   0.05260499  0.64105010  0.49596607
   0.94739499  0.35894990  0.50403390
   0.44739502  0.35894990 -0.00403390
   0.55260501  0.64105010  0.00403393
   0.07564066  0.09575211  0.13237537
   0.92435936  0.90424787  0.86762460
   0.42435936  0.90424787  0.63237540
   0.57564064  0.09575211  0.36762463
   0.92435936  0.59575213  0.36762463
   0.07564066  0.40424790  0.63237540
   0.57564064  0.40424790  0.86762460
   0.42435936  0.59575213  0.13237537
   0.86790852  0.04739158  0.86930286
   0.13209148  0.95260840  0.13069714
   0.63209148  0.95260840  0.36930286
   0.36790852  0.04739158  0.63069714
   0.13209148  0.54739160  0.63069714
   0.86790852  0.45260843  0.36930286
   0.36790852  0.45260843  0.13069714
   0.63209148  0.54739160  0.86930286
   0.90512241  0.24835381  0.00005734
   0.09487758  0.75164621 -0.00005731
   0.59487759  0.75164621  0.50005731
   0.40512241  0.24835381  0.49994266
   0.09487758  0.74835379  0.49994266
   0.90512241  0.25164621  0.50005731
   0.40512241  0.25164621 -0.00005731
   0.59487759  0.74835379  0.00005734
   0.13569214  0.16386395  0.23850523
   0.86430784  0.83613603  0.76149475
   0.36430784  0.83613603  0.73850525
   0.63569216  0.16386395  0.26149475
   0.86430784  0.66386397  0.26149475
   0.13569214  0.33613603  0.73850525
   0.63569216  0.33613603  0.76149475
   0.36430784  0.66386397  0.23850523
   0.76400875  0.08222135  0.76990824
   0.23599123  0.91777866  0.23009177
   0.73599125  0.91777866  0.26990824
   0.26400875  0.08222135  0.73009176
   0.23599123  0.58222134  0.73009176
   0.76400875  0.41777866  0.26990824
   0.26400875  0.41777866  0.23009177
   0.73599125  0.58222134  0.76990824
Direct configuration=     8
   0.94115919  0.14269866 -0.00227546
   0.05884079  0.85730134  0.00227549
   0.55884081  0.85730134  0.49772451
   0.44115922  0.14269866  0.50227546
   0.05884079  0.64269866  0.50227546
   0.94115919  0.35730134  0.49772451
   0.44115922  0.35730134  0.00227549
   0.55884081  0.64269866 -0.00227546
   0.08260482  0.09081421  0.13777870
   0.91739519  0.90918576  0.86222127
   0.41739519  0.90918576  0.63777873
   0.58260481  0.09081421  0.36222130
   0.91739519  0.59081424  0.36222130
   0.08260482  0.40918579  0.63777873
   0.58260481  0.40918579  0.86222127
   0.41739519  0.59081424  0.13777870
   0.86947850  0.04505543  0.86982938
   0.13052150  0.95494455  0.13017062
   0.63052150  0.95494455  0.36982938
   0.36947850  0.04505543  0.63017062
   0.13052150  0.54505545  0.63017062
   0.86947850  0.45494458  0.36982938
   0.36947850  0.45494458  0.13017062
   0.63052150  0.54505545  0.86982938
   0.90246809  0.25618712  0.00126989
   0.09753190  0.74381289 -0.00126986
   0.59753191  0.74381289  0.50126986
   0.40246809  0.25618712  0.49873011
   0.09753190  0.75618711  0.49873011
   0.90246809  0.24381289  0.50126986
   0.40246809  0.24381289 -0.00126986
   0.59753191  0.75618711  0.00126989
   0.13961589  0.16952157  0.24523473
   0.86038409  0.83047842  0.75476525
   0.36038409  0.83047842  0.74523475
   0.63961591  0.16952157  0.25476525
   0.86038409  0.66952158  0.25476525
   0.13961589  0.33047842  0.74523475
   0.63961591  0.33047842  0.75476525
   0.36038409  0.66952158  0.24523473
   0.75845342  0.08418609  0.76394915
   0.24154656  0.91581392  0.23605086
   0.74154658  0.91581392  0.26394915
   0.25845342  0.08418609  0.73605085
   0.24154656  0.58418608  0.73605085
   0.75845342  0.41581392  0.26394915
   0.25845342  0.41581392  0.23605086
   0.74154658  0.58418608  0.76394915
Direct configuration=     9
   0.94566074  0.14150859  0.00227921
   0.05433924  0.85849141 -0.00227918
   0.55433926  0.85849141  0.50227918
   0.44566077  0.14150859  0.49772079
   0.05433924  0.64150859  0.49772079
   0.94566074  0.35849141  0.50227918
   0.44566077  0.35849141 -0.00227918
   0.55433926  0.64150859  0.00227921
   0.07757748  0.09437882  0.13387810
   0.92242253  0.90562116  0.86612187
   0.42242253  0.90562116  0.63387813
   0.57757747  0.09437882  0.36612190
   0.92242253  0.59437884  0.36612190
   0.07757748  0.40562119  0.63387813
   0.57757747  0.40562119  0.86612187
   0.42242253  0.59437884  0.13387810
   0.86834515  0.04674186  0.86944929
   0.13165485  0.95325811  0.13055071
   0.63165485  0.95325811  0.36944929
   0.36834515  0.04674186  0.63055071
   0.13165485  0.54674189  0.63055071
   0.86834515  0.45325814  0.36944929
   0.36834515  0.45325814  0.13055071
   0.63165485  0.54674189  0.86944929
   0.90438421  0.25053235  0.00039456
   0.09561578  0.74946766 -0.00039453
   0.59561579  0.74946766  0.50039453
   0.40438421  0.25053235  0.49960544
   0.09561578  0.75053234  0.49960544
   0.90438421  0.24946766  0.50039453
   0.40438421  0.24946766 -0.00039453
   0.59561579  0.75053234  0.00039456
   0.13678339  0.16543741  0.24037679
   0.86321660  0.83456258  0.75962319
   0.36321660  0.83456258  0.74037681
   0.63678340  0.16543741  0.25962319
   0.86321660  0.66543742  0.25962319
   0.13678339  0.33456258  0.74037681
   0.63678340  0.33456258  0.75962319
   0.36321660  0.66543742  0.24037679
   0.76246374  0.08276777  0.76825094
   0.23753624  0.91723224  0.23174907
   0.73753626  0.91723224  0.26825094
   0.26246374  0.08276777  0.73174906
   0.23753624  0.58276776  0.73174906
   0.76246374  0.41723224  0.26825094
   0.26246374  0.41723224  0.23174907
   0.73753626  0.58276776  0.76825094
Direct configuration=    10
   0.94625631  0.14004317  0.00215604
   0.05374367  0.85995683 -0.00215602
   0.55374369  0.85995683  0.50215601
   0.44625634  0.14004317  0.49784396
   0.05374367  0.64004317  0.49784396
   0.94625631  0.35995683  0.50215601
   0.44625634  0.35995683 -0.00215602
   0.55374369  0.64004317  0.00215604
   0.07719617  0.09339728  0.13301563
   0.92280384  0.90660270  0.86698434
   0.42280384  0.90660270  0.63301566
   0.57719616  0.09339728  0.36698437
   0.92280384  0.59339730  0.36698437
   0.07719617  0.40660273  0.63301566
   0.57719616  0.40660273  0.86698434
   0.42280384  0.59339730  0.13301563
   0.86720765  0.04684662  0.86838146
   0.13279235  0.95315336  0.13161854
   0.63279235  0.95315336  0.36838146
   0.36720765  0.04684662  0.63161854
   0.13279235  0.54684664  0.63161854
   0.86720765  0.45315338  0.36838146
   0.36720765  0.45315338  0.13161854
   0.63279235  0.54684664  0.86838146
   0.90373250  0.25225440  0.00095093
   0.09626749  0.74774562 -0.00095090
   0.59626750  0.74774562  0.50095090
   0.40373250  0.25225440  0.49904907
   0.09626749  0.75225438  0.49904907
   0.90373250  0.24774562  0.50095090
   0.40373250  0.24774562 -0.00095090
   0.59626750  0.75225438  0.00095093
   0.13751428  0.16645189  0.24129490
   0.86248571  0.83354810  0.75870509
   0.36248571  0.83354810  0.74129491
   0.63751429  0.16645189  0.25870509
   0.86248571  0.66645190  0.25870509
   0.13751428  0.33354810  0.74129491
   0.63751429  0.33354810  0.75870509
   0.36248571  0.66645190  0.24129490
   0.76325803  0.08246668  0.76860494
   0.23674195  0.91753333  0.23139507
   0.73674197  0.91753333  0.26860494
   0.26325803  0.08246668  0.73139506
   0.23674195  0.58246667  0.73139506
   0.76325803  0.41753333  0.26860494
   0.26325803  0.41753333  0.23139507
   0.73674197  0.58246667  0.76860494
Direct configuration=    11
   0.94587908  0.14097134  0.00223405
   0.05412090  0.85902866 -0.00223403
   0.55412092  0.85902866  0.50223402
   0.44587911  0.14097134  0.49776595
   0.05412090  0.64097134  0.49776595
   0.94587908  0.35902866  0.50223402
   0.44587911  0.35902866 -0.00223403
   0.55412092  0.64097134  0.00223405
   0.07743769  0.09401897  0.13356191
   0.92256233  0.90598101  0.86643806
   0.42256233  0.90598101  0.63356194
   0.57743767  0.09401897  0.36643809
   0.92256233  0.59401899  0.36643809
   0.07743769  0.40598104  0.63356194
   0.57743767  0.40598104  0.86643806
   0.42256233  0.59401899  0.13356191
   0.86792812  0.04678027  0.86905781
   0.13207188  0.95321971  0.13094219
   0.63207188  0.95321971  0.36905781
   0.36792812  0.04678027  0.63094219
   0.13207188  0.54678029  0.63094219
   0.86792812  0.45321974  0.36905781
   0.36792812  0.45321974  0.13094219
   0.63207188  0.54678029  0.86905781
   0.90414528  0.25116368  0.00059853
   0.09585471  0.74883633 -0.00059850
   0.59585472  0.74883633  0.50059850
   0.40414528  0.25116368  0.49940147
   0.09585471  0.75116367  0.49940147
   0.90414528  0.24883633  0.50059850
   0.40414528  0.24883633 -0.00059850
   0.59585472  0.75116367  0.00059853
   0.13705134  0.16580933  0.24071339
   0.86294864  0.83419065  0.75928660
   0.36294864  0.83419065  0.74071340
   0.63705136  0.16580933  0.25928660
   0.86294864  0.66580935  0.25928660
   0.13705134  0.33419065  0.74071340
   0.63705136  0.33419065  0.75928660
   0.36294864  0.66580935  0.24071339
   0.76275494  0.08265739  0.76838072
   0.23724504  0.91734263  0.23161929
   0.73724506  0.91734263  0.26838072
   0.26275494  0.08265739  0.73161928
   0.23724504  0.58265737  0.73161928
   0.76275494  0.41734263  0.26838072
   0.26275494  0.41734263  0.23161929
   0.73724506  0.58265737  0.76838072
Direct configuration=    12
   0.94579827  0.14103768  0.00205274
   0.05420171  0.85896232 -0.00205271
   0.55420173  0.85896232  0.50205271
   0.44579830  0.14103768  0.49794726
   0.05420171  0.64103768  0.49794726
   0.94579827  0.35896232  0.50205271
   0.44579830  0.35896232 -0.00205271
   0.55420173  0.64103768  0.00205274
   0.07760788  0.09408339  0.13383095
   0.92239213  0.90591659  0.86616902
   0.42239213  0.90591659  0.63383098
   0.57760787  0.09408339  0.36616905
   0.92239213  0.59408341  0.36616905
   0.07760788  0.40591662  0.63383098
   0.57760787  0.40591662  0.86616902
   0.42239213  0.59408341  0.13383095
   0.86755223  0.04692290  0.86881533
   0.13244777  0.95307708  0.13118467
   0.63244777  0.95307708  0.36881533
   0.36755223  0.04692290  0.63118467
   0.13244777  0.54692292  0.63118467
   0.86755223  0.45307710  0.36881533
   0.36755223  0.45307710  0.13118467
   0.63244777  0.54692292  0.86881533
   0.90414619  0.25122244  0.00108687
   0.09585380  0.74877758 -0.00108684
   0.59585381  0.74877758  0.50108684
   0.40414619  0.25122244  0.49891313
   0.09585380  0.75122242  0.49891313
   0.90414619  0.24877758  0.50108684
   0.40414619  0.24877758 -0.00108684
   0.59585381  0.75122242  0.00108687
   0.13704527  0.16594281  0.24040548
   0.86295472  0.83405717  0.75959450
   0.36295472  0.83405717  0.74040550
   0.63704528  0.16594281  0.25959450
   0.86295472  0.66594283  0.25959450
   0.13704527  0.33405717  0.74040550
   0.63704528  0.33405717  0.75959450
   0.36295472  0.66594283  0.24040548
   0.76321194  0.08247358  0.76849785
   0.23678804  0.91752643  0.23150217
   0.73678806  0.91752643  0.26849785
   0.26321194  0.08247358  0.73150215
   0.23678804  0.58247357  0.73150215
   0.76321194  0.41752643  0.26849785
   0.26321194  0.41752643  0.23150217
   0.73678806  0.58247357  0.76849785
Direct configuration=    13
   0.94582922  0.14101227  0.00212218
   0.05417076  0.85898773 -0.00212215
   0.55417078  0.85898773  0.50212215
   0.44582925  0.14101227  0.49787782
   0.05417076  0.64101227  0.49787782
   0.94582922  0.35898773  0.50212215
   0.44582925  0.35898773 -0.00212215
   0.55417078  0.64101227  0.00212218
   0.07754270  0.09405872  0.13372791
   0.92245731  0.90594126  0.86627206
   0.42245731  0.90594126  0.63372794
   0.57754269  0.09405872  0.36627209
   0.92245731  0.59405874  0.36627209
   0.07754270  0.40594129  0.63372794
   0.57754269  0.40594129  0.86627206
   0.42245731  0.59405874  0.13372791
   0.86769619  0.04686828  0.86890820
   0.13230381  0.95313170  0.13109180
   0.63230381  0.95313170  0.36890820
   0.36769619  0.04686828  0.63109180
   0.13230381  0.54686830  0.63109180
   0.86769619  0.45313173  0.36890820
   0.36769619  0.45313173  0.13109180
   0.63230381  0.54686830  0.86890820
   0.90414584  0.25119993  0.00089984
   0.09585414  0.74880008 -0.00089981
   0.59585416  0.74880008  0.50089981
   0.40414584  0.25119993  0.49910016
   0.09585414  0.75119992  0.49910016
   0.90414584  0.24880008  0.50089981
   0.40414584  0.24880008 -0.00089981
   0.59585416  0.75119992  0.00089984
   0.13704759  0.16589169  0.24052340
   0.86295239  0.83410829  0.75947658
   0.36295239  0.83410829  0.74052342
   0.63704761  0.16589169  0.25947658
   0.86295239  0.66589171  0.25947658
   0.13704759  0.33410829  0.74052342
   0.63704761  0.33410829  0.75947658
   0.36295239  0.66589171  0.24052340
   0.76303692  0.08254398  0.76845299
   0.23696307  0.91745604  0.23154703
   0.73696308  0.91745604  0.26845299
   0.26303692  0.08254398  0.73154701
   0.23696307  0.58254396  0.73154701
   0.76303692  0.41745604  0.26845299
   0.26303692  0.41745604  0.23154703
   0.73696308  0.58254396  0.76845299
Direct configuration=    14
   0.94585262  0.14106881  0.00208336
   0.05414737  0.85893119 -0.00208334
   0.55414738  0.85893119  0.50208334
   0.44585265  0.14106881  0.49791664
   0.05414737  0.64106881  0.49791664
   0.94585262  0.35893119  0.50208334
   0.44585265  0.35893119 -0.00208334
   0.55414738  0.64106881  0.00208336
   0.07756286  0.09400649  0.13372497
   0.92243716  0.90599348  0.86627500
   0.42243716  0.90599348  0.63372500
   0.57756284  0.09400649  0.36627503
   0.92243716  0.59400652  0.36627503
   0.07756286  0.40599351  0.63372500
   0.57756284  0.40599351  0.86627500
   0.42243716  0.59400652  0.13372497
   0.86773652  0.04679730  0.86901776
   0.13226348  0.95320268  0.13098224
   0.63226348  0.95320268  0.36901776
   0.36773652  0.04679730  0.63098224
   0.13226348  0.54679732  0.63098224
   0.86773652  0.45320270  0.36901776
   0.36773652  0.45320270  0.13098224
   0.63226348  0.54679732  0.86901776
   0.90416608  0.25120994  0.00151683
   0.09583390  0.74879008 -0.00151680
   0.59583392  0.74879008  0.50151680
   0.40416608  0.25120994  0.49848317
   0.09583390  0.75120992  0.49848317
   0.90416608  0.24879008  0.50151680
   0.40416608  0.24879008 -0.00151680
   0.59583392  0.75120992  0.00151683
   0.13708044  0.16611174  0.24020251
   0.86291955  0.83388825  0.75979748
   0.36291955  0.83388825  0.74020252
   0.63708045  0.16611174  0.25979748
   0.86291955  0.66611175  0.25979748
   0.13708044  0.33388825  0.74020252
   0.63708045  0.33388825  0.75979748
   0.36291955  0.66611175  0.24020251
   0.76326458  0.08243884  0.76826891
   0.23673541  0.91756118  0.23173111
   0.73673542  0.91756118  0.26826891
   0.26326458  0.08243884  0.73173109
   0.23673541  0.58243882  0.73173109
   0.76326458  0.41756118  0.26826891
   0.26326458  0.41756118  0.23173111
   0.73673542  0.58243882  0.76826891
Direct configuration=    15
   0.94589629  0.14117436  0.00201090
   0.05410370  0.85882564 -0.00201088
   0.55410371  0.85882564  0.50201088
   0.44589632  0.14117436  0.49798910
   0.05410370  0.64117436  0.49798910
   0.94589629  0.35882564  0.50201088
   0.44589632  0.35882564 -0.00201088
   0.55410371  0.64117436  0.00201090
   0.07760049  0.09390900  0.13371949
   0.92239952  0.90609098  0.86628048
   0.42239952  0.90609098  0.63371952
   0.57760048  0.09390900  0.36628051
   0.92239952  0.59390902  0.36628051
   0.07760049  0.40609101  0.63371952
   0.57760048  0.40609101  0.86628048
   0.42239952  0.59390902  0.13371949
   0.86781181  0.04666481  0.86922230
   0.13218819  0.95333517  0.13077770
   0.63218819  0.95333517  0.36922230
   0.36781181  0.04666481  0.63077770
   0.13218819  0.54666483  0.63077770
   0.86781181  0.45333520  0.36922230
   0.36781181  0.45333520  0.13077770
   0.63218819  0.54666483  0.86922230
   0.90420387  0.25122861  0.00266865
   0.09579612  0.74877140 -0.00266862
   0.59579613  0.74877140  0.50266862
   0.40420387  0.25122861  0.49733135
   0.09579612  0.75122860  0.49733135
   0.90420387  0.24877140  0.50266862
   0.40420387  0.24877140 -0.00266862
   0.59579613  0.75122860  0.00266865
   0.13714175  0.16652253  0.23960345
   0.86285824  0.83347746  0.76039654
   0.36285824  0.83347746  0.73960346
   0.63714176  0.16652253  0.26039654
   0.86285824  0.66652254  0.26039654
   0.13714175  0.33347746  0.73960346
   0.63714176  0.33347746  0.76039654
   0.36285824  0.66652254  0.23960345
   0.76368958  0.08224256  0.76792525
   0.23631040  0.91775746  0.23207476
   0.73631042  0.91775746  0.26792525
   0.26368958  0.08224256  0.73207475
   0.23631040  0.58224254  0.73207475
   0.76368958  0.41775746  0.26792525
   0.26368958  0.41775746  0.23207476
   0.73631042  0.58224254  0.76792525
Direct configuration=    16
   0.94593640  0.14115776  0.00204561
   0.05406358  0.85884224 -0.00204558
   0.55406360  0.85884224  0.50204558
   0.44593643  0.14115776  0.49795439
   0.05406358  0.64115776  0.49795439
   0.94593640  0.35884224  0.50204558
   0.44593643  0.35884224 -0.00204558
   0.55406360  0.64115776  0.00204561
   0.07756310  0.09394997  0.13366715
   0.92243691  0.90605000  0.86633282
   0.42243691  0.90605000  0.63366718
   0.57756309  0.09394997  0.36633285
   0.92243691  0.59395000  0.36633285
   0.07756310  0.40605003  0.63366718
   0.57756309  0.40605003  0.86633282
   0.42243691  0.59395000  0.13366715
   0.86781878  0.04668480  0.86925236
   0.13218122  0.95331518  0.13074764
   0.63218122  0.95331518  0.36925236
   0.36781878  0.04668480  0.63074764
   0.13218122  0.54668482  0.63074764
   0.86781878  0.45331521  0.36925236
   0.36781878  0.45331521  0.13074764
   0.63218122  0.54668482  0.86925236
   0.90420337  0.25124056  0.00292921
   0.09579661  0.74875945 -0.00292918
   0.59579663  0.74875945  0.50292918
   0.40420337  0.25124056  0.49707079
   0.09579661  0.75124055  0.49707079
   0.90420337  0.24875945  0.50292918
   0.40420337  0.24875945 -0.00292918
   0.59579663  0.75124055  0.00292921
   0.13716025  0.16660862  0.23946255
   0.86283974  0.83339137  0.76053743
   0.36283974  0.83339137  0.73946257
   0.63716026  0.16660862  0.26053743
   0.86283974  0.66660863  0.26053743
   0.13716025  0.33339137  0.73946257
   0.63716026  0.33339137  0.76053743
   0.36283974  0.66660863  0.23946255
   0.76377421  0.08220109  0.76783428
   0.23622577  0.91779892  0.23216574
   0.73622579  0.91779892  0.26783428
   0.26377421  0.08220109  0.73216572
   0.23622577  0.58220108  0.73216572
   0.76377421  0.41779892  0.26783428
   0.26377421  0.41779892  0.23216574
   0.73622579  0.58220108  0.76783428
Direct configuration=    17
   0.94605674  0.14110796  0.00214972
   0.05394324  0.85889204 -0.00214970
   0.55394326  0.85889204  0.50214969
   0.44605677  0.14110796  0.49785028