   32   32    1    1
  0.7533559E+01  0.4934311E-09  0.4934311E-09  0.1143376E-08  0.5000000E-15
  1.000000000000000E-004
  CAR 
 graphite                                
    128    163     84
 
  0.0000000E+00  0.0000000E+00  0.0000000E+00  0.3086420E-02
    1      -13.719732
    2      -13.297782
    3      -13.296577
    4      -12.791739
    5       -8.266692
    6       -8.265422
    7       -8.263954
    8       -8.038894
    9       -8.035081
   10       -8.034486
   11       -8.034077
   12       -8.033540
   13       -8.029698
   14       -7.924562
   15       -7.922045
   16       -7.918756
   17       -7.012359
   18       -7.008282
   19       -7.006008
   20       -6.992573
   21       -6.989328
   22       -6.988206
   23       -6.987800
   24       -6.987291
   25       -6.982644
   26       -6.770063
   27       -6.766971
   28       -6.765183
   29       -3.155652
   30       -1.344107
   31       -1.340957
   32       -0.250747
   33       -0.248050
   34       -0.243677
   35       -0.139280
   36       -0.135010
   37       -0.134970
   38       -0.134244
   39       -0.131864
   40       -0.127846
   41       -0.020486
   42       -0.017924
   43       -0.013344
   44        0.954187
   45        2.807602
   46        2.808943
   47        2.810308
   48        3.195536
   49        3.207562
   50        3.235956
   51        3.242820
   52        3.247585
   53        3.254620
   54        3.282924
   55        3.294850
   56        3.852614
   57        3.858873
   58        3.859089
   59        3.859534
   60        3.860137
   61        3.866063
   62        4.184476
   63        4.186536
   64        4.188711
   65        7.827224
   66        7.834679
   67        7.835695
   68        7.836580
   69        7.837206
   70        7.844031
   71        8.078911
   72        8.082768
   73        8.086086
   74        8.994396
   75        8.998544
   76        9.000840
   77       12.469301
   78       13.027064
   79       13.031107
   80       13.035756
   81       13.569921
   82       13.575385
   83       13.575530
   84       13.578074
 
  0.1111111E+00  0.1387779E-16  0.0000000E+00  0.6172840E-02
    1      -13.645073
    2      -13.224450
    3      -13.223248
    4      -12.720479
    5       -9.116334
    6       -8.791875
    7       -8.790909
    8       -8.549781
    9       -8.547618
   10       -8.428824
   11       -8.258907
   12       -8.257268
   13       -8.256550
   14       -8.253636
   15       -7.970572
   16       -7.967282
   17       -6.849162
   18       -6.845355
   19       -6.649844
   20       -6.646671
   21       -6.645182
   22       -6.644299
   23       -6.377486
   24       -6.361348
   25       -6.358092
   26       -6.122338
   27       -6.119760
   28       -5.819615
   29       -3.065264
   30       -1.258109
   31       -1.254962
   32       -0.483200
   33       -0.478232
   34       -0.361106
   35       -0.360362
   36       -0.357329
   37       -0.353463
   38       -0.233154
   39       -0.227942
   40       -0.176936
   41       -0.065444
   42       -0.062676
   43        0.051905
   44        1.033863
   45        2.145180
   46        2.666751
   47        2.668539
   48        2.892959
   49        2.947260
   50        2.953041
   51        3.007365
   52        3.031475
   53        3.081883
   54        3.087482
   55        3.138177
   56        3.434818
   57        3.438924
   58        3.805675
   59        3.807854
   60        3.808435
   61        3.814323
   62        4.357437
   63        4.360216
   64        4.430451
   65        7.957027
   66        7.964383
   67        7.965486
   68        7.968385
   69        8.024846
   70        8.029328
   71        8.052908
   72        8.369906
   73        8.375466
   74        9.132856
   75        9.136864
   76        9.669914
   77       12.546403
   78       13.075417
   79       13.369760
   80       13.376412
   81       13.616242
   82       13.618172
   83       13.907297
   84       13.914425
 
  0.2222222E+00  0.1387779E-16  0.0000000E+00  0.6172840E-02
    1      -13.421370
    2      -13.004913
    3      -13.003719
    4      -12.507054
    5      -10.146897
    6       -9.793984
    7       -9.792942
    8       -9.386484
    9       -8.915617
   10       -8.913548
   11       -8.596260
   12       -8.594549
   13       -8.594009
   14       -8.591638
   15       -8.238850
   16       -8.236367
   17       -6.206912
   18       -6.203500
   19       -5.958994
   20       -5.956088
   21       -5.954495
   22       -5.953588
   23       -5.665090
   24       -5.661855
   25       -5.048570
   26       -4.799036
   27       -4.796638
   28       -4.517787
   29       -2.794889
   30       -1.107531
   31       -1.102940
   32       -1.001389
   33       -0.998252
   34       -0.964683
   35       -0.964158
   36       -0.961344
   37       -0.957579
   38       -0.811320
   39       -0.806495
   40        0.039018
   41        0.148548
   42        0.151495
   43        0.264401
   44        1.057866
   45        1.271371
   46        2.040904
   47        2.126104
   48        2.131360
   49        2.218039
   50        2.400577
   51        2.402611
   52        2.556662
   53        2.560152
   54        2.598051
   55        2.666439
   56        2.671630
   57        2.740935
   58        3.685853
   59        3.688161
   60        3.688735
   61        3.694444
   62        4.214405
   63        4.686202
   64        4.689251
   65        7.990039
   66        7.995128
   67        8.287228
   68        8.293908
   69        8.294969
   70        8.297828
   71        8.806711
   72        9.399236
   73        9.402835
   74        9.576660
   75        9.581327
   76       10.862260
   77       12.779542
   78       13.210408
   79       13.741452
   80       13.743550
   81       14.278121
   82       14.307529
   83       14.315756
   84       14.479196
 
  0.3333333E+00  0.8326673E-16  0.0000000E+00  0.6172840E-02
    1      -13.049869
    2      -12.640247
    3      -12.639068
    4      -12.152387
    5      -11.073972
    6      -10.701748
    7      -10.700648
    8      -10.267050
    9       -9.179910
   10       -9.177946
   11       -8.849832
   12       -8.848054
   13       -8.847679
   14       -8.845478
   15       -8.473152
   16       -8.470940
   17       -5.391065
   18       -5.387640
   19       -5.154384
   20       -5.151199
   21       -5.149570
   22       -5.148824
   23       -4.887481
   24       -4.884199
   25       -3.595173
   26       -3.371883
   27       -3.369293
   28       -3.124046
   29       -2.346638
   30       -1.935999
   31       -1.932073
   32       -1.778187
   33       -1.777820
   34       -1.775547
   35       -1.771740
   36       -1.600846
   37       -1.596564
   38       -0.577341
   39       -0.574257
   40        0.000189
   41        0.389808
   42        0.496276
   43        0.499499
   44        0.609042
   45        0.825940
   46        0.948274
   47        0.952728
   48        1.076983
   49        1.614456
   50        1.617803
   51        1.661274
   52        2.024108
   53        2.107085
   54        2.112055
   55        2.175766
   56        2.177756
   57        2.197750
   58        3.561437
   59        3.564694
   60        3.565702
   61        3.566163
   62        3.572008
   63        4.955098
   64        4.958323
   65        8.081475
   66        8.085939
   67        8.671732
   68        8.678307
   69        8.679263
   70        8.681963
   71        9.608381
   72        9.611841
   73       10.215738
   74       11.031509
   75       11.035825
   76       12.185789
   77       13.165563
   78       13.422610
   79       13.942981
   80       13.945449
   81       14.317294
   82       14.371886
   83       14.402430
   84       14.407117
 
  0.4444444E+00  0.2775558E-16  0.0000000E+00  0.6172840E-02
    1      -12.532380
    2      -12.132334
    3      -12.131176
    4      -11.872046
    5      -11.658457
    6      -11.484328
    7      -11.483184
    8      -11.028217
    9       -9.315858
   10       -9.313951
   11       -8.981097
   12       -8.979270
   13       -8.979011
   14       -8.976851
   15       -8.597838
   16       -8.595726
   17       -4.604845
   18       -4.601800
   19       -4.423016
   20       -4.418744
   21       -4.417994
   22       -4.417421
   23       -4.243495
   24       -4.240883
   25       -2.649399
   26       -2.647256
   27       -2.539078
   28       -2.537854
   29       -2.537346
   30       -2.533243
   31       -2.375842
   32       -2.372818
   33       -2.089962
   34       -1.898938
   35       -1.895964
   36       -1.725122
   37       -1.687584
   38       -0.937941
   39       -0.590117
   40       -0.439233
   41       -0.435602
   42       -0.262394
   43        0.017690
   44        0.021149
   45        0.749806
   46        0.753058
   47        0.859252
   48        0.960707
   49        0.964347
   50        1.068707
   51        1.419556
   52        1.513850
   53        1.517780
   54        1.614298
   55        2.053488
   56        2.055433
   57        2.192597
   58        2.843413
   59        3.489348
   60        3.491797
   61        3.492356
   62        3.497838
   63        5.088001
   64        5.091231
   65        8.215667
   66        8.218821
   67        8.933168
   68        8.939660
   69        8.940554
   70        8.943089
   71        9.692583
   72        9.696228
   73       11.853703
   74       12.529086
   75       12.533654
   76       13.502868
   77       13.534935
   78       13.654848
   79       13.679242
   80       13.822985
   81       13.828779
   82       14.091458
   83       14.218749
   84       14.221796
 
 -0.8470329E-21  0.1111111E+00  0.0000000E+00  0.6172840E-02
    1      -13.645074
    2      -13.224452
    3      -13.223250
    4      -12.720481
    5       -9.116281
    6       -8.791768
    7       -8.790819
    8       -8.550221
    9       -8.547419
   10       -8.428624
   11       -8.259403
   12       -8.257189
   13       -8.256517
   14       -8.253945
   15       -7.970216
   16       -7.968249
   17       -6.849048
   18       -6.843899
   19       -6.650278
   20       -6.646649
   21       -6.645116
   22       -6.641236
   23       -6.378821
   24       -6.361545
   25       -6.356473
   26       -6.122554
   27       -6.121725
   28       -5.820683
   29       -3.065259
   30       -1.258103
   31       -1.254956
   32       -0.484419
   33       -0.478474
   34       -0.363245
   35       -0.360378
   36       -0.357328
   37       -0.354269
   38       -0.234317
   39       -0.228309
   40       -0.175380
   41       -0.062789
   42       -0.062322
   43        0.053377
   44        1.033874
   45        2.145857
   46        2.665843
   47        2.668520
   48        2.890040
   49        2.946367
   50        2.947291
   51        3.003466
   52        3.035427
   53        3.087458
   54        3.088636
   55        3.141133
   56        3.436187
   57        3.439731
   58        3.803664
   59        3.808163
   60        3.808531
   61        3.813120
   62        4.356740
   63        4.359337
   64        4.432159
   65        7.957890
   66        7.964349
   67        7.965912
   68        7.971673
   69        8.024967
   70        8.031570
   71        8.050459
   72        8.368843
   73        8.372443
   74        9.132978
   75        9.139040
   76        9.668178
   77       12.546428
   78       13.075984
   79       13.369807
   80       13.375711
   81       13.617076
   82       13.618457
   83       13.909157
   84       13.914407
 
  0.1111111E+00  0.1111111E+00  0.0000000E+00  0.6172840E-02
    1      -13.495879
    2      -13.077995
    3      -13.076798
    4      -12.578111
    5       -9.591529
    6       -9.588101
    7       -9.252783
    8       -9.249331
    9       -9.249300
   10       -9.245640
   11       -8.863154
   12       -8.859540
   13       -8.073075
   14       -7.846490
   15       -7.844537
   16       -7.733482
   17       -6.826387
   18       -6.809080
   19       -6.805919
   20       -6.595564
   21       -5.697722
   22       -5.694062
   23       -5.441985
   24       -5.439351
   25       -5.439300
   26       -5.434354
   27       -5.149403
   28       -5.145486
   29       -2.884863
   30       -1.179809
   31       -1.086719
   32       -1.083580
   33       -1.036580
   34       -1.033742
   35       -0.880735
   36       -0.338401
   37       -0.335295
   38       -0.219428
   39       -0.215170
   40       -0.215130
   41       -0.213287
   42       -0.091258
   43       -0.088246
   44        1.192448
   45        1.672115
   46        1.674568
   47        2.356848
   48        2.415336
   49        2.421135
   50        2.464233
   51        2.733385
   52        2.767227
   53        2.772855
   54        2.823387
   55        3.072342
   56        3.079556
   57        3.084064
   58        3.084493
   59        3.088089
   60        4.121733
   61        4.126621
   62        4.435313
   63        4.469433
   64        4.472643
   65        7.755858
   66        7.761940
   67        8.108955
   68        8.296961
   69        8.300588
   70        8.674191
   71        8.903408
   72        8.905919
   73        8.906382
   74        8.912242
   75       10.167307
   76       10.170065
   77       12.702408
   78       13.459800
   79       13.464284
   80       13.988503
   81       13.994142
   82       13.994298
   83       13.998431
   84       14.266463
 
  0.2222222E+00  0.1111111E+00  0.0000000E+00  0.6172840E-02
    1      -13.198265
    2      -12.785880
    3      -12.784694
    4      -12.294049
    5      -10.572550
    6      -10.210465
    7      -10.209403
    8       -9.937560
    9       -9.790121
   10       -9.588869
   11       -9.587843
   12       -9.187379
   13       -8.156478
   14       -7.873936
   15       -7.872609
   16       -7.595323
   17       -6.494232
   18       -6.306487
   19       -6.303570
   20       -6.037610
   21       -4.902145
   22       -4.661006
   23       -4.660234
   24       -4.392825
   25       -4.298122
   26       -4.063152
   27       -4.060730
   28       -3.801192
   29       -2.525520
   30       -2.104780
   31       -1.940233
   32       -1.937434
   33       -1.755456
   34       -0.877915
   35       -0.746212
   36       -0.743063
   37       -0.740001
   38       -0.739142
   39       -0.591304
   40       -0.048893
   41        0.067403
   42        0.070262
   43        0.191502
   44        0.581592
   45        1.313063
   46        1.379470
   47        1.468200
   48        1.474140
   49        1.506244
   50        1.555214
   51        2.142091
   52        2.145427
   53        2.167396
   54        2.225569
   55        2.231477
   56        2.301106
   57        2.799350
   58        2.802723
   59        3.181504
   60        3.970415
   61        4.321840
   62        4.326530
   63        4.449583
   64        4.859593
   65        7.762095
   66        7.767981
   67        7.888051
   68        8.595409
   69        8.729298
   70        9.444064
   71        9.466477
   72        9.470107
   73       10.257718
   74       10.261932
   75       10.547634
   76       11.427928
   77       13.017448
   78       13.637067
   79       14.155956
   80       14.158143
   81       14.443417
   82       14.633206
   83       14.651012
   84       14.681319
 
  0.3333333E+00  0.1111111E+00  0.0000000E+00  0.6172840E-02
    1      -12.753742
    2      -12.349565
    3      -12.348396
    4      -11.869750
    5      -11.435621
    6      -11.056291
    7      -11.055178
    8      -10.611927
    9      -10.148986
   10       -9.795555
   11       -9.794522
   12       -9.387284
   13       -8.316125
   14       -8.010220
   15       -8.009196
   16       -7.671569
   17       -5.753845
   18       -5.537279
   19       -5.534526
   20       -5.293316
   21       -4.077953
   22       -3.871918
   23       -3.870684
   24       -3.652969
   25       -3.036906
   26       -2.878908
   27       -2.875970
   28       -2.825162
   29       -2.683065
   30       -2.620987
   31       -2.618339
   32       -2.395908
   33       -1.990364
   34       -1.577402
   35       -1.440778
   36       -1.439119
   37       -1.278810
   38       -0.421271
   39       -0.244610
   40       -0.241763
   41        0.099928
   42        0.235903
   43        0.240650
   44        0.367622
   45        0.371749
   46        0.482061
   47        0.485126
   48        0.600732
   49        1.089598
   50        1.229766
   51        1.233025
   52        1.521563
   53        1.606412
   54        1.611341
   55        1.702687
   56        1.967741
   57        2.618541
   58        2.621907
   59        3.141309
   60        3.255791
   61        4.407714
   62        4.410712
   63        4.415534
   64        5.431742
   65        7.451082
   66        7.877876
   67        7.882930
   68        8.724413
   69        9.180726
   70        9.913587
   71        9.917369
   72       10.733093
   73       10.986355
   74       11.737126
   75       11.741227
   76       12.748661
   77       13.482773
   78       13.873050
   79       14.173411
   80       14.310424
   81       14.317018
   82       14.386114
   83       14.388605
   84       14.484862
 
  0.4444444E+00  0.1111111E+00  0.0000000E+00  0.6172840E-02
    1      -12.166498
    2      -12.163284
    3      -11.774417
    4      -11.771237
    5      -11.771122
    6      -11.767673
    7      -11.309353
    8      -11.305987
    9      -10.219976
   10       -9.865080
   11       -9.864044
   12       -9.454575
   13       -8.375439
   14       -8.064613
   15       -8.063654
   16       -7.716080
   17       -5.208427
   18       -5.051496
   19       -5.048940
   20       -4.921595
   21       -3.553918
   22       -3.473653
   23       -3.419925
   24       -3.419204
   25       -3.416255
   26       -3.415291
   27       -3.305936
   28       -3.279203
   29       -1.936280
   30       -1.878162
   31       -1.874406
   32       -1.753945
   33       -1.337598
   34       -1.334371
   35       -1.286746
   36       -1.284105
   37       -1.168293
   38       -1.167974
   39       -1.167774
   40       -1.160885
   41       -0.984923
   42       -0.981098
   43        0.423326
   44        0.427878
   45        0.428313
   46        0.431577
   47        0.902191
   48        0.908367
   49        0.999619
   50        1.010383
   51        1.010446
   52        1.011695
   53        1.016461
   54        1.114147
   55        1.119148
   56        2.556113
   57        2.558950
   58        2.560861
   59        2.564001
   60        3.114262
   61        4.389781
   62        4.432326
   63        4.436235
   64        5.740534
   65        7.204520
   66        7.943760
   67        7.948028
   68        8.780883
   69        9.389362
   70       10.087899
   71       10.092044
   72       10.764828
   73       12.619140
   74       12.623122
   75       13.179725
   76       13.182126
   77       13.183569
   78       13.189459
   79       13.989039
   80       13.990232
   81       14.059971
   82       14.063813
   83       14.313148
   84       14.315386
 
 -0.4444444E+00  0.1111111E+00  0.0000000E+00  0.6172840E-02
    1      -12.753847
    2      -12.349673
    3      -12.348508
    4      -11.869845
    5      -11.435451
    6      -11.056124
    7      -11.055001
    8      -10.611749
    9      -10.149383
   10       -9.795779
   11       -9.794746
   12       -9.387500
   13       -8.315986
   14       -8.010077
   15       -8.009156
   16       -7.671558
   17       -5.751044
   18       -5.533849
   19       -5.532899
   20       -5.291093
   21       -4.080781
   22       -3.875360
   23       -3.872519
   24       -3.655385
   25       -3.039609
   26       -2.880943
   27       -2.879866
   28       -2.825048
   29       -2.686201
   30       -2.621121
   31       -2.618069
   32       -2.395754
   33       -1.990400
   34       -1.574399
   35       -1.438462
   36       -1.434796
   37       -1.275272
   38       -0.421225
   39       -0.244634
   40       -0.241795
   41        0.099011
   42        0.235415
   43        0.238531
   44        0.365584
   45        0.371789
   46        0.481710
   47        0.485221
   48        0.600715
   49        1.089694
   50        1.229755
   51        1.233044
   52        1.523472
   53        1.608675
   54        1.611829
   55        1.703743
   56        1.967780
   57        2.618669
   58        2.622192
   59        3.140868
   60        3.255715
   61        4.407823
   62        4.410457
   63        4.414659
   64        5.430490
   65        7.454120
   66        7.880566
   67        7.884336
   68        8.725190
   69        9.178226
   70        9.911706
   71        9.916195
   72       10.732662
   73       10.986614
   74       11.737337
   75       11.741753
   76       12.749411
   77       13.482976
   78       13.872045
   79       14.172843
   80       14.312182
   81       14.317910
   82       14.384789
   83       14.387889
   84       14.487211
 
 -0.3333333E+00  0.1111111E+00  0.0000000E+00  0.6172840E-02
    1      -13.198344
    2      -12.785957
    3      -12.784774
    4      -12.294129
    5      -10.572350
    6      -10.210263
    7      -10.209187
    8       -9.937999
    9       -9.789923
   10       -9.589315
   11       -9.588295
   12       -9.187796
   13       -8.156320
   14       -7.873657
   15       -7.872831
   16       -7.595460
   17       -6.490918
   18       -6.302326
   19       -6.301666
   20       -6.034792
   21       -4.905092
   22       -4.664633
   23       -4.662336
   24       -4.395587
   25       -4.298320
   26       -4.063362
   27       -4.060791
   28       -3.801278
   29       -2.525548
   30       -2.108436
   31       -1.942884
   32       -1.942245
   33       -1.759259
   34       -0.873837
   35       -0.746175
   36       -0.743048
   37       -0.737070
   38       -0.733777
   39       -0.587016
   40       -0.048960
   41        0.067249
   42        0.070388
   43        0.191528
   44        0.581636
   45        1.313213
   46        1.377017
   47        1.466757
   48        1.469441
   49        1.506274
   50        1.551256
   51        2.142041
   52        2.145503
   53        2.171615
   54        2.230459
   55        2.232950
   56        2.303611
   57        2.799618
   58        2.803318
   59        3.180604
   60        3.970306
   61        4.320953
   62        4.324596
   63        4.450667
   64        4.858646
   65        7.766861
   66        7.770564
   67        7.891863
   68        8.597262
   69        8.725349
   70        9.444305
   71        9.463126
   72        9.467930
   73       10.257840
   74       10.262390
   75       10.546145
   76       11.428549
   77       13.017555
   78       13.636440
   79       14.155208
   80       14.157662
   81       14.448575
   82       14.640516
   83       14.649528
   84       14.687197
 
 -0.2222222E+00  0.1111111E+00  0.0000000E+00  0.6172840E-02
    1      -13.495927
    2      -13.078042
    3      -13.076846
    4      -12.578159
    5       -9.590423
    6       -9.589580
    7       -9.250510
    8       -9.249520
    9       -9.249397
   10       -9.248413
   11       -8.861899
   12       -8.861196
   13       -8.073038
   14       -7.845909
   15       -7.845331
   16       -7.733278
   17       -6.822981
   18       -6.804597
   19       -6.804199
   20       -6.592428
   21       -5.699237
   22       -5.695515
   23       -5.443067
   24       -5.440944
   25       -5.439541
   26       -5.437095
   27       -5.150722
   28       -5.147102
   29       -2.884880
   30       -1.183914
   31       -1.086730
   32       -1.083591
   33       -1.039559
   34       -1.039065
   35       -0.884944
   36       -0.337571
   37       -0.331595
   38       -0.217884
   39       -0.215020
   40       -0.212040
   41       -0.208879
   42       -0.090478
   43       -0.084460
   44        1.192459
   45        1.673098
   46        1.673939
   47        2.351155
   48        2.411984
   49        2.412304
   50        2.458062
   51        2.739911
   52        2.775999
   53        2.776443
   54        2.829154
   55        3.070830
   56        3.081111
   57        3.084088
   58        3.084378
   59        3.088365
   60        4.120660
   61        4.124398
   62        4.434678
   63        4.470169
   64        4.473262
   65        7.761451
   66        7.765237
   67        8.112380
   68        8.292932
   69        8.299994
   70        8.677727
   71        8.899579
   72        8.904611
   73        8.905967
   74        8.911082
   75       10.165315
   76       10.170007
   77       12.702468
   78       13.461344
   79       13.467454
   80       13.992044
   81       13.994173
   82       13.998122
   83       14.000191
   84       14.260857
 
 -0.1111111E+00  0.1111111E+00  0.0000000E+00  0.6172840E-02
    1      -13.645090
    2      -13.224467
    3      -13.223266
    4      -12.720497
    5       -9.117004
    6       -8.792442
    7       -8.791436
    8       -8.549476
    9       -8.547334
   10       -8.429173
   11       -8.259301
   12       -8.256369
   13       -8.256156
   14       -8.253986
   15       -7.970717
   16       -7.967395
   17       -6.846283
   18       -6.843689
   19       -6.646117
   20       -6.645345
   21       -6.645068
   22       -6.641510
   23       -6.381448
   24       -6.358895
   25       -6.356889
   26       -6.125878
   27       -6.123708
   28       -5.823252
   29       -3.065265
   30       -1.258106
   31       -1.254959
   32       -0.485046
   33       -0.482264
   34       -0.364421
   35       -0.360376
   36       -0.360330
   37       -0.358906
   38       -0.234847
   39       -0.232165
   40       -0.170899
   41       -0.059550
   42       -0.056408
   43        0.058011
   44        1.033877
   45        2.146413
   46        2.665848
   47        2.667615
   48        2.883375
   49        2.937760
   50        2.943804
   51        2.998263
   52        3.040704
   53        3.090971
   54        3.097337
   55        3.147899
   56        3.436906
   57        3.441220
   58        3.802392
   59        3.808106
   60        3.809050
   61        3.810969
   62        4.356000
   63        4.359046
   64        4.433580
   65        7.963489
   66        7.966092
   67        7.966726
   68        7.972834
   69        8.028184
   70        8.032123
   71        8.045743
   72        8.363889
   73        8.369191
   74        9.136680
   75        9.139349
   76        9.664885
   77       12.546446
   78       13.081087
   79       13.367969
   80       13.372181
   81       13.621852
   82       13.623749
   83       13.903762
   84       13.910472
 
 -0.3388132E-20  0.2222222E+00  0.0000000E+00  0.6172840E-02
    1      -13.421377
    2      -13.004919
    3      -13.003727
    4      -12.507062
    5      -10.146946
    6       -9.794019
    7       -9.792987
    8       -9.386512
    9       -8.916175
   10       -8.913032
   11       -8.597249
   12       -8.594495
   13       -8.593969
   14       -8.590911
   15       -8.239193
   16       -8.236203
   17       -6.207216
   18       -6.201955
   19       -5.959774
   20       -5.956082
   21       -5.954412
   22       -5.950462
   23       -5.665463
   24       -5.660229
   25       -5.049601
   26       -4.799265
   27       -4.798480
   28       -4.518847
   29       -2.794870
   30       -1.108861
   31       -1.103156
   32       -1.001359
   33       -0.998225
   34       -0.967084
   35       -0.964200
   36       -0.961341
   37       -0.958182
   38       -0.812585
   39       -0.806737
   40        0.040613
   41        0.151367
   42        0.151789
   43        0.265925
   44        1.058282
   45        1.271405
   46        2.038441
   47        2.125878
   48        2.126252
   49        2.215127
   50        2.399587
   51        2.402729
   52        2.557366
   53        2.560711
   54        2.601127
   55        2.671577
   56        2.672106
   57        2.743532
   58        3.683835
   59        3.688442
   60        3.688832
   61        3.693502
   62        4.215637
   63        4.685321
   64        4.688425
   65        7.990085
   66        7.997259
   67        8.288042
   68        8.293949
   69        8.295347
   70        8.301337
   71        8.804555
   72        9.399644
   73        9.405053
   74        9.575736
   75        9.579207
   76       10.860881
   77       12.779622
   78       13.211080
   79       13.742433
   80       13.743884
   81       14.278658
   82       14.307656
   83       14.317208
   84       14.500196
 
  0.1111111E+00  0.2222222E+00  0.0000000E+00  0.6172840E-02
    1      -13.198270
    2      -12.785884
    3      -12.784700
    4      -12.294054
    5      -10.572614
    6      -10.210519
    7      -10.209467
    8       -9.937509
    9       -9.790175
   10       -9.588835
   11       -9.587799
   12       -9.187358
   13       -8.156460
   14       -7.873933
   15       -7.872594
   16       -7.595320
   17       -6.494198
   18       -6.306349
   19       -6.303570
   20       -6.037502
   21       -4.901000
   22       -4.660568
   23       -4.658346
   24       -4.391621
   25       -4.299239
   26       -4.063450
   27       -4.062726
   28       -3.802386
   29       -2.525506
   30       -2.104894
   31       -1.940234
   32       -1.937624
   33       -1.755538
   34       -0.879512
   35       -0.746187
   36       -0.743143
   37       -0.742251
   38       -0.739913
   39       -0.592835
   40       -0.047211
   41        0.070172
   42        0.070771
   43        0.193104
   44        0.581937
   45        1.312597
   46        1.378165
   47        1.468197
   48        1.471551
   49        1.506286