       N       E                     dE             d eps       ncg     rms          rms(c)
DAV:   1     0.526409274764E+03    0.52641E+03   -0.73488E+04 27384   0.163E+03
DAV:   2    -0.267124272519E+03   -0.79353E+03   -0.76311E+03 33900   0.308E+02
DAV:   3    -0.309171525100E+03   -0.42047E+02   -0.41593E+02 33480   0.699E+01
DAV:   4    -0.309887409194E+03   -0.71588E+00   -0.71439E+00 33372   0.989E+00
DAV:   5    -0.309907531411E+03   -0.20122E-01   -0.20112E-01 33576   0.158E+00    0.220E+01
DAV:   6    -0.296434295120E+03    0.13473E+02   -0.13692E+01 31296   0.105E+01    0.115E+01
DAV:   7    -0.292258799919E+03    0.41755E+01   -0.13728E+01 31272   0.106E+01    0.182E+00
DAV:   8    -0.292294191290E+03   -0.35391E-01   -0.28153E-01 31500   0.164E+00    0.355E-01
DAV:   9    -0.292295834025E+03   -0.16427E-02   -0.14173E-02 32868   0.419E-01    0.116E-01
DAV:  10    -0.292296437090E+03   -0.60307E-03   -0.60791E-03 36564   0.231E-01    0.867E-02
DAV:  11    -0.292296378080E+03    0.59011E-04   -0.16744E-03 33480   0.145E-01    0.517E-02
DAV:  12    -0.292296566794E+03   -0.18871E-03   -0.20657E-03 32316   0.920E-02    0.465E-02
DAV:  13    -0.292296505892E+03    0.60902E-04   -0.11520E-04 31872   0.550E-02    0.348E-02
DAV:  14    -0.292296523051E+03   -0.17159E-04   -0.88981E-04 38856   0.528E-02    0.401E-02
DAV:  15    -0.292296493186E+03    0.29865E-04   -0.25343E-04 33684   0.371E-02    0.146E-02
DAV:  16    -0.292296495449E+03   -0.22638E-05   -0.14942E-05 30504   0.936E-03    0.218E-02
DAV:  17    -0.292296492650E+03    0.27991E-05   -0.23740E-05 19512   0.563E-03    0.128E-02
DAV:  18    -0.292296492272E+03    0.37869E-06   -0.20310E-06 19560   0.272E-03
   1 F= -.29590493E+03 E0= -.29590493E+03  d E =0.000000E+00
