   2   2   0   0
  0.1579781E+03  0.2466437E-09  0.2466437E-09  0.6000000E-08  0.5000000E-15
  1.000000000000000E-004
  CAR 
 graphite                                
     11.14687654    -25.26396240  301     -3.75163989      1.00000000
    -25.264  0.0000E+00  0.0000E+00
    -25.143  0.0000E+00  0.0000E+00
    -25.021  0.0000E+00  0.0000E+00
    -24.900  0.0000E+00  0.0000E+00
    -24.778  0.0000E+00  0.0000E+00
    -24.657  0.0000E+00  0.0000E+00
    -24.536  0.0000E+00  0.0000E+00
    -24.414  0.0000E+00  0.0000E+00
    -24.293  0.0000E+00  0.0000E+00
    -24.172  0.0000E+00  0.0000E+00
    -24.050  0.0000E+00  0.0000E+00
    -23.929  0.0000E+00  0.0000E+00
    -23.808  0.0000E+00  0.0000E+00
    -23.686  0.0000E+00  0.0000E+00
    -23.565  0.0000E+00  0.0000E+00
    -23.443  0.0000E+00  0.0000E+00
    -23.322  0.0000E+00  0.0000E+00
    -23.201  0.1960E+00  0.6202E-02
    -23.079  0.2601E+00  0.4698E-01
    -22.958  0.2917E+00  0.8046E-01
    -22.837  0.3233E+00  0.1178E+00
    -22.715  0.3217E+00  0.1580E+00
    -22.594  0.2898E+00  0.1948E+00
    -22.472  0.3011E+00  0.2306E+00
    -22.351  0.3124E+00  0.2678E+00
    -22.230  0.3237E+00  0.3064E+00
    -22.108  0.3089E+00  0.3461E+00
    -21.987  0.3070E+00  0.3834E+00
    -21.866  0.3051E+00  0.4206E+00
    -21.744  0.3067E+00  0.4576E+00
    -21.623  0.3126E+00  0.4952E+00
    -21.502  0.3186E+00  0.5335E+00
    -21.380  0.3245E+00  0.5725E+00
    -21.259  0.3212E+00  0.6120E+00
    -21.137  0.3105E+00  0.6502E+00
    -21.016  0.3121E+00  0.6880E+00
    -20.895  0.3138E+00  0.7260E+00
    -20.773  0.3155E+00  0.7641E+00
    -20.652  0.3176E+00  0.8025E+00
    -20.531  0.3216E+00  0.8413E+00
    -20.409  0.3255E+00  0.8806E+00
    -20.288  0.3294E+00  0.9203E+00
    -20.166  0.3242E+00  0.9602E+00
    -20.045  0.3232E+00  0.9995E+00
    -19.924  0.3222E+00  0.1039E+01
    -19.802  0.3243E+00  0.1078E+01
    -19.681  0.3272E+00  0.1117E+01
    -19.560  0.3302E+00  0.1157E+01
    -19.438  0.3332E+00  0.1198E+01
    -19.317  0.3362E+00  0.1238E+01
    -19.195  0.3421E+00  0.1279E+01
    -19.074  0.3491E+00  0.1321E+01
    -18.953  0.3554E+00  0.1364E+01
    -18.831  0.3592E+00  0.1407E+01
    -18.710  0.3752E+00  0.1452E+01
    -18.589  0.3912E+00  0.1498E+01
    -18.467  0.4073E+00  0.1547E+01
    -18.346  0.6474E+00  0.1617E+01
    -18.225  0.5133E+00  0.1687E+01
    -18.103  0.3791E+00  0.1741E+01
    -17.982  0.2810E+00  0.1780E+01
    -17.860  0.2525E+00  0.1812E+01
    -17.739  0.2239E+00  0.1841E+01
    -17.618  0.1954E+00  0.1867E+01
    -17.496  0.1299E+00  0.1925E+01
    -17.375  0.1162E+00  0.1940E+01
    -17.254  0.1026E+00  0.1953E+01
    -17.132  0.8891E-01  0.1965E+01
    -17.011  0.7525E-01  0.1975E+01
    -16.889  0.9407E-01  0.1985E+01
    -16.768  0.1237E+00  0.1998E+01
    -16.647  0.1534E+00  0.2015E+01
    -16.525  0.2892E+00  0.2038E+01
    -16.404  0.5457E+00  0.2089E+01
    -16.283  0.3200E+00  0.2155E+01
    -16.161  0.3907E+00  0.2198E+01
    -16.040  0.4614E+00  0.2250E+01
    -15.919  0.5321E+00  0.2310E+01
    -15.797  0.6028E+00  0.2379E+01
    -15.676  0.3655E+00  0.2450E+01
    -15.554  0.3540E+00  0.2494E+01
    -15.433  0.3435E+00  0.2536E+01
    -15.312  0.3348E+00  0.2577E+01
    -15.190  0.3261E+00  0.2617E+01
    -15.069  0.3167E+00  0.2656E+01
    -14.948  0.3070E+00  0.2694E+01
    -14.826  0.2974E+00  0.2731E+01
    -14.705  0.2877E+00  0.2766E+01
    -14.583  0.2780E+00  0.2801E+01
    -14.462  0.2683E+00  0.2834E+01
    -14.341  0.2584E+00  0.2866E+01
    -14.219  0.2687E+00  0.2897E+01
    -14.098  0.2922E+00  0.2931E+01
    -13.977  0.3157E+00  0.2968E+01
    -13.855  0.3392E+00  0.3008E+01
    -13.734  0.3628E+00  0.3050E+01
    -13.612  0.3863E+00  0.3096E+01
    -13.491  0.4098E+00  0.3144E+01
    -13.370  0.4156E+00  0.3195E+01
    -13.248  0.4149E+00  0.3245E+01
    -13.127  0.3826E+00  0.3292E+01
    -13.006  0.3824E+00  0.3338E+01
    -12.884  0.3823E+00  0.3385E+01
    -12.763  0.3821E+00  0.3431E+01
    -12.642  0.3858E+00  0.3478E+01
    -12.520  0.3939E+00  0.3525E+01
    -12.399  0.4021E+00  0.3573E+01
    -12.277  0.4103E+00  0.3623E+01
    -12.156  0.4152E+00  0.3673E+01
    -12.035  0.4194E+00  0.3723E+01
    -11.913  0.4320E+00  0.3775E+01
    -11.792  0.4520E+00  0.3828E+01
    -11.671  0.4563E+00  0.3884E+01
    -11.549  0.4599E+00  0.3939E+01
    -11.428  0.4666E+00  0.3995E+01
    -11.306  0.6062E+00  0.4056E+01
    -11.185  0.9004E+00  0.4147E+01
    -11.064  0.7673E+00  0.4240E+01
    -10.942  0.8205E+00  0.4336E+01
    -10.821  0.8738E+00  0.4439E+01
    -10.700  0.9266E+00  0.4548E+01
    -10.578  0.1113E+01  0.4673E+01
    -10.457  0.1075E+01  0.4805E+01
    -10.336  0.1037E+01  0.4934E+01
    -10.214  0.9563E+00  0.5055E+01
    -10.093  0.1041E+01  0.5161E+01
     -9.971  0.8694E+00  0.5294E+01
     -9.850  0.9081E+00  0.5402E+01
     -9.729  0.9469E+00  0.5514E+01
     -9.607  0.1157E+01  0.5655E+01
     -9.486  0.2248E+00  0.5721E+01
     -9.365  0.1966E+00  0.5747E+01
     -9.243  0.1684E+00  0.5769E+01
     -9.122  0.1401E+00  0.5788E+01
     -9.000  0.5324E+00  0.5820E+01
     -8.879  0.1334E+01  0.5924E+01
     -8.758  0.8551E+00  0.6115E+01
     -8.636  0.7776E+00  0.6214E+01
     -8.515  0.7002E+00  0.6304E+01
     -8.394  0.6246E+00  0.6384E+01
     -8.272  0.6031E+00  0.6458E+01
     -8.151  0.5919E+00  0.6531E+01
     -8.029  0.5808E+00  0.6602E+01
     -7.908  0.5726E+00  0.6672E+01
     -7.787  0.5994E+00  0.6743E+01
     -7.665  0.5841E+00  0.6815E+01
     -7.544  0.5689E+00  0.6885E+01
     -7.423  0.6058E+00  0.6954E+01
     -7.301  0.5737E+00  0.7025E+01
     -7.180  0.5416E+00  0.7093E+01
     -7.059  0.5904E+00  0.7163E+01
     -6.937  0.4928E+00  0.7228E+01
     -6.816  0.4033E+00  0.7283E+01
     -6.694  0.3857E+00  0.7329E+01
     -6.573  0.4033E+00  0.7377E+01
     -6.452  0.4226E+00  0.7427E+01
     -6.330  0.4692E+00  0.7481E+01
     -6.209  0.1350E+01  0.7549E+01
     -6.088  0.4034E+00  0.7644E+01
     -5.966  0.3622E+00  0.7691E+01
     -5.845  0.3210E+00  0.7732E+01
     -5.723  0.2798E+00  0.7769E+01
     -5.602  0.2386E+00  0.7800E+01
     -5.481  0.2130E+00  0.7827E+01
     -5.359  0.2296E+00  0.7854E+01
     -5.238  0.2461E+00  0.7883E+01
     -5.117  0.2626E+00  0.7914E+01
     -4.995  0.1133E+00  0.7930E+01
     -4.874  0.1022E+00  0.7943E+01
     -4.753  0.9113E-01  0.7954E+01
     -4.631  0.8007E-01  0.7965E+01
     -4.510  0.6901E-01  0.7974E+01
     -4.388  0.5794E-01  0.7982E+01
     -4.267  0.4688E-01  0.7988E+01
     -4.146  0.3582E-01  0.7993E+01
     -4.024  0.2475E-01  0.7997E+01
     -3.903  0.1369E-01  0.7999E+01
     -3.782  0.2626E-02  0.8000E+01
     -3.660  0.8855E-02  0.8000E+01
     -3.539  0.2092E-01  0.8002E+01
     -3.417  0.3299E-01  0.8005E+01
     -3.296  0.4505E-01  0.8010E+01
     -3.175  0.5712E-01  0.8016E+01
     -3.053  0.6919E-01  0.8024E+01
     -2.932  0.8125E-01  0.8033E+01
     -2.811  0.9332E-01  0.8044E+01
     -2.689  0.1054E+00  0.8056E+01
     -2.568  0.1175E+00  0.8069E+01
     -2.447  0.5714E+00  0.8088E+01
     -2.325  0.2650E+00  0.8139E+01
     -2.204  0.2538E+00  0.8166E+01
     -2.082  0.3225E+00  0.8201E+01
     -1.961  0.5742E+00  0.8255E+01
     -1.840  0.8436E+00  0.8341E+01
     -1.718  0.4509E+00  0.8415E+01
     -1.597  0.4200E+00  0.8468E+01
     -1.476  0.3891E+00  0.8517E+01
     -1.354  0.3582E+00  0.8563E+01
     -1.233  0.3274E+00  0.8604E+01
     -1.111  0.3045E+00  0.8643E+01
     -0.990  0.2816E+00  0.8678E+01
     -0.869  0.2706E+00  0.8712E+01
     -0.747  0.2651E+00  0.8744E+01
     -0.626  0.2597E+00  0.8776E+01
     -0.505  0.2542E+00  0.8807E+01
     -0.383  0.4078E+00  0.8845E+01
     -0.262  0.6063E+00  0.8907E+01
     -0.140  0.4409E+00  0.8961E+01
     -0.019  0.4525E+00  0.9015E+01
      0.102  0.4646E+00  0.9071E+01
      0.224  0.4662E+00  0.9127E+01
      0.345  0.5272E+00  0.9185E+01
      0.466  0.7110E+00  0.9260E+01
      0.588  0.8402E+00  0.9350E+01
      0.709  0.1248E+01  0.9476E+01
      0.830  0.1050E+01  0.9612E+01
      0.952  0.1102E+01  0.9742E+01
      1.073  0.1124E+01  0.9878E+01
      1.195  0.1136E+01  0.1001E+02
      1.316  0.1165E+01  0.1015E+02
      1.437  0.1189E+01  0.1030E+02
      1.559  0.1222E+01  0.1044E+02
      1.680  0.1177E+01  0.1059E+02
      1.801  0.1132E+01  0.1073E+02
      1.923  0.1136E+01  0.1087E+02
      2.044  0.1160E+01  0.1101E+02
      2.166  0.1159E+01  0.1115E+02
      2.287  0.9918E+00  0.1127E+02
      2.408  0.9543E+00  0.1139E+02
      2.530  0.8742E+00  0.1150E+02
      2.651  0.8092E+00  0.1160E+02
      2.772  0.7973E+00  0.1170E+02
      2.894  0.7855E+00  0.1179E+02
      3.015  0.7688E+00  0.1189E+02
      3.136  0.7592E+00  0.1198E+02
      3.258  0.7700E+00  0.1207E+02
      3.379  0.7902E+00  0.1217E+02
      3.501  0.8122E+00  0.1226E+02
      3.622  0.8581E+00  0.1236E+02
      3.743  0.1072E+01  0.1248E+02
      3.865  0.1072E+01  0.1261E+02
      3.986  0.1075E+01  0.1274E+02
      4.107  0.1078E+01  0.1288E+02
      4.229  0.1017E+01  0.1300E+02
      4.350  0.9188E+00  0.1312E+02
      4.472  0.8423E+00  0.1323E+02
      4.593  0.8082E+00  0.1333E+02
      4.714  0.7921E+00  0.1342E+02
      4.836  0.7759E+00  0.1352E+02
      4.957  0.7507E+00  0.1361E+02
      5.078  0.7328E+00  0.1370E+02
      5.200  0.7257E+00  0.1379E+02
      5.321  0.7185E+00  0.1388E+02
      5.443  0.7114E+00  0.1396E+02
      5.564  0.7111E+00  0.1405E+02
      5.685  0.7144E+00  0.1414E+02
      5.807  0.7142E+00  0.1422E+02
      5.928  0.7143E+00  0.1431E+02
      6.049  0.7176E+00  0.1440E+02
      6.171  0.7242E+00  0.1448E+02
      6.292  0.7427E+00  0.1457E+02
      6.413  0.8810E+00  0.1467E+02
      6.535  0.8517E+00  0.1477E+02
      6.656  0.8231E+00  0.1488E+02
      6.778  0.7980E+00  0.1497E+02
      6.899  0.8430E+00  0.1507E+02
      7.020  0.1119E+01  0.1519E+02
      7.142  0.5887E+00  0.1533E+02
      7.263  0.8213E+00  0.1543E+02
      7.384  0.6391E+00  0.1552E+02
      7.506  0.4739E+00  0.1558E+02
      7.627  0.6712E+00  0.1565E+02
      7.749  0.4520E+00  0.1572E+02
      7.870  0.2436E+00  0.1576E+02
      7.991  0.2266E+00  0.1579E+02
      8.113  0.2344E+00  0.1582E+02
      8.234  0.2422E+00  0.1585E+02
      8.355  0.2499E+00  0.1588E+02
      8.477  0.2748E+00  0.1591E+02
      8.598  0.2248E+00  0.1594E+02
      8.719  0.1748E+00  0.1596E+02
      8.841  0.1248E+00  0.1598E+02
      8.962  0.7480E-01  0.1599E+02
      9.084  0.2481E-01  0.1600E+02
      9.205  0.0000E+00  0.1600E+02
      9.326  0.0000E+00  0.1600E+02
      9.448  0.0000E+00  0.1600E+02
      9.569  0.0000E+00  0.1600E+02
      9.690  0.0000E+00  0.1600E+02
      9.812  0.0000E+00  0.1600E+02
      9.933  0.0000E+00  0.1600E+02
     10.055  0.0000E+00  0.1600E+02
     10.176  0.0000E+00  0.1600E+02
     10.297  0.0000E+00  0.1600E+02
     10.419  0.0000E+00  0.1600E+02
     10.540  0.0000E+00  0.1600E+02
     10.661  0.0000E+00  0.1600E+02
     10.783  0.0000E+00  0.1600E+02
     10.904  0.0000E+00  0.1600E+02
     11.026  0.0000E+00  0.1600E+02
     11.147  0.0000E+00  0.1600E+02
