    2    2    1    1
  0.1579781E+03  0.2466437E-09  0.2466437E-09  0.6000000E-08  0.5000000E-15
  1.000000000000000E-004
  CAR 
 graphite                                
      8    215      8
 
  0.0000000E+00  0.0000000E+00  0.0000000E+00  0.8680556E-03
    1      -23.263962
    2      -11.366987
    3       -6.794520
    4       -6.770280
    5       -0.477880
    6        0.291619
    7        0.494614
    8        0.548208
 
  0.8333333E-01 -0.6938894E-17  0.0000000E+00  0.3472222E-02
    1      -23.099858
    2      -11.171120
    3       -7.428044
    4       -7.126714
    5       -0.255110
    6        0.517761
    7        0.723748
    8        0.777190
 
  0.1666667E+00 -0.1387779E-16  0.0000000E+00  0.3472222E-02
    1      -22.609325
    2      -10.588778
    3       -9.067068
    4       -7.919550
    5        0.413146
    6        1.194953
    7        1.411150
    8        1.464093
 
  0.2500000E+00  0.2775558E-16  0.0000000E+00  0.3472222E-02
    1      -21.798187
    2      -11.167052
    3       -9.639180
    4       -8.799279
    5        1.524675
    6        2.309078
    7        2.556813
    8        2.608267
 
  0.3333333E+00 -0.2775558E-16  0.0000000E+00  0.3472222E-02
    1      -20.678684
    2      -13.371758
    3       -9.532470
    4       -8.372598
    5        1.158485
    6        3.066537
    7        3.913826
    8        3.954650
 
  0.4166667E+00 -0.2775558E-16  0.0000000E+00  0.3472222E-02
    1      -19.282403
    2      -15.472753
    3      -10.005195
    4       -6.952034
    5       -0.973073
    6        3.693068
    7        5.076539
    8        5.916189
 
  0.5000000E+00  0.5551115E-16  0.0000000E+00  0.1736111E-02
    1      -18.022054
    2      -16.975862
    3      -10.167461
    4       -6.109025
    5       -2.068779
    6        3.613347
    7        7.376729
    8        7.528793
 
  0.8333333E-01  0.8333333E-01  0.0000000E+00  0.1736111E-02
    1      -22.772306
    2      -10.781674
    3       -8.459168
    4       -7.807870
    5        0.190926
    6        0.969841
    7        1.182325
    8        1.235447
 
  0.1666667E+00  0.8333333E-01  0.0000000E+00  0.3472222E-02
    1      -22.121244
    2      -10.173206
    3      -10.014312
    4       -8.803272
    5        1.082033
    6        1.870529
    7        2.099171
    8        2.151535
 
  0.2500000E+00  0.8333333E-01  0.0000000E+00  0.3472222E-02
    1      -21.155518
    2      -12.249227
    3       -9.688294
    4       -8.899591
    5        2.168020
    6        2.413868
    7        3.238258
    8        3.474275
 
  0.3333333E+00  0.8333333E-01  0.0000000E+00  0.3472222E-02
    1      -19.894207
    2      -14.373673
    3      -10.323001
    4       -7.521836
    5       -0.028791
    6        4.153390
    7        4.556253
    8        5.013676
 
  0.4166667E+00  0.8333333E-01  0.0000000E+00  0.3472222E-02
    1      -18.415172
    2      -16.314771
    3      -10.651799
    4       -6.215015
    5       -1.794208
    6        4.352171
    7        6.374824
    8        7.189004
 
  0.5000000E+00  0.8333333E-01  0.0000000E+00  0.3472222E-02
    1      -18.417295
    2      -16.312416
    3      -10.652357
    4       -6.215988
    5       -1.793418
    6        4.353141
    7        6.371227
    8        7.186133
 
 -0.4166667E+00  0.8333333E-01  0.0000000E+00  0.3472222E-02
    1      -19.896256
    2      -14.371151
    3      -10.324415
    4       -7.523403
    5       -0.027932
    6        4.151117
    7        4.558582
    8        5.011067
 
 -0.3333333E+00  0.8333333E-01  0.0000000E+00  0.3472222E-02
    1      -21.157160
    2      -12.247844
    3       -9.689402
    4       -8.901028
    5        2.167834
    6        2.411742
    7        3.236149
    8        3.472114
 
 -0.2500000E+00  0.8333333E-01  0.0000000E+00  0.3472222E-02
    1      -22.122432
    2      -10.176251
    3      -10.015417
    4       -8.800453
    5        1.080526
    6        1.869045
    7        2.097627
    8        2.149995
 
 -0.1666667E+00  0.8333333E-01  0.0000000E+00  0.3472222E-02
    1      -22.773023
    2      -10.782363
    3       -8.473621
    4       -7.793575
    5        0.190030
    6        0.968941
    7        1.181399
    8        1.234522
 
 -0.8333333E-01  0.8333333E-01  0.0000000E+00  0.1736111E-02
    1      -23.100098
    2      -11.171353
    3       -7.446194
    4       -7.108494
    5       -0.255408
    6        0.517460
    7        0.723439
    8        0.776882
 
  0.1666667E+00  0.1666667E+00  0.0000000E+00  0.1736111E-02
    1      -21.315548
    2      -11.505424
    3      -10.165246
    4       -9.077920
    5        2.194509
    6        2.622968
    7        2.990895
    8        3.245459
 
  0.2500000E+00  0.1666667E+00  0.0000000E+00  0.3472222E-02
    1      -20.206510
    2      -13.235736
    3      -11.220615
    4       -7.826267
    5        0.677433
    6        3.742521
    7        4.539151
    8        4.849998
 
  0.3333333E+00  0.1666667E+00  0.0000000E+00  0.3472222E-02
    1      -18.829834
    2      -15.147933
    3      -11.796581
    4       -6.401683
    5       -1.232157
    6        5.696958
    7        6.270838
    8        6.440063
 
  0.4166667E+00  0.1666667E+00  0.0000000E+00  0.3472222E-02
    1      -17.600435
    2      -16.577766
    3      -11.981992
    4       -5.511959
    5       -2.297458
    6        6.162344
    7        7.861506
    8        7.936141
 
  0.5000000E+00  0.1666667E+00  0.0000000E+00  0.3472222E-02
    1      -18.834112
    2      -15.143508
    3      -11.797338
    4       -6.404531
    5       -1.230665
    6        5.690848
    7        6.273456
    8        6.435099
 
 -0.4166667E+00  0.1666667E+00  0.0000000E+00  0.3472222E-02
    1      -20.210166
    2      -13.234266
    3      -11.219509
    4       -7.829298
    5        0.677187
    6        3.737579
    7        4.534575
    8        4.845058
 
 -0.3333333E+00  0.1666667E+00  0.0000000E+00  0.3472222E-02
    1      -21.318356
    2      -11.513695
    3      -10.155342
    4       -9.080456
    5        2.190857
    6        2.619867
    7        2.987369
    8        3.241754
 
 -0.2500000E+00  0.1666667E+00  0.0000000E+00  0.3472222E-02
    1      -22.123135
    2      -10.189636
    3      -10.016099
    4       -8.785584
    5        1.079631
    6        1.868132
    7        2.096701
    8        2.149068
 
 -0.1666667E+00  0.1666667E+00  0.0000000E+00  0.1736111E-02
    1      -22.610276
    2      -10.589698
    3       -9.085305
    4       -7.900214
    5        0.411952
    6        1.193749
    7        1.409915
    8        1.462859
 
  0.2500000E+00  0.2500000E+00  0.0000000E+00  0.1736111E-02
    1      -18.977119
    2      -14.273518
    3      -12.703633
    4       -6.485265
    5       -0.936299
    6        5.490423
    7        6.155362
    8        6.683945
 
  0.3333333E+00  0.2500000E+00  0.0000000E+00  0.3472222E-02
    1      -17.555110
    2      -15.695722
    3      -13.410637
    4       -5.102245
    5       -2.454868
    6        7.130084
    7        7.581603
    8        8.435081
 
  0.4166667E+00  0.2500000E+00  0.0000000E+00  0.3472222E-02
    1      -17.560804
    2      -15.691521
    3      -13.409162
    4       -5.105362
    5       -2.453310
    6        7.129560
    7        7.570486
    8        8.436317
 
  0.5000000E+00  0.2500000E+00  0.0000000E+00  0.3472222E-02
    1      -18.982901
    2      -14.276592
    3      -12.694795
    4       -6.489716
    5       -0.936732
    6        5.481938
    7        6.149423
    8        6.675611
 
 -0.4166667E+00  0.2500000E+00  0.0000000E+00  0.3472222E-02
    1      -20.211251
    2      -13.246452
    3      -11.204986
    4       -7.830371
    5        0.673336
    6        3.736109
    7        4.533291
    8        4.843514
 
 -0.3333333E+00  0.2500000E+00  0.0000000E+00  0.3472222E-02
    1      -21.158980
    2      -12.263729
    3       -9.669582
    4       -8.902781
    5        2.160903
    6        2.409396
    7        3.233902
    8        3.469644
 
 -0.2500000E+00  0.2500000E+00  0.0000000E+00  0.1736111E-02
    1      -21.800285
    2      -11.183990
    3       -9.641185
    4       -8.778883
    5        1.522011
    6        2.306286
    7        2.554036
    8        2.605413
 
  0.3333333E+00  0.3333333E+00  0.0000000E+00  0.1736111E-02
    1      -16.342553
    2      -16.341588
    3      -14.298807
    4       -3.752755
    5       -3.749267
    6        6.871035
    7        9.128617
    8        9.146877
 
  0.4166667E+00  0.3333333E+00  0.0000000E+00  0.3472222E-02
    1      -17.561640
    2      -15.702299
    3      -13.396781
    4       -5.107227
    5       -2.455325
    6        7.132193
    7        7.569053
    8        8.476146
 
  0.5000000E+00  0.3333333E+00  0.0000000E+00  0.3472222E-02
    1      -18.836384
    2      -15.157372
    3      -11.779076
    4       -6.407054
    5       -1.236590
    6        5.688511
    7        6.312670
    8        6.432953
 
 -0.4166667E+00  0.3333333E+00  0.0000000E+00  0.3472222E-02
    1      -19.899459
    2      -14.385869
    3      -10.303228
    4       -7.526517
    5       -0.036463
    6        4.149955
    7        4.592805
    8        5.006927
 
 -0.3333333E+00  0.3333333E+00  0.0000000E+00  0.1736111E-02
    1      -20.682283
    2      -13.386613
    3       -9.511175
    4       -8.375972
    5        1.149447
    6        3.062505
    7        3.909183
    8        3.990247
 
  0.4166667E+00  0.4166667E+00  0.0000000E+00  0.1736111E-02
    1      -17.603458
    2      -16.590938
    3      -11.963556
    4       -5.516696
    5       -2.302716
    6        6.204922
    7        7.865049
    8        7.923769
 
  0.5000000E+00  0.4166667E+00  0.0000000E+00  0.3472222E-02
    1      -18.421306
    2      -16.325917
    3      -10.631079
    4       -6.220589
    5       -1.801871
    6        4.393041
    7        6.363947
    8        7.180499
 
 -0.4166667E+00  0.4166667E+00  0.0000000E+00  0.1736111E-02
    1      -19.287508
    2      -15.485559
    3       -9.983309
    4       -6.956803
    5       -0.982227
    6        3.731762
    7        5.069110
    8        5.909213
 
  0.5000000E+00  0.5000000E+00  0.0000000E+00  0.8680556E-03
    1      -18.025849
    2      -16.989774
    3      -10.145372
    4       -6.114509
    5       -2.077664
    6        3.652887
    7        7.363598
    8        7.520016
 
  0.0000000E+00  0.0000000E+00  0.1250000E+00  0.1736111E-02
    1      -23.263962
    2      -11.366987
    3       -6.794520
    4       -6.770280
    5       -0.477880
    6        0.291618
    7        0.495088
    8        0.545946
 
  0.8333333E-01 -0.6938894E-17  0.1250000E+00  0.6944444E-02
    1      -23.099858
    2      -11.171122
    3       -7.428042
    4       -7.126721
    5       -0.255110
    6        0.517760
    7        0.724218
    8        0.774949
 
  0.1666667E+00 -0.1387779E-16  0.1250000E+00  0.6944444E-02
    1      -22.609326
    2      -10.588783
    3       -9.067069
    4       -7.919550
    5        0.413146
    6        1.194952
    7        1.411605
    8        1.461924
 
  0.2500000E+00  0.2775558E-16  0.1250000E+00  0.6944444E-02
    1      -21.798187
    2      -11.167051
    3       -9.639178
    4       -8.799279
    5        1.524675
    6        2.309082
    7        2.557220
    8        2.606282
 
  0.3333333E+00 -0.2775558E-16  0.1250000E+00  0.6944444E-02
    1      -20.678683
    2      -13.371757
    3       -9.532472
    4       -8.372597
    5        1.158486
    6        3.066537
    7        3.913826
    8        3.954653
 
  0.4166667E+00 -0.2775558E-16  0.1250000E+00  0.6944444E-02
    1      -19.282403
    2      -15.472753
    3      -10.005199
    4       -6.952033
    5       -0.973075
    6        3.693067
    7        5.076539
    8        5.916189
 
  0.5000000E+00  0.5551115E-16  0.1250000E+00  0.3472222E-02
    1      -18.022055
    2      -16.975865
    3      -10.167469
    4       -6.109023
    5       -2.068779
    6        3.613345
    7        7.376729
    8        7.528793
 
  0.8333333E-01  0.8333333E-01  0.1250000E+00  0.3472222E-02
    1      -22.772306
    2      -10.781678
    3       -8.459171
    4       -7.807871
    5        0.190926
    6        0.969840
    7        1.182786
    8        1.233252
 
  0.1666667E+00  0.8333333E-01  0.1250000E+00  0.6944444E-02
    1      -22.121244
    2      -10.173206
    3      -10.014313
    4       -8.803271
    5        1.082034
    6        1.870528
    7        2.099608
    8        2.149454
 
  0.2500000E+00  0.8333333E-01  0.1250000E+00  0.6944444E-02
    1      -21.155518
    2      -12.249226
    3       -9.688293
    4       -8.899591
    5        2.168023
    6        2.413868
    7        3.238252
    8        3.474703
 
  0.3333333E+00  0.8333333E-01  0.1250000E+00  0.6944444E-02
    1      -19.894207
    2      -14.373673
    3      -10.323004
    4       -7.521836
    5       -0.028788
    6        4.153390
    7        4.556253
    8        5.013676
 
  0.4166667E+00  0.8333333E-01  0.1250000E+00  0.6944444E-02
    1      -18.415172
    2      -16.314771
    3      -10.651797
    4       -6.215016
    5       -1.794208
    6        4.352171
    7        6.374824
    8        7.189004
 
  0.5000000E+00  0.8333333E-01  0.1250000E+00  0.6944444E-02
    1      -18.417295
    2      -16.312416
    3      -10.652355
    4       -6.215987
    5       -1.793414
    6        4.353142
    7        6.371227
    8        7.186133
 
 -0.4166667E+00  0.8333333E-01  0.1250000E+00  0.6944444E-02
    1      -19.896255
    2      -14.371151
    3      -10.324413
    4       -7.523403
    5       -0.027927
    6        4.151117
    7        4.558582
    8        5.011067
 
 -0.3333333E+00  0.8333333E-01  0.1250000E+00  0.6944444E-02
    1      -21.157161
    2      -12.247844
    3       -9.689404
    4       -8.901029
    5        2.167835
    6        2.411742
    7        3.236144
    8        3.472542
 
 -0.2500000E+00  0.8333333E-01  0.1250000E+00  0.6944444E-02
    1      -22.122432
    2      -10.176249
    3      -10.015419
    4       -8.800451
    5        1.080526
    6        1.869045
    7        2.098063
    8        2.147913
 
 -0.1666667E+00  0.8333333E-01  0.1250000E+00  0.6944444E-02
    1      -22.773023
    2      -10.782367
    3       -8.473621
    4       -7.793574
    5        0.190029
    6        0.968940
    7        1.181859
    8        1.232327
 
 -0.8333333E-01  0.8333333E-01  0.1250000E+00  0.3472222E-02
    1      -23.100098
    2      -11.171356
    3       -7.446195
    4       -7.108497
    5       -0.255408
    6        0.517459
    7        0.723909
    8        0.774641
 
  0.1666667E+00  0.1666667E+00  0.1250000E+00  0.3472222E-02
    1      -21.315549
    2      -11.505425
    3      -10.165245
    4       -9.077922
    5        2.194509
    6        2.622968
    7        2.990894
    8        3.245867
 
  0.2500000E+00  0.1666667E+00  0.1250000E+00  0.6944444E-02
    1      -20.206510
    2      -13.235737
    3      -11.220616
    4       -7.826267
    5        0.677431
    6        3.742521
    7        4.539150
    8        4.850362
 
  0.3333333E+00  0.1666667E+00  0.1250000E+00  0.6944444E-02
    1      -18.829834
    2      -15.147936
    3      -11.796582
    4       -6.401685
    5       -1.232165
    6        5.696958
    7        6.270837
    8        6.440063
 
  0.4166667E+00  0.1666667E+00  0.1250000E+00  0.6944444E-02
    1      -17.600434
    2      -16.577765
    3      -11.981994
    4       -5.511960
    5       -2.297458
    6        6.162346
    7        7.861506
    8        7.936141
 
  0.5000000E+00  0.1666667E+00  0.1250000E+00  0.6944444E-02
    1      -18.834111
    2      -15.143510
    3      -11.797341
    4       -6.404532
    5       -1.230669
    6        5.690848
    7        6.273455
    8        6.435099
 
 -0.4166667E+00  0.1666667E+00  0.1250000E+00  0.6944444E-02
    1      -20.210166
    2      -13.234267
    3      -11.219509
    4       -7.829300
    5        0.677186
    6        3.737579
    7        4.534574
    8        4.845421
 
 -0.3333333E+00  0.1666667E+00  0.1250000E+00  0.6944444E-02
    1      -21.318356
    2      -11.513697
    3      -10.155343
    4       -9.080458
    5        2.190857
    6        2.619866
    7        2.987368
    8        3.242163
 
 -0.2500000E+00  0.1666667E+00  0.1250000E+00  0.6944444E-02
    1      -22.123135
    2      -10.189634
    3      -10.016098
    4       -8.785583
    5        1.079631
    6        1.868132
    7        2.097138
    8        2.146987
 
 -0.1666667E+00  0.1666667E+00  0.1250000E+00  0.3472222E-02
    1      -22.610276
    2      -10.589702
    3       -9.085304
    4       -7.900211
    5        0.411952
    6        1.193748
    7        1.410370
    8        1.460690
 
  0.2500000E+00  0.2500000E+00  0.1250000E+00  0.3472222E-02
    1      -18.977118
    2      -14.273514
    3      -12.703631
    4       -6.485262
    5       -0.936293
    6        5.490423
    7        6.155361
    8        6.684173
 
  0.3333333E+00  0.2500000E+00  0.1250000E+00  0.6944444E-02
    1      -17.555110
    2      -15.695721
    3      -13.410635
    4       -5.102242
    5       -2.454866
    6        7.130085
    7        7.581603
    8        8.435083
 
  0.4166667E+00  0.2500000E+00  0.1250000E+00  0.6944444E-02
    1      -17.560805
    2      -15.691522
    3      -13.409160
    4       -5.105361
    5       -2.453309
    6        7.129561
    7        7.570486
    8        8.436322
 
  0.5000000E+00  0.2500000E+00  0.1250000E+00  0.6944444E-02
    1      -18.982900
    2      -14.276592
    3      -12.694795
    4       -6.489714
    5       -0.936728
    6        5.481938
    7        6.149422
    8        6.675837
 
 -0.4166667E+00  0.2500000E+00  0.1250000E+00  0.6944444E-02
    1      -20.211250
    2      -13.246454
    3      -11.204986
    4       -7.830373
    5        0.673335
    6        3.736109
    7        4.533290
    8        4.843877
 
 -0.3333333E+00  0.2500000E+00  0.1250000E+00  0.6944444E-02
    1      -21.158980
    2      -12.263730
    3       -9.669580
    4       -8.902782
    5        2.160906
    6        2.409396
    7        3.233896
    8        3.470073
 
 -0.2500000E+00  0.2500000E+00  0.1250000E+00  0.3472222E-02
    1      -21.800285
    2      -11.183987
    3       -9.641181
    4       -8.778880
    5        1.522012
    6        2.306284
    7        2.554442
    8        2.603501
 
  0.3333333E+00  0.3333333E+00  0.1250000E+00  0.3472222E-02
    1      -16.342553
    2      -16.341588
    3      -14.298804
    4       -3.752755
    5       -3.749269
    6        6.871036
    7        9.128618
    8        9.146876
 
  0.4166667E+00  0.3333333E+00  0.1250000E+00  0.6944444E-02
    1      -17.561640
    2      -15.702296
    3      -13.396779
    4       -5.107227
    5       -2.455322
    6        7.132195
    7        7.569053
    8        8.476151
 
  0.5000000E+00  0.3333333E+00  0.1250000E+00  0.6944444E-02
    1      -18.836383
    2      -15.157371
    3      -11.779079
    4       -6.407055
    5       -1.236596
    6        5.688511
    7        6.312671
    8        6.432953
 
 -0.4166667E+00  0.3333333E+00  0.1250000E+00  0.6944444E-02
    1      -19.899460
    2      -14.385871
    3      -10.303229
    4       -7.526515
    5       -0.036459
    6        4.149955
    7        4.592805
    8        5.006927
 
 -0.3333333E+00  0.3333333E+00  0.1250000E+00  0.3472222E-02
    1      -20.682281
    2      -13.386612
    3       -9.511174
    4       -8.375969
    5        1.149447
    6        3.062506
    7        3.909182
    8        3.990247
 
  0.4166667E+00  0.4166667E+00  0.1250000E+00  0.3472222E-02
    1      -17.603458
    2      -16.590938
    3      -11.963554
    4       -5.516698
    5       -2.302717
    6        6.204921
    7        7.865049
    8        7.923769
 
  0.5000000E+00  0.4166667E+00  0.1250000E+00  0.6944444E-02
    1      -18.421307
    2      -16.325917
    3      -10.631079
    4       -6.220589
    5       -1.801870
    6        4.393037
    7        6.363946
    8        7.180499
 
 -0.4166667E+00  0.4166667E+00  0.1250000E+00  0.3472222E-02
    1      -19.287508
    2      -15.485560
    3       -9.983312
    4       -6.956806
    5       -0.982228
    6        3.731763
    7        5.069110
    8        5.909213
 
  0.5000000E+00  0.5000000E+00  0.1250000E+00  0.1736111E-02
    1      -18.025848
    2      -16.989770
    3      -10.145374
    4       -6.114505
    5       -2.077661
    6        3.652890
    7        7.363599
    8        7.520017
 
  0.0000000E+00  0.0000000E+00  0.2500000E+00  0.1736111E-02
    1      -23.263962
    2      -11.366988
    3       -6.794524
    4       -6.770278
    5       -0.477880
    6        0.291616
    7        0.496324
    8        0.541053
 
  0.8333333E-01 -0.6938894E-17  0.2500000E+00  0.6944444E-02
    1      -23.099858
    2      -11.171125
    3       -7.428042
    4       -7.126723
    5       -0.255110
    6        0.517758
    7        0.725441
    8        0.770099
 
  0.1666667E+00 -0.1387779E-16  0.2500000E+00  0.6944444E-02
    1      -22.609325
    2      -10.588783
    3       -9.067070
    4       -7.919551
    5        0.413146
    6        1.194951
    7        1.412787
    8        1.457216
 
  0.2500000E+00  0.2775558E-16  0.2500000E+00  0.6944444E-02
    1      -21.798187
    2      -11.167050
    3       -9.639180
    4       -8.799278
    5        1.524675
    6        2.309077
    7        2.558270
    8        2.602073
 
  0.3333333E+00 -0.2775558E-16  0.2500000E+00  0.6944444E-02
    1      -20.678683
    2      -13.371757
    3       -9.532476
    4       -8.372593
    5        1.158487
    6        3.066537
    7        3.913826
    8        3.954655
 
  0.4166667E+00 -0.2775558E-16  0.2500000E+00  0.6944444E-02
    1      -19.282403
    2      -15.472752
    3      -10.005200
    4       -6.952036
    5       -0.973075
    6        3.693069
    7        5.076539
    8        5.916189
 
  0.5000000E+00  0.5551115E-16  0.2500000E+00  0.3472222E-02
    1      -18.022054
    2      -16.975864
    3      -10.167471
    4       -6.109023
    5       -2.068780
    6        3.613348
    7        7.376729
    8        7.528793
 
  0.8333333E-01  0.8333333E-01  0.2500000E+00  0.3472222E-02
    1      -22.772306
    2      -10.781676
    3       -8.459173
    4       -7.807871
    5        0.190926
    6        0.969839
    7        1.183983
    8        1.228493
 
  0.1666667E+00  0.8333333E-01  0.2500000E+00  0.6944444E-02
    1      -22.121244
    2      -10.173208
    3      -10.014311
    4       -8.803271
    5        1.082034
    6        1.870528
    7        2.100742
    8        2.144920
 
  0.2500000E+00  0.8333333E-01  0.2500000E+00  0.6944444E-02
    1      -21.155518
    2      -12.249226
    3       -9.688293
    4       -8.899591
    5        2.168023
    6        2.413868
    7        3.238252
    8        3.475844
 
  0.3333333E+00  0.8333333E-01  0.2500000E+00  0.6944444E-02
    1      -19.894208
    2      -14.373672
    3      -10.323004
    4       -7.521836
    5       -0.028791
    6        4.153390
    7        4.556255
    8        5.013676
 
  0.4166667E+00  0.8333333E-01  0.2500000E+00  0.6944444E-02
    1      -18.415171
    2      -16.314771
    3      -10.651796
    4       -6.215015
    5       -1.794208
    6        4.352169
    7        6.374824
    8        7.189004
 
  0.5000000E+00  0.8333333E-01  0.2500000E+00  0.6944444E-02
    1      -18.417295
    2      -16.312415
    3      -10.652354
    4       -6.215986
    5       -1.793415
    6        4.353142
    7        6.371227
    8        7.186133
 
 -0.4166667E+00  0.8333333E-01  0.2500000E+00  0.6944444E-02
    1      -19.896255
    2      -14.371150
    3      -10.324414
    4       -7.523404
    5       -0.027929
    6        4.151117
    7        4.558581
    8        5.011067
 
 -0.3333333E+00  0.8333333E-01  0.2500000E+00  0.6944444E-02
    1      -21.157162
    2      -12.247844
    3       -9.689404
    4       -8.901029
    5        2.167837
    6        2.411741
    7        3.236143
    8        3.473653
 
 -0.2500000E+00  0.8333333E-01  0.2500000E+00  0.6944444E-02
    1      -22.122432
    2      -10.176249
    3      -10.015416
    4       -8.800453
    5        1.080526
    6        1.869044
    7        2.099199
    8        2.143378
 
 -0.1666667E+00  0.8333333E-01  0.2500000E+00  0.6944444E-02
    1      -22.773023
    2      -10.782363
    3       -8.473620
    4       -7.793572
    5        0.190030
    6        0.968939
    7        1.183056
    8        1.227567
 
 -0.8333333E-01  0.8333333E-01  0.2500000E+00  0.3472222E-02
    1      -23.100098
    2      -11.171359
    3       -7.446195
    4       -7.108502
    5       -0.255408
    6        0.517457
    7        0.725132
    8        0.769790
 
  0.1666667E+00  0.1666667E+00  0.2500000E+00  0.3472222E-02
    1      -21.315549
    2      -11.505429
    3      -10.165248
    4       -9.077924
    5        2.194509
    6        2.622967
    7        2.990894
    8        3.246916
 
  0.2500000E+00  0.1666667E+00  0.2500000E+00  0.6944444E-02
    1      -20.206510
    2      -13.235739
    3      -11.220620
    4       -7.826269
    5        0.677427
    6        3.742521
    7        4.539150
    8        4.851282
 
  0.3333333E+00  0.1666667E+00  0.2500000E+00  0.6944444E-02
    1      -18.829835
    2      -15.147937
    3      -11.796584
    4       -6.401687
    5       -1.232165
    6        5.696957
    7        6.270833
    8        6.440063
 
  0.4166667E+00  0.1666667E+00  0.2500000E+00  0.6944444E-02
    1      -17.600434
    2      -16.577764
    3      -11.981991
    4       -5.511954
    5       -2.297458
    6        6.162345
    7        7.861507
    8        7.936142
 
  0.5000000E+00  0.1666667E+00  0.2500000E+00  0.6944444E-02
    1      -18.834111
    2      -15.143510
    3      -11.797340
    4       -6.404535
    5       -1.230673
    6        5.690848
    7        6.273451
    8        6.435099
 
 -0.4166667E+00  0.1666667E+00  0.2500000E+00  0.6944444E-02
    1      -20.210166
    2      -13.234267
    3      -11.219511
    4       -7.829303
    5        0.677184
    6        3.737579
    7        4.534574
    8        4.846343
 
 -0.3333333E+00  0.1666667E+00  0.2500000E+00  0.6944444E-02
    1      -21.318356
    2      -11.513698
    3      -10.155345
    4       -9.080460
    5        2.190857
    6        2.619864
    7        2.987367
    8        3.243212
 
 -0.2500000E+00  0.1666667E+00  0.2500000E+00  0.6944444E-02
    1      -22.123134
    2      -10.189633
    3      -10.016097
    4       -8.785583
    5        1.079631
    6        1.868131
    7        2.098273
    8        2.142452
 
 -0.1666667E+00  0.1666667E+00  0.2500000E+00  0.3472222E-02
    1      -22.610275
    2      -10.589700
    3       -9.085301
    4       -7.900207
    5        0.411952
    6        1.193747
    7        1.411552
    8        1.455982
 
  0.2500000E+00  0.2500000E+00  0.2500000E+00  0.3472222E-02
    1      -18.977118
    2      -14.273511
    3      -12.703629
    4       -6.485263
    5       -0.936294
    6        5.490423
    7        6.155361
    8        6.685139
 
  0.3333333E+00  0.2500000E+00  0.2500000E+00  0.6944444E-02
    1      -17.555109
    2      -15.695720
    3      -13.410633
    4       -5.102243
    5       -2.454863
    6        7.130086
    7        7.581603
    8        8.435087
 
  0.4166667E+00  0.2500000E+00  0.2500000E+00  0.6944444E-02
    1      -17.560804
    2      -15.691521
    3      -13.409159
    4       -5.105361
    5       -2.453306
    6        7.129562
    7        7.570486
    8        8.436324
 
  0.5000000E+00  0.2500000E+00  0.2500000E+00  0.6944444E-02
    1      -18.982900
    2      -14.276592
    3      -12.694796
    4       -6.489715
    5       -0.936730
    6        5.481938
    7        6.149422
    8        6.676826
 
 -0.4166667E+00  0.2500000E+00  0.2500000E+00  0.6944444E-02
    1      -20.211250
    2      -13.246453
    3      -11.204988
    4       -7.830374
    5        0.673334
    6        3.736109
    7        4.533290
    8        4.844805
 
 -0.3333333E+00  0.2500000E+00  0.2500000E+00  0.6944444E-02
    1      -21.158981
    2      -12.263732
    3       -9.669580
    4       -8.902783
    5        2.160906
    6        2.409396
    7        3.233894
    8        3.471195
 
 -0.2500000E+00  0.2500000E+00  0.2500000E+00  0.3472222E-02
    1      -21.800286
    2      -11.183987
    3       -9.641182
    4       -8.778880
    5        1.522011
    6        2.306280
    7        2.555491
    8        2.599294
 
  0.3333333E+00  0.3333333E+00  0.2500000E+00  0.3472222E-02
    1      -16.342555
    2      -16.341590
    3      -14.298805
    4       -3.752755
    5       -3.749269
    6        6.871036
    7        9.128618
    8        9.146876
 
  0.4166667E+00  0.3333333E+00  0.2500000E+00  0.6944444E-02
    1      -17.561639
    2      -15.702295
    3      -13.396780
    4       -5.107227
    5       -2.455321
    6        7.132195
    7        7.569053
    8        8.476152
 
  0.5000000E+00  0.3333333E+00  0.2500000E+00  0.6944444E-02
    1      -18.836382
    2      -15.157371
    3      -11.779079
    4       -6.407058
    5       -1.236597
    6        5.688510
    7        6.312672
    8        6.432953
 
 -0.4166667E+00  0.3333333E+00  0.2500000E+00  0.6944444E-02
    1      -19.899460
    2      -14.385871
    3      -10.303230
    4       -7.526516
    5       -0.036462
    6        4.149955
    7        4.592803
    8        5.006926
 
 -0.3333333E+00  0.3333333E+00  0.2500000E+00  0.3472222E-02
    1      -20.682281
    2      -13.386611
    3       -9.511176
    4       -8.375966