graphite                                
           1
     2.466437    0.000000    0.000000
    -1.234880    2.135037    0.000000
     0.000000    0.000000   60.000000
   C 
   2
Direct configuration=     1
   0.99934661  0.00065344  0.08289688
   0.33258492  0.66741508  0.08289688
