   32   32    1    1
  0.8419860E+01  0.4934311E-09  0.4934311E-09  0.1277891E-08  0.5000000E-15
  1.000000000000000E-004
  CAR 
 graphite                                
    128    163     84
 
  0.0000000E+00  0.0000000E+00  0.0000000E+00  0.3086420E-02
    1      -14.570599
    2      -14.363904
    3      -14.363320
    4      -14.136726
    5       -9.215554
    6       -9.213483
    7       -9.211637
    8       -9.124280
    9       -9.120386
   10       -9.119888
   11       -9.119537
   12       -9.119452
   13       -9.115352
   14       -9.051388
   15       -9.048947
   16       -9.046032
   17       -8.114599
   18       -8.112640
   19       -8.110819
   20       -8.075407
   21       -8.073166
   22       -8.072004
   23       -8.071667
   24       -8.071530
   25       -8.068448
   26       -7.991370
   27       -7.990089
   28       -7.988953
   29       -3.606071
   30       -2.489771
   31       -2.487702
   32       -1.290123
   33       -1.287611
   34       -1.286566
   35       -1.247770
   36       -1.245381
   37       -1.245366
   38       -1.243869
   39       -1.242222
   40       -1.240945
   41       -1.201593
   42       -1.199088
   43       -1.197927
   44       -1.103069
   45        2.111377
   46        2.115635
   47        2.127081
   48        2.128423
   49        2.133218
   50        2.134379
   51        2.145823
   52        2.149685
   53        2.205397
   54        2.207009
   55        2.208188
   56        2.754296
   57        2.758793
   58        2.759098
   59        2.759237
   60        2.759847
   61        2.764170
   62        3.081463
   63        3.083861
   64        3.086189
   65        6.662991
   66        6.665470
   67        6.667538
   68        6.753106
   69        6.756873
   70        6.758659
   71        6.758996
   72        6.759232
   73        6.763777
   74        7.446527
   75        7.448153
   76        7.449416
   77        9.879681
   78       12.225434
   79       12.229366
   80       12.232428
   81       12.496064
   82       12.499337
   83       12.502754
   84       12.503364
 
  0.1111111E+00 -0.2081668E-16  0.0000000E+00  0.6172840E-02
    1      -14.496741
    2      -14.290904
    3      -14.290322
    4      -14.064612
    5      -10.023790
    6       -9.873163
    7       -9.872636
    8       -9.713407
    9       -9.473923
   10       -9.471526
   11       -9.343581
   12       -9.341178
   13       -9.340441
   14       -9.338615
   15       -9.210012
   16       -9.207166
   17       -7.833652
   18       -7.832056
   19       -7.732284
   20       -7.731607
   21       -7.730668
   22       -7.728426
   23       -7.612089
   24       -7.610544
   25       -7.329805
   26       -7.211643
   27       -7.209750
   28       -7.082564
   29       -3.516181
   30       -2.403048
   31       -2.400982
   32       -1.518260
   33       -1.515416
   34       -1.471055
   35       -1.469254
   36       -1.466758
   37       -1.466170
   38       -1.420262
   39       -1.417508
   40       -1.215522
   41       -1.173059
   42       -1.170251
   43       -1.127305
   44       -1.020488
   45        1.588156
   46        1.808866
   47        1.828568
   48        1.833682
   49        1.852827
   50        1.955958
   51        1.973315
   52        1.978417
   53        1.996628
   54        2.078965
   55        2.081118
   56        2.332906
   57        2.336015
   58        2.702851
   59        2.707251
   60        2.707886
   61        2.709032
   62        3.038021
   63        3.166435
   64        3.169343
   65        6.710094
   66        6.712331
   67        6.887334
   68        6.888873
   69        6.890037
   70        6.894396
   71        6.937862
   72        7.294784
   73        7.299084
   74        7.583040
   75        7.584814
   76        8.064078
   77        9.965998
   78       12.270326
   79       12.538050
   80       12.539171
   81       12.562337
   82       12.567092
   83       12.826499
   84       12.839435
 
  0.2222222E+00 -0.1387779E-16  0.0000000E+00  0.6172840E-02
    1      -14.275486
    2      -14.072113
    3      -14.071539
    4      -13.848838
    5      -11.038859
    6      -10.872049
    7      -10.871568
    8      -10.692596
    9       -9.825996
   10       -9.823958
   11       -9.678817
   12       -9.676992
   13       -9.676434
   14       -9.674658
   15       -9.521133
   16       -9.518909
   17       -7.159015
   18       -7.157350
   19       -7.044475
   20       -7.043863
   21       -7.042721
   22       -7.040701
   23       -6.919593
   24       -6.917809
   25       -6.004182
   26       -5.892358
   27       -5.890562
   28       -5.772745
   29       -3.247984
   30       -2.143732
   31       -2.141684
   32       -2.128779
   33       -2.126185
   34       -2.071392
   35       -2.069630
   36       -2.067458
   37       -2.066741
   38       -2.009316
   39       -2.006760
   40       -1.000405
   41       -0.958882
   42       -0.955987
   43       -0.913958
   44       -0.774015
   45        0.545114
   46        0.978045
   47        1.010313
   48        1.014889
   49        1.047113
   50        1.445526
   51        1.448041
   52        1.533773
   53        1.558233
   54        1.563085
   55        1.588155
   56        1.841401
   57        1.843490
   58        2.472848
   59        2.581512
   60        2.585790
   61        2.586352
   62        2.587674
   63        3.288332
   64        3.291094
   65        6.896060
   66        6.898231
   67        7.221242
   68        7.222637
   69        7.223816
   70        7.228262
   71        7.879440
   72        7.881799
   73        7.996143
   74        8.515622
   75        8.519194
   76        9.272736
   77       10.225842
   78       12.392020
   79       12.650252
   80       12.651810
   81       12.900230
   82       13.137988
   83       13.141537
   84       13.470651
 
  0.3333333E+00 -0.2775558E-16  0.0000000E+00  0.6172840E-02
    1      -13.908122
    2      -13.708743
    3      -13.708182
    4      -13.490412
    5      -11.954309
    6      -11.776896
    7      -11.776390
    8      -11.584408
    9      -10.084678
   10      -10.082821
   11       -9.931078
   12       -9.929415
   13       -9.929069
   14       -9.927242
   15       -9.765792
   16       -9.763820
   17       -6.349383
   18       -6.347492
   19       -6.242777
   20       -6.242093
   21       -6.240960
   22       -6.238606
   23       -6.129241
   24       -6.127207
   25       -4.566976
   26       -4.469405
   27       -4.467365
   28       -4.364997
   29       -2.947530
   30       -2.945249
   31       -2.880974
   32       -2.878979
   33       -2.877487
   34       -2.876458
   35       -2.808243
   36       -2.805956
   37       -2.803588
   38       -1.715061
   39       -1.713025
   40       -0.651458
   41       -0.611411
   42       -0.608337
   43       -0.567561
   44       -0.487740
   45       -0.367998
   46       -0.212618
   47       -0.164436
   48       -0.160736
   49       -0.111999
   50        0.494402
   51        0.496637
   52        0.969058
   53        0.999570
   54        1.003932
   55        1.034830
   56        1.637997
   57        1.640042
   58        1.671132
   59        2.457312
   60        2.461492
   61        2.462001
   62        2.463429
   63        3.347486
   64        3.350164
   65        7.207616
   66        7.209893
   67        7.611703
   68        7.613047
   69        7.614051
   70        7.618775
   71        8.159004
   72        8.161743
   73        9.489232
   74        9.991067
   75        9.994388
   76       10.653395
   77       10.664897
   78       12.553515
   79       12.825305
   80       12.827193
   81       12.870111
   82       13.255438
   83       13.258053
   84       13.320600
 
  0.4444444E+00 -0.2775558E-16  0.0000000E+00  0.6172840E-02
    1      -13.396305
    2      -13.202615
    3      -13.202071
    4      -12.991155
    5      -12.743324
    6      -12.556836
    7      -12.556306
    8      -12.354091
    9      -10.218005
   10      -10.216226
   11      -10.061947
   12      -10.060279
   13      -10.060146
   14      -10.058234
   15       -9.893647
   16       -9.891773
   17       -5.592057
   18       -5.590066
   19       -5.513881
   20       -5.512969
   21       -5.512659
   22       -5.508897
   23       -5.435128
   24       -5.432816
   25       -3.691222
   26       -3.689438
   27       -3.638891
   28       -3.635951
   29       -3.635748
   30       -3.634314
   31       -3.573324
   32       -3.571666
   33       -3.081857
   34       -3.000097
   35       -2.997664
   36       -2.913077
   37       -2.188346
   38       -1.604483
   39       -1.540880
   40       -1.537764
   41       -1.469833
   42       -1.410511
   43       -1.121486
   44       -1.119266
   45       -0.378534
   46       -0.376396
   47       -0.184986
   48       -0.146728
   49       -0.143397
   50       -0.105055
   51        0.189084
   52        0.370894
   53        0.406030
   54        0.409952
   55        0.445277
   56        0.880456
   57        1.526266
   58        1.528286
   59        2.382627
   60        2.386746
   61        2.387232
   62        2.388721
   63        3.361052
   64        3.363697
   65        7.472681
   66        7.475123
   67        7.877977
   68        7.879389
   69        7.880031
   70        7.885098
   71        8.302868
   72        8.305847
   73       11.121926
   74       11.262371
   75       11.527671
   76       11.531223
   77       12.016095
   78       12.087090
   79       12.734202
   80       12.873978
   81       12.915700
   82       12.922996
   83       13.043088
   84       13.047937
 
 -0.1694066E-20  0.1111111E+00  0.0000000E+00  0.6172840E-02
    1      -14.496739
    2      -14.290902
    3      -14.290320
    4      -14.064610
    5      -10.023895
    6       -9.873253
    7       -9.872816
    8       -9.713583
    9       -9.473967
   10       -9.471151
   11       -9.343315
   12       -9.341190
   13       -9.340451
   14       -9.338044
   15       -9.209721
   16       -9.206975
   17       -7.834832
   18       -7.832331
   19       -7.734405
   20       -7.732227
   21       -7.730674
   22       -7.728277
   23       -7.613322
   24       -7.610484
   25       -7.328720
   26       -7.209873
   27       -7.209467
   28       -7.081578
   29       -3.516185
   30       -2.403053
   31       -2.400988
   32       -1.516732
   33       -1.515645
   34       -1.469276
   35       -1.468999
   36       -1.466290
   37       -1.466134
   38       -1.418781
   39       -1.417707
   40       -1.216709
   41       -1.173080
   42       -1.172815
   43       -1.128725
   44       -1.020496
   45        1.587410
   46        1.812517
   47        1.833328
   48        1.833691
   49        1.854629
   50        1.954163
   51        1.973306
   52        1.973631
   53        1.992877
   54        2.079305
   55        2.081757
   56        2.332365
   57        2.334512
   58        2.703968
   59        2.707236
   60        2.707513
   61        2.710942
   62        3.036603
   63        3.167074
   64        3.170258
   65        6.708738
   66        6.711387
   67        6.884956
   68        6.888036
   69        6.890115
   70        6.893106
   71        6.940169
   72        7.297635
   73        7.299906
   74        7.581468
   75        7.584292
   76        8.065752
   77        9.965990
   78       12.269651
   79       12.537068
   80       12.538292
   81       12.563278
   82       12.566936
   83       12.820790
   84       12.836804
 
  0.1111111E+00  0.1111111E+00  0.0000000E+00  0.6172840E-02
    1      -14.349179
    2      -14.144986
    3      -14.144410
    4      -13.920724
    5      -10.490607
    6      -10.487482
    7      -10.332538
    8      -10.329510
    9      -10.329476
   10      -10.326193
   11      -10.160583
   12      -10.157357
   13       -9.025248
   14       -8.933895
   15       -8.932427
   16       -8.863466
   17       -7.927697
   18       -7.890569
   19       -7.887048
   20       -7.810666
   21       -6.648144
   22       -6.644713
   23       -6.533302
   24       -6.529153
   25       -6.529119
   26       -6.526497
   27       -6.407201
   28       -6.403798
   29       -3.337296
   30       -2.229997
   31       -2.227936
   32       -2.202355
   33       -2.143987
   34       -2.141669
   35       -2.081696
   36       -1.372626
   37       -1.370026
   38       -1.325548
   39       -1.324141
   40       -1.324127
   41       -1.319986
   42       -1.276238
   43       -1.273223
   44       -0.855937
   45        1.139145
   46        1.141657
   47        1.277944
   48        1.298164
   49        1.303062
   50        1.320698
   51        1.645670
   52        1.659504
   53        1.664684
   54        1.681650
   55        1.973701
   56        1.975993
   57        1.976046
   58        1.979998
   59        2.471619
   60        2.870664
   61        2.873387
   62        3.021468
   63        3.024872
   64        3.339923
   65        6.661719
   66        6.683575
   67        6.688872
   68        7.239761
   69        7.373859
   70        7.376943
   71        7.835305
   72        7.840059
   73        7.840378
   74        7.842096
   75        8.585125
   76        8.587794
   77       10.139331
   78       12.643751
   79       12.647871
   80       12.907203
   81       12.911140
   82       12.911269
   83       12.915965
   84       13.100309
 
  0.2222222E+00  0.1111111E+00  0.0000000E+00  0.6172840E-02
    1      -14.054862
    2      -13.853865
    3      -13.853299
    4      -13.633591
    5      -11.458900
    6      -11.287144
    7      -11.286652
    8      -11.101782
    9      -10.831689
   10      -10.667606
   11      -10.667100
   12      -10.490981
   13       -9.086383
   14       -8.959869
   15       -8.959056
   16       -8.832079
   17       -7.485067
   18       -7.390982
   19       -7.388094
   20       -7.278461
   21       -5.860745
   22       -5.753070
   23       -5.752554
   24       -5.639339
   25       -5.262559
   26       -5.158671
   27       -5.156880
   28       -5.047769
   29       -3.112994
   30       -3.043242
   31       -3.040982
   32       -2.980936
   33       -2.967891
   34       -1.902382
   35       -1.885876
   36       -1.883829
   37       -1.845850
   38       -1.845523
   39       -1.787012
   40       -1.083905
   41       -1.038914
   42       -1.036094
   43       -0.990279
   44       -0.529561
   45        0.082158
   46        0.319779
   47        0.353169
   48        0.358207
   49        0.389926
   50        0.796724
   51        1.026737
   52        1.028997
   53        1.096992
   54        1.119294
   55        1.124866
   56        1.149266
   57        1.688570
   58        1.690628
   59        2.138461
   60        2.597109
   61        2.706834
   62        3.222786
   63        3.226081
   64        3.682188
   65        6.601372
   66        6.691845
   67        6.696610
   68        7.166945
   69        7.928884
   70        8.408529
   71        8.410817
   72        8.692471
   73        9.048142
   74        9.205382
   75        9.208505
   76        9.891107
   77       10.487330
   78       12.796073
   79       13.055347
   80       13.056876
   81       13.234526
   82       13.318002
   83       13.322288
   84       13.630255
 
  0.3333333E+00  0.1111111E+00  0.0000000E+00  0.6172840E-02
    1      -13.615232
    2      -13.419138
    3      -13.418587
    4      -13.204720
    5      -12.311808
    6      -12.130262
    7      -12.129745
    8      -11.933173
    9      -11.040475
   10      -10.873597
   11      -10.873082
   12      -10.693890
   13       -9.235189
   14       -9.094631
   15       -9.094169
   16       -8.946595
   17       -6.723035
   18       -6.625769
   19       -6.623062
   20       -6.520498
   21       -5.055894
   22       -4.966468
   23       -4.965267
   24       -4.872873
   25       -4.048112
   26       -3.977514
   27       -3.975058
   28       -3.897474
   29       -3.808583
   30       -3.720306
   31       -3.718277
   32       -3.626710
   33       -2.602634
   34       -2.543439
   35       -2.542287
   36       -2.478452
   37       -2.450834
   38       -1.375849
   39       -1.373898
   40       -0.932270
   41       -0.901926
   42       -0.878353
   43       -0.874982
   44       -0.823171
   45       -0.667004
   46       -0.624427
   47       -0.621483
   48       -0.577971
   49       -0.047441
   50        0.105689
   51        0.107841
   52        0.468075
   53        0.500114
   54        0.504738
   55        0.537984
   56        0.583182
   57        1.324826
   58        1.505707
   59        1.507775
   60        2.580542
   61        2.589076
   62        3.312054
   63        3.314932
   64        4.023406
   65        6.503631
   66        6.810676
   67        6.814688
   68        7.266218
   69        8.436065
   70        8.863317
   71        8.865823
   72        9.338440
   73       10.259788
   74       10.708927
   75       10.712072
   76       11.008601
   77       11.285997
   78       12.517240
   79       13.075850
   80       13.247569
   81       13.249463
   82       13.361203
   83       13.368866
   84       13.388222
 
  0.4444444E+00  0.1111111E+00  0.0000000E+00  0.6172840E-02
    1      -13.034375
    2      -13.031438
    3      -12.845942
    4      -12.843067
    5      -12.842943
    6      -12.839976
    7      -12.638077
    8      -12.635056
    9      -11.110377
   10      -10.942875
   11      -10.942353
   12      -10.762113
   13       -9.291873
   14       -9.148727
   15       -9.148307
   16       -8.997065
   17       -6.207215
   18       -6.143350
   19       -6.140846
   20       -6.081970
   21       -4.567005
   22       -4.548997
   23       -4.515346
   24       -4.513310
   25       -4.512752
   26       -4.509978
   27       -4.462651
   28       -4.460786
   29       -3.011987
   30       -2.979767
   31       -2.976649
   32       -2.933011
   33       -2.343610
   34       -2.340180
   35       -2.274323
   36       -2.268534
   37       -2.268467
   38       -2.268036
   39       -2.196671
   40       -2.193778
   41       -1.754902
   42       -1.752528
   43       -0.707509
   44       -0.704899
   45       -0.704765
   46       -0.701101
   47       -0.141092
   48       -0.136973
   49       -0.101562
   50       -0.100124
   51       -0.100057
   52       -0.091837
   53       -0.059788
   54       -0.053462
   55        0.510164
   56        0.577158
   57        0.579974
   58        1.442921
   59        1.445042
   60        2.546425
   61        2.563349
   62        3.334204
   63        3.336653
   64        4.159527
   65        6.467772
   66        6.877568
   67        6.880727
   68        7.319616
   69        8.660801
   70        9.041624
   71        9.044523
   72        9.420549
   73       11.694471
   74       11.696381
   75       11.867388
   76       11.870932
   77       12.198562
   78       12.203646
   79       12.204648
   80       12.207245
   81       12.671932
   82       12.675269
   83       13.311764
   84       13.318448
 
 -0.4444444E+00  0.1111111E+00  0.0000000E+00  0.6172840E-02
    1      -13.615318
    2      -13.419224
    3      -13.418672
    4      -13.204805
    5      -12.311670
    6      -12.130123
    7      -12.129608
    8      -11.933035
    9      -11.040684
   10      -10.873807
   11      -10.873290
   12      -10.694100
   13       -9.234832
   14       -9.094228
   15       -9.093811
   16       -8.946183
   17       -6.722390
   18       -6.624242
   19       -6.623346
   20       -6.519913
   21       -5.056957
   22       -4.968252
   23       -4.965467
   24       -4.873783
   25       -4.049148
   26       -3.977748
   27       -3.977047
   28       -3.898643
   29       -3.808911
   30       -3.720814
   31       -3.718413
   32       -3.627026
   33       -2.601395
   34       -2.543037
   35       -2.539988
   36       -2.477019
   37       -2.450933
   38       -1.375942
   39       -1.374001
   40       -0.931886
   41       -0.901783
   42       -0.877408
   43       -0.875464
   44       -0.823036
   45       -0.666697
   46       -0.624333
   47       -0.620906
   48       -0.577599
   49       -0.047541
   50        0.105815
   51        0.108009
   52        0.467958
   53        0.500612
   54        0.503640
   55        0.537431
   56        0.582928
   57        1.324976
   58        1.505357
   59        1.507564
   60        2.580816
   61        2.588778
   62        3.312894
   63        3.315096
   64        4.024345
   65        6.503256
   66        6.811405
   67        6.813923
   68        7.266158
   69        8.435669
   70        8.862578
   71        8.865904
   72        9.338383
   73       10.259688
   74       10.708577
   75       10.712119
   76       11.008463
   77       11.285821
   78       12.517438
   79       13.075596
   80       13.247081
   81       13.249871
   82       13.365070
   83       13.374558
   84       13.414836
 
 -0.3333333E+00  0.1111111E+00  0.0000000E+00  0.6172840E-02
    1      -14.054923
    2      -13.853927
    3      -13.853359
    4      -13.633651
    5      -11.458733
    6      -11.286974
    7      -11.286483
    8      -11.101605
    9      -10.832122
   10      -10.668033
   11      -10.667534
   12      -10.491413
   13       -9.085574
   14       -8.958770
   15       -8.958390
   16       -8.831096
   17       -7.484757
   18       -7.389388
   19       -7.388982
   20       -7.278084
   21       -5.861765
   22       -5.754935
   23       -5.752655
   24       -5.640277
   25       -5.262881
   26       -5.159091
   27       -5.157091
   28       -5.048080
   29       -3.114387
   30       -3.043665
   31       -3.043439
   32       -2.981010
   33       -2.969368
   34       -1.900767
   35       -1.885945
   36       -1.883901
   37       -1.845328
   38       -1.842654
   39       -1.785253
   40       -1.083680
   41       -1.038790
   42       -1.035751
   43       -0.990033
   44       -0.529633
   45        0.082328
   46        0.320242
   47        0.354593
   48        0.356759
   49        0.389581
   50        0.796263
   51        1.026868
   52        1.029174
   53        1.097472
   54        1.120778
   55        1.123427
   56        1.148437
   57        1.687892
   58        1.690225
   59        2.138588
   60        2.597708
   61        2.706129
   62        3.224279
   63        3.226448
   64        3.683704
   65        6.600927
   66        6.692978
   67        6.695298
   68        7.166869
   69        7.928445
   70        8.407358
   71        8.411034
   72        8.692340
   73        9.047940
   74        9.205002
   75        9.208512
   76        9.890900
   77       10.487227
   78       12.795896
   79       13.054950
   80       13.056944
   81       13.234524
   82       13.318063
   83       13.319635
   84       13.630862
 
 -0.2222222E+00  0.1111111E+00  0.0000000E+00  0.6172840E-02
    1      -14.349215
    2      -14.145023
    3      -14.144445
    4      -13.920760
    5      -10.489646
    6      -10.488826
    7      -10.330422
    8      -10.329960
    9      -10.329520
   10      -10.329044
   11      -10.159680
   12      -10.158818
   13       -9.023814
   14       -8.931783
   15       -8.931512
   16       -8.861904
   17       -7.927748
   18       -7.889117
   19       -7.888908
   20       -7.810885
   21       -6.647134
   22       -6.646695
   23       -6.531268
   24       -6.530872
   25       -6.529408
   26       -6.528768
   27       -6.406297
   28       -6.405852
   29       -3.337339
   30       -2.230041
   31       -2.227982
   32       -2.203921
   33       -2.144568
   34       -2.144335
   35       -2.083367
   36       -1.370482
   37       -1.370163
   38       -1.324047
   39       -1.323602
   40       -1.321219
   41       -1.321012
   42       -1.273938
   43       -1.273659
   44       -0.855981
   45        1.139415
   46        1.140893
   47        1.278327
   48        1.299898
   49        1.300061
   50        1.319510
   51        1.647058
   52        1.662693
   53        1.662891
   54        1.680807
   55        1.973474
   56        1.976001
   57        1.976138
   58        1.978809
   59        2.472419
   60        2.870362
   61        2.872699
   62        3.023241
   63        3.025464
   64        3.341637
   65        6.661618
   66        6.684839
   67        6.687194
   68        7.239720
   69        7.374315
   70        7.376145
   71        7.835924
   72        7.838386
   73        7.839956
   74        7.842346
   75        8.585465
   76        8.586966
   77       10.139266
   78       12.646103
   79       12.649210
   80       12.910827
   81       12.912442
   82       12.913932
   83       12.915570
   84       13.099586
 
 -0.1111111E+00  0.1111111E+00  0.0000000E+00  0.6172840E-02
    1      -14.496751
    2      -14.290914
    3      -14.290332
    4      -14.064622
    5      -10.024772
    6       -9.874164
    7       -9.873696
    8       -9.714501
    9       -9.472955
   10       -9.470804
   11       -9.342206
   12       -9.340333
   13       -9.340262
   14       -9.337401
   15       -9.208945
   16       -9.206278
   17       -7.834669
   18       -7.832507
   19       -7.733949
   20       -7.730896
   21       -7.730830
   22       -7.729993
   23       -7.612863
   24       -7.611032
   25       -7.329263
   26       -7.211321
   27       -7.209086
   28       -7.082097
   29       -3.516200
   30       -2.403068
   31       -2.401002
   32       -1.518206
   33       -1.515861
   34       -1.470334
   35       -1.469232
   36       -1.469216
   37       -1.465283
   38       -1.420428
   39       -1.417687
   40       -1.215014
   41       -1.172410
   42       -1.169905
   43       -1.126857
   44       -1.020510
   45        1.586568
   46        1.811188
   47        1.830198
   48        1.835306
   49        1.855077
   50        1.953535
   51        1.971709
   52        1.976831
   53        1.994290
   54        2.080227
   55        2.081830
   56        2.331010
   57        2.333831
   58        2.705783
   59        2.707007
   60        2.707384
   61        2.711970
   62        3.035223
   63        3.168069
   64        3.170874
   65        6.708227
   66        6.711655
   67        6.884441
   68        6.889921
   69        6.890247
   70        6.891706
   71        6.940104
   72        7.296297
   73        7.300677
   74        7.581555
   75        7.584132
   76        8.065541
   77        9.965968
   78       12.273502
   79       12.540597
   80       12.542675
   81       12.560913
   82       12.565183
   83       12.825624
   84       12.834551
 
 -0.5082198E-20  0.2222222E+00  0.0000000E+00  0.6172840E-02
    1      -14.275478
    2      -14.072106
    3      -14.071531
    4      -13.848830
    5      -11.038840
    6      -10.872036
    7      -10.871552
    8      -10.692589
    9       -9.826410
   10       -9.823480
   11       -9.679485
   12       -9.677006
   13       -9.676445
   14       -9.673709
   15       -9.521396
   16       -9.518454
   17       -7.160353
   18       -7.157278
   19       -7.046827
   20       -7.044418
   21       -7.042720
   22       -7.040092
   23       -6.920851
   24       -6.917603
   25       -6.003202
   26       -5.890688
   27       -5.890314
   28       -5.771799
   29       -3.248003
   30       -2.143754
   31       -2.141698
   32       -2.127664
   33       -2.125980
   34       -2.069977
   35       -2.069606
   36       -2.066768
   37       -2.066195
   38       -2.008202
   39       -2.006497
   40       -1.001659
   41       -0.958909
   42       -0.958692
   43       -0.915461
   44       -0.774046
   45        0.544670
   46        0.980814
   47        1.014816
   48        1.014959
   49        1.049086
   50        1.445148
   51        1.447225
   52        1.531826
   53        1.558209
   54        1.558365
   55        1.585032
   56        1.841474
   57        1.844349
   58        2.471952
   59        2.582330
   60        2.585784
   61        2.586003
   62        2.589645
   63        3.288936
   64        3.292033
   65        6.894577
   66        6.897480
   67        7.218525
   68        7.222005
   69        7.223808
   70        7.227262
   71        7.877604
   72        7.881355
   73        7.997875
   74        8.517694
   75        8.519897
   76        9.274031
   77       10.225819
   78       12.391309
   79       12.649910
   80       12.650695
   81       12.899482
   82       13.137232
   83       13.140773
   84       13.468847
 
  0.1111111E+00  0.2222222E+00  0.0000000E+00  0.6172840E-02
    1      -14.054856
    2      -13.853860
    3      -13.853293
    4      -13.633585
    5      -11.458860
    6      -11.287110
    7      -11.286609
    8      -11.101745
    9      -10.831719
   10      -10.667624
   11      -10.667133
   12      -10.491000
   13       -9.086370
   14       -8.959843
   15       -8.959054
   16       -8.832065
   17       -7.485133
   18       -7.390983
   19       -7.388274
   20       -7.278575
   21       -5.861814
   22       -5.754746
   23       -5.752995
   24       -5.640394
   25       -5.261495
   26       -5.156957
   27       -5.156488
   28       -5.046721
   29       -3.112894
   30       -3.043073
   31       -3.040981
   32       -2.980950
   33       -2.967819
   34       -1.901054
   35       -1.885893
   36       -1.883848
   37       -1.845554
   38       -1.843057
   39       -1.785563
   40       -1.085259
   41       -1.039042
   42       -1.038865
   43       -0.991844
   44       -0.529584
   45        0.081790
   46        0.321356
   47        0.355344
   48        0.358208
   49        0.390688