       N       E                     dE             d eps       ncg     rms          rms(c)
DAV:   1     0.489722688622E+03    0.48972E+03   -0.74829E+04 27384   0.165E+03
DAV:   2    -0.263923377572E+03   -0.75365E+03   -0.72279E+03 34068   0.306E+02
DAV:   3    -0.302491560133E+03   -0.38568E+02   -0.38122E+02 33312   0.669E+01
DAV:   4    -0.303108531347E+03   -0.61697E+00   -0.61549E+00 33048   0.923E+00
DAV:   5    -0.303124291778E+03   -0.15760E-01   -0.15753E-01 33444   0.139E+00    0.220E+01
DAV:   6    -0.290578536373E+03    0.12546E+02   -0.11963E+01 31260   0.103E+01    0.115E+01
DAV:   7    -0.286661953583E+03    0.39166E+01   -0.11980E+01 31008   0.104E+01    0.170E+00
DAV:   8    -0.286688627124E+03   -0.26674E-01   -0.21059E-01 31896   0.149E+00    0.417E-01
DAV:   9    -0.286691436415E+03   -0.28093E-02   -0.48407E-03 33192   0.288E-01    0.728E-02
DAV:  10    -0.286691681095E+03   -0.24468E-03   -0.33838E-04 32604   0.614E-02    0.233E-02
DAV:  11    -0.286691687460E+03   -0.63645E-05   -0.74004E-05 31440   0.298E-02    0.275E-03
DAV:  12    -0.286691686689E+03    0.77042E-06   -0.12438E-06 23064   0.419E-03
   1 F= -.29045578E+03 E0= -.29045321E+03  d E =-.514578E-02
