       N       E                     dE             d eps       ncg     rms          rms(c)
DAV:   1     0.568835679275E+03    0.56884E+03   -0.72299E+04 27384   0.161E+03
DAV:   2    -0.265311533741E+03   -0.83415E+03   -0.80393E+03 34044   0.310E+02
DAV:   3    -0.311916986166E+03   -0.46605E+02   -0.46146E+02 33276   0.733E+01
DAV:   4    -0.312773041524E+03   -0.85606E+00   -0.85440E+00 34308   0.108E+01
DAV:   5    -0.312797596806E+03   -0.24555E-01   -0.24544E-01 34512   0.173E+00    0.220E+01
DAV:   6    -0.298648396973E+03    0.14149E+02   -0.14613E+01 31296   0.106E+01    0.115E+01
DAV:   7    -0.294215583734E+03    0.44328E+01   -0.15071E+01 31152   0.108E+01    0.191E+00
DAV:   8    -0.294268179969E+03   -0.52596E-01   -0.40881E-01 31392   0.189E+00    0.462E-01
DAV:   9    -0.294269776870E+03   -0.15969E-02   -0.29026E-02 32280   0.600E-01    0.185E-01
DAV:  10    -0.294269530489E+03    0.24638E-03   -0.10350E-02 36720   0.339E-01    0.104E-01
DAV:  11    -0.294270038420E+03   -0.50793E-03   -0.53005E-03 31284   0.197E-01    0.748E-02
DAV:  12    -0.294270231091E+03   -0.19267E-03   -0.34643E-03 31512   0.143E-01    0.626E-02
DAV:  13    -0.294270139128E+03    0.91963E-04   -0.57829E-04 31632   0.836E-02    0.230E-02
DAV:  14    -0.294270149435E+03   -0.10307E-04   -0.23411E-04 31776   0.294E-02    0.317E-02
DAV:  15    -0.294270143268E+03    0.61675E-05   -0.76281E-05 27744   0.119E-02    0.128E-02
DAV:  16    -0.294270143032E+03    0.23566E-06   -0.25534E-06 19764   0.406E-03
   1 F= -.29956855E+03 E0= -.29956855E+03  d E =0.000000E+00
