 vasp.5.3.5 31Mar14 (build Nov 02 2014 15:17:37) complex                        
  
 executed on        ion-Intel-MKL date 2016.08.28  06:06:42
 running on    6 total cores
 distrk:  each k-point on    6 cores,    1 groups
 distr:  one band on NCORES_PER_BAND=   1 cores,    6 groups


--------------------------------------------------------------------------------------------------------


 INCAR:
 POTCAR:   PAW_PBE C 08Apr2002                    

 ----------------------------------------------------------------------------- 
|                                                                             |
|           W    W    AA    RRRRR   N    N  II  N    N   GGGG   !!!           |
|           W    W   A  A   R    R  NN   N  II  NN   N  G    G  !!!           |
|           W    W  A    A  R    R  N N  N  II  N N  N  G       !!!           |
|           W WW W  AAAAAA  RRRRR   N  N N  II  N  N N  G  GGG   !            |
|           WW  WW  A    A  R   R   N   NN  II  N   NN  G    G                |
|           W    W  A    A  R    R  N    N  II  N    N   GGGG   !!!           |
|                                                                             |
|      For optimal performance we recommend to set                            |
|        NCORE= 4 - approx SQRT( number of cores)                             |
|      NCORE specifies how many cores store one orbital (NPAR=cpu/NCORE).     |
|      This setting can  greatly improve the performance of VASP for DFT.     |
|      The default, NPAR=number of cores might be grossly inefficient         |
|      on modern multi-core architectures or massively parallel machines.     |
|      Do your own testing !!!!                                               |
|      Unfortunately you need to use the default for GW and RPA calculations. |
|      (for HF NCORE is supported but not extensively tested yet)             |
|                                                                             |
 ----------------------------------------------------------------------------- 

 POTCAR:   PAW_PBE C 08Apr2002                    
   VRHFIN =C: s2p2                                                              
   LEXCH  = PE                                                                  
   EATOM  =   147.1560 eV,   10.8157 Ry                                         
                                                                                
   TITEL  = PAW_PBE C 08Apr2002                                                 
   LULTRA =        F    use ultrasoft PP ?                                      
   IUNSCR =        0    unscreen: 0-lin 1-nonlin 2-no                           
   RPACOR =     .000    partial core radius                                     
   POMASS =   12.011; ZVAL   =    4.000    mass and valenz                      
   RCORE  =    1.500    outmost cutoff radius                                   
   RWIGS  =    1.630; RWIGS  =     .863    wigner-seitz radius (au A)           
   ENMAX  =  400.000; ENMIN  =  300.000 eV                                      
   ICORE  =        2    local potential                                         
   LCOR   =        T    correct aug charges                                     
   LPAW   =        T    paw PP                                                  
   EAUG   =  644.873                                                            
   DEXC   =     .000                                                            
   RMAX   =    2.266    core radius for proj-oper                               
   RAUG   =    1.300    factor for augmentation sphere                          
   RDEP   =    1.501    radius for radial grids                                 
   RDEPT  =    1.300    core radius for aug-charge                              
   QCUT   =   -5.516; QGAM   =   11.032    optimization parameters              
                                                                                
   Description                                                                  
     l     E      TYP  RCUT    TYP  RCUT                                        
     0   .000     23  1.200                                                     
     0   .000     23  1.200                                                     
     1   .000     23  1.500                                                     
     1  2.500     23  1.500                                                     
     2   .000      7  1.500                                                     
  local pseudopotential read in
  atomic valenz-charges read in
  non local Contribution for L=           0  read in
    real space projection operators read in
  non local Contribution for L=           0  read in
    real space projection operators read in
  non local Contribution for L=           1  read in
    real space projection operators read in
  non local Contribution for L=           1  read in
    real space projection operators read in
    PAW grid and wavefunctions read in
 
   number of l-projection  operators is LMAX  =           4
   number of lm-projection operators is LMMAX =           8
 

 ----------------------------------------------------------------------------- 
|                                                                             |
|  ADVICE TO THIS USER RUNNING 'VASP/VAMP'   (HEAR YOUR MASTER'S VOICE ...):  |
|                                                                             |
|      You have a (more or less) 'large supercell' and for larger cells       |
|      it might be more efficient to use real space projection operators      |
|      So try LREAL= Auto  in the INCAR   file.                               |
|      Mind: If you want to do a very accurate calculations keep the          |
|      reciprocal projection scheme          (i.e. LREAL=.FALSE.)             |
|                                                                             |
 ----------------------------------------------------------------------------- 

 PAW_PBE C 08Apr2002                    :
 energy of atom  1       EATOM= -147.1560
 kinetic energy error for atom=    0.0057 (will be added to EATOM!!)
 
 
 POSCAR: C                                       
  positions in direct lattice
  No initial velocities read in
 exchange correlation table for  LEXCH =        8
   RHO(1)=    0.500       N(1)  =     2000
   RHO(2)=  100.500       N(2)  =     4000
 


--------------------------------------------------------------------------------------------------------


 ion  position               nearest neighbor table
   1  0.499  0.000  0.124-  19 1.42  18 1.42  20 1.43
   2  1.000  0.000  0.125-  19 1.42  17 1.42  20 1.42
   3  0.500  0.500  0.125-  18 1.42  20 1.42  17 1.42
   4  1.000  0.500  0.125-  17 1.42  19 1.42  18 1.42
   5  0.500  0.000  0.625-  24 1.42  22 1.42  23 1.42
   6  1.000  0.000  0.625-  23 1.42  21 1.42  24 1.42
   7  0.500  0.500  0.625-  22 1.42  24 1.42  21 1.42
   8  1.000  0.500  0.625-  21 1.42  23 1.42  22 1.42
   9  0.000  0.500  0.375-  28 1.42  27 1.42  26 1.42
  10  0.500  0.500  0.375-  27 1.42  28 1.42  25 1.42
  11  0.000  1.000  0.375-  26 1.42  25 1.42  28 1.42
  12  0.500  1.000  0.375-  25 1.42  26 1.42  27 1.42
  13  0.000  0.500  0.875-  32 1.42  31 1.42  30 1.42
  14  0.500  0.500  0.875-  31 1.42  32 1.42  29 1.42
  15  0.000  1.000  0.875-  30 1.42  29 1.42  32 1.42
  16  0.500  1.000  0.875-  29 1.42  30 1.42  31 1.42
  17  0.167  0.333  0.125-   4 1.42   2 1.42   3 1.42
  18  0.667  0.333  0.125-   3 1.42   4 1.42   1 1.42
  19  0.167  0.833  0.125-   1 1.42   2 1.42   4 1.42
  20  0.667  0.833  0.125-   3 1.42   2 1.42   1 1.43
  21  0.167  0.333  0.625-   8 1.42   6 1.42   7 1.42
  22  0.667  0.333  0.625-   7 1.42   5 1.42   8 1.42
  23  0.167  0.833  0.625-   6 1.42   8 1.42   5 1.42
  24  0.667  0.833  0.625-   5 1.42   7 1.42   6 1.42
  25  0.333  0.167  0.375-  12 1.42  11 1.42  10 1.42
  26  0.833  0.167  0.375-  11 1.42  12 1.42   9 1.42
  27  0.333  0.667  0.375-  10 1.42   9 1.42  12 1.42
  28  0.833  0.667  0.375-   9 1.42  10 1.42  11 1.42
  29  0.333  0.167  0.875-  16 1.42  15 1.42  14 1.42
  30  0.833  0.167  0.875-  15 1.42  16 1.42  13 1.42
  31  0.333  0.667  0.875-  14 1.42  13 1.42  16 1.42
  32  0.833  0.667  0.875-  13 1.42  14 1.42  15 1.42
 
  LATTYP: Found a base centered orthorhombic cell.
 ALAT       =     4.9339256766
 B/A-ratio  =     1.7322311103
 C/A-ratio  =     2.5900086932
  
  Lattice vectors:
  
 A1 = (   4.9343108848,  -0.0002224000,   0.0000000000)
 A2 = (  -2.4673480464,   4.2731273763,   0.0000000000)
 A3 = (   0.0000000000,   0.0000000000,  12.7789103940)


Analysis of symmetry for initial positions (statically):
=====================================================================
 Subroutine PRICEL returns:
 Original cell was already a primitive cell.
 

 Routine SETGRP: Setting up the symmetry group for a 
 base centered orthorhombic supercell.


 Subroutine GETGRP returns: Found  1 space group operations
 (whereof  1 operations were pure point group operations)
 out of a pool of  8 trial point group operations.


The static configuration has the point symmetry C_1 .


Analysis of symmetry for dynamics (positions and initial velocities):
=====================================================================
 Subroutine PRICEL returns:
 Original cell was already a primitive cell.
 

 Routine SETGRP: Setting up the symmetry group for a 
 base centered orthorhombic supercell.


 Subroutine GETGRP returns: Found  1 space group operations
 (whereof  1 operations were pure point group operations)
 out of a pool of  8 trial point group operations.


The dynamic configuration has the point symmetry C_1 .
 
 
 KPOINTS: B4C B11C-CBC                            

Automatic generation of k-mesh.
Space group operators:
 irot       det(A)        alpha          n_x          n_y          n_z        tau_x        tau_y        tau_z
    1     1.000000     0.000001     1.000000     0.000000     0.000000     0.000000     0.000000     0.000000
 
 Subroutine IBZKPT returns following result:
 ===========================================
 
 Found    163 irreducible k-points:
 
 Following reciprocal coordinates:
            Coordinates               Weight
  0.000000  0.000000  0.000000      1.000000
  0.111111 -0.000000  0.000000      2.000000
  0.222222 -0.000000  0.000000      2.000000
  0.333333 -0.000000  0.000000      2.000000
  0.444444 -0.000000  0.000000      2.000000
 -0.000000  0.111111  0.000000      2.000000
  0.111111  0.111111  0.000000      2.000000
  0.222222  0.111111  0.000000      2.000000
  0.333333  0.111111  0.000000      2.000000
  0.444444  0.111111  0.000000      2.000000
 -0.444444  0.111111  0.000000      2.000000
 -0.333333  0.111111  0.000000      2.000000
 -0.222222  0.111111  0.000000      2.000000
 -0.111111  0.111111  0.000000      2.000000
 -0.000000  0.222222  0.000000      2.000000
  0.111111  0.222222  0.000000      2.000000
  0.222222  0.222222  0.000000      2.000000
  0.333333  0.222222  0.000000      2.000000
  0.444444  0.222222  0.000000      2.000000
 -0.444444  0.222222  0.000000      2.000000
 -0.333333  0.222222  0.000000      2.000000
 -0.222222  0.222222  0.000000      2.000000
 -0.111111  0.222222  0.000000      2.000000
 -0.000000  0.333333  0.000000      2.000000
  0.111111  0.333333  0.000000      2.000000
  0.222222  0.333333  0.000000      2.000000
  0.333333  0.333333  0.000000      2.000000
  0.444444  0.333333  0.000000      2.000000
 -0.444444  0.333333  0.000000      2.000000
 -0.333333  0.333333  0.000000      2.000000
 -0.222222  0.333333  0.000000      2.000000
 -0.111111  0.333333  0.000000      2.000000
 -0.000000  0.444444  0.000000      2.000000
  0.111111  0.444444  0.000000      2.000000
  0.222222  0.444444  0.000000      2.000000
  0.333333  0.444444  0.000000      2.000000
  0.444444  0.444444  0.000000      2.000000
 -0.444444  0.444444  0.000000      2.000000
 -0.333333  0.444444  0.000000      2.000000
 -0.222222  0.444444  0.000000      2.000000
 -0.111111  0.444444  0.000000      2.000000
  0.000000  0.000000  0.250000      2.000000
  0.111111 -0.000000  0.250000      2.000000
  0.222222 -0.000000  0.250000      2.000000
  0.333333 -0.000000  0.250000      2.000000
  0.444444 -0.000000  0.250000      2.000000
 -0.444444  0.000000  0.250000      2.000000
 -0.333333  0.000000  0.250000      2.000000
 -0.222222  0.000000  0.250000      2.000000
 -0.111111  0.000000  0.250000      2.000000
 -0.000000  0.111111  0.250000      2.000000
  0.111111  0.111111  0.250000      2.000000
  0.222222  0.111111  0.250000      2.000000
  0.333333  0.111111  0.250000      2.000000
  0.444444  0.111111  0.250000      2.000000
 -0.444444  0.111111  0.250000      2.000000
 -0.333333  0.111111  0.250000      2.000000
 -0.222222  0.111111  0.250000      2.000000
 -0.111111  0.111111  0.250000      2.000000
 -0.000000  0.222222  0.250000      2.000000
  0.111111  0.222222  0.250000      2.000000
  0.222222  0.222222  0.250000      2.000000
  0.333333  0.222222  0.250000      2.000000
  0.444444  0.222222  0.250000      2.000000
 -0.444444  0.222222  0.250000      2.000000
 -0.333333  0.222222  0.250000      2.000000
 -0.222222  0.222222  0.250000      2.000000
 -0.111111  0.222222  0.250000      2.000000
 -0.000000  0.333333  0.250000      2.000000
  0.111111  0.333333  0.250000      2.000000
  0.222222  0.333333  0.250000      2.000000
  0.333333  0.333333  0.250000      2.000000
  0.444444  0.333333  0.250000      2.000000
 -0.444444  0.333333  0.250000      2.000000
 -0.333333  0.333333  0.250000      2.000000
 -0.222222  0.333333  0.250000      2.000000
 -0.111111  0.333333  0.250000      2.000000
 -0.000000  0.444444  0.250000      2.000000
  0.111111  0.444444  0.250000      2.000000
  0.222222  0.444444  0.250000      2.000000
  0.333333  0.444444  0.250000      2.000000
  0.444444  0.444444  0.250000      2.000000
 -0.444444  0.444444  0.250000      2.000000
 -0.333333  0.444444  0.250000      2.000000
 -0.222222  0.444444  0.250000      2.000000
 -0.111111  0.444444  0.250000      2.000000
  0.000000 -0.444444  0.250000      2.000000
  0.111111 -0.444444  0.250000      2.000000
  0.222222 -0.444444  0.250000      2.000000
  0.333333 -0.444444  0.250000      2.000000
  0.444444 -0.444444  0.250000      2.000000
 -0.444444 -0.444444  0.250000      2.000000
 -0.333333 -0.444444  0.250000      2.000000
 -0.222222 -0.444444  0.250000      2.000000
 -0.111111 -0.444444  0.250000      2.000000
  0.000000 -0.333333  0.250000      2.000000
  0.111111 -0.333333  0.250000      2.000000
  0.222222 -0.333333  0.250000      2.000000
  0.333333 -0.333333  0.250000      2.000000
  0.444444 -0.333333  0.250000      2.000000
 -0.444444 -0.333333  0.250000      2.000000
 -0.333333 -0.333333  0.250000      2.000000
 -0.222222 -0.333333  0.250000      2.000000
 -0.111111 -0.333333  0.250000      2.000000
  0.000000 -0.222222  0.250000      2.000000
  0.111111 -0.222222  0.250000      2.000000
  0.222222 -0.222222  0.250000      2.000000
  0.333333 -0.222222  0.250000      2.000000
  0.444444 -0.222222  0.250000      2.000000
 -0.444444 -0.222222  0.250000      2.000000
 -0.333333 -0.222222  0.250000      2.000000
 -0.222222 -0.222222  0.250000      2.000000
 -0.111111 -0.222222  0.250000      2.000000
  0.000000 -0.111111  0.250000      2.000000
  0.111111 -0.111111  0.250000      2.000000
  0.222222 -0.111111  0.250000      2.000000
  0.333333 -0.111111  0.250000      2.000000
  0.444444 -0.111111  0.250000      2.000000
 -0.444444 -0.111111  0.250000      2.000000
 -0.333333 -0.111111  0.250000      2.000000
 -0.222222 -0.111111  0.250000      2.000000
 -0.111111 -0.111111  0.250000      2.000000
  0.000000  0.000000  0.500000      1.000000
  0.111111 -0.000000  0.500000      2.000000
  0.222222 -0.000000  0.500000      2.000000
  0.333333 -0.000000  0.500000      2.000000
  0.444444 -0.000000  0.500000      2.000000
 -0.000000  0.111111  0.500000      2.000000
  0.111111  0.111111  0.500000      2.000000
  0.222222  0.111111  0.500000      2.000000
  0.333333  0.111111  0.500000      2.000000
  0.444444  0.111111  0.500000      2.000000
 -0.444444  0.111111  0.500000      2.000000
 -0.333333  0.111111  0.500000      2.000000
 -0.222222  0.111111  0.500000      2.000000
 -0.111111  0.111111  0.500000      2.000000
 -0.000000  0.222222  0.500000      2.000000
  0.111111  0.222222  0.500000      2.000000
  0.222222  0.222222  0.500000      2.000000
  0.333333  0.222222  0.500000      2.000000
  0.444444  0.222222  0.500000      2.000000
 -0.444444  0.222222  0.500000      2.000000
 -0.333333  0.222222  0.500000      2.000000
 -0.222222  0.222222  0.500000      2.000000
 -0.111111  0.222222  0.500000      2.000000
 -0.000000  0.333333  0.500000      2.000000
  0.111111  0.333333  0.500000      2.000000
  0.222222  0.333333  0.500000      2.000000
  0.333333  0.333333  0.500000      2.000000
  0.444444  0.333333  0.500000      2.000000
 -0.444444  0.333333  0.500000      2.000000
 -0.333333  0.333333  0.500000      2.000000
 -0.222222  0.333333  0.500000      2.000000
 -0.111111  0.333333  0.500000      2.000000
 -0.000000  0.444444  0.500000      2.000000
  0.111111  0.444444  0.500000      2.000000
  0.222222  0.444444  0.500000      2.000000
  0.333333  0.444444  0.500000      2.000000
  0.444444  0.444444  0.500000      2.000000
 -0.444444  0.444444  0.500000      2.000000
 -0.333333  0.444444  0.500000      2.000000
 -0.222222  0.444444  0.500000      2.000000
 -0.111111  0.444444  0.500000      2.000000
 
 Following cartesian coordinates:
            Coordinates               Weight
  0.000000  0.000000  0.000000      1.000000
  0.022519  0.013002  0.000000      2.000000
  0.045037  0.026005  0.000000      2.000000
  0.067556  0.039007  0.000000      2.000000
  0.090075  0.052010  0.000000      2.000000
  0.000001  0.026003  0.000000      2.000000
  0.022520  0.039005  0.000000      2.000000
  0.045038  0.052008  0.000000      2.000000
  0.067557  0.065010  0.000000      2.000000
  0.090076  0.078013  0.000000      2.000000
 -0.090073 -0.026007  0.000000      2.000000
 -0.067555 -0.013005  0.000000      2.000000
 -0.045036 -0.000002  0.000000      2.000000
 -0.022517  0.013000  0.000000      2.000000
  0.000002  0.052006  0.000000      2.000000
  0.022521  0.065008  0.000000      2.000000
  0.045040  0.078011  0.000000      2.000000
  0.067558  0.091013  0.000000      2.000000
  0.090077  0.104016  0.000000      2.000000
 -0.090072 -0.000004  0.000000      2.000000
 -0.067554  0.012998  0.000000      2.000000
 -0.045035  0.026001  0.000000      2.000000
 -0.022516  0.039003  0.000000      2.000000
  0.000004  0.078009  0.000000      2.000000
  0.022522  0.091011  0.000000      2.000000
  0.045041  0.104014  0.000000      2.000000
  0.067559  0.117016  0.000000      2.000000
  0.090078  0.130019  0.000000      2.000000
 -0.090071  0.025999  0.000000      2.000000
 -0.067552  0.039001  0.000000      2.000000
 -0.045034  0.052004  0.000000      2.000000
 -0.022515  0.065006  0.000000      2.000000
  0.000005  0.104012  0.000000      2.000000
  0.022523  0.117014  0.000000      2.000000
  0.045042  0.130017  0.000000      2.000000
  0.067561  0.143019  0.000000      2.000000
  0.090079  0.156022  0.000000      2.000000
 -0.090070  0.052002  0.000000      2.000000
 -0.067551  0.065004  0.000000      2.000000
 -0.045033  0.078007  0.000000      2.000000
 -0.022514  0.091009  0.000000      2.000000
  0.000000  0.000000  0.019563      2.000000
  0.022519  0.013002  0.019563      2.000000
  0.045037  0.026005  0.019563      2.000000
  0.067556  0.039007  0.019563      2.000000
  0.090075  0.052010  0.019563      2.000000
 -0.090075 -0.052010  0.019563      2.000000
 -0.067556 -0.039007  0.019563      2.000000
 -0.045037 -0.026005  0.019563      2.000000
 -0.022519 -0.013002  0.019563      2.000000
  0.000001  0.026003  0.019563      2.000000
  0.022520  0.039005  0.019563      2.000000
  0.045038  0.052008  0.019563      2.000000
  0.067557  0.065010  0.019563      2.000000
  0.090076  0.078013  0.019563      2.000000
 -0.090073 -0.026007  0.019563      2.000000
 -0.067555 -0.013005  0.019563      2.000000
 -0.045036 -0.000002  0.019563      2.000000
 -0.022517  0.013000  0.019563      2.000000
  0.000002  0.052006  0.019563      2.000000
  0.022521  0.065008  0.019563      2.000000
  0.045040  0.078011  0.019563      2.000000
  0.067558  0.091013  0.019563      2.000000
  0.090077  0.104016  0.019563      2.000000
 -0.090072 -0.000004  0.019563      2.000000
 -0.067554  0.012998  0.019563      2.000000
 -0.045035  0.026001  0.019563      2.000000
 -0.022516  0.039003  0.019563      2.000000
  0.000004  0.078009  0.019563      2.000000
  0.022522  0.091011  0.019563      2.000000
  0.045041  0.104014  0.019563      2.000000
  0.067559  0.117016  0.019563      2.000000
  0.090078  0.130019  0.019563      2.000000
 -0.090071  0.025999  0.019563      2.000000
 -0.067552  0.039001  0.019563      2.000000
 -0.045034  0.052004  0.019563      2.000000
 -0.022515  0.065006  0.019563      2.000000
  0.000005  0.104012  0.019563      2.000000
  0.022523  0.117014  0.019563      2.000000
  0.045042  0.130017  0.019563      2.000000
  0.067561  0.143019  0.019563      2.000000
  0.090079  0.156022  0.019563      2.000000
 -0.090070  0.052002  0.019563      2.000000
 -0.067551  0.065004  0.019563      2.000000
 -0.045033  0.078007  0.019563      2.000000
 -0.022514  0.091009  0.019563      2.000000
 -0.000005 -0.104012  0.019563      2.000000
  0.022514 -0.091009  0.019563      2.000000
  0.045033 -0.078007  0.019563      2.000000
  0.067551 -0.065004  0.019563      2.000000
  0.090070 -0.052002  0.019563      2.000000
 -0.090079 -0.156022  0.019563      2.000000
 -0.067561 -0.143019  0.019563      2.000000
 -0.045042 -0.130017  0.019563      2.000000
 -0.022523 -0.117014  0.019563      2.000000
 -0.000004 -0.078009  0.019563      2.000000
  0.022515 -0.065006  0.019563      2.000000
  0.045034 -0.052004  0.019563      2.000000
  0.067552 -0.039001  0.019563      2.000000
  0.090071 -0.025999  0.019563      2.000000
 -0.090078 -0.130019  0.019563      2.000000
 -0.067559 -0.117016  0.019563      2.000000
 -0.045041 -0.104014  0.019563      2.000000
 -0.022522 -0.091011  0.019563      2.000000
 -0.000002 -0.052006  0.019563      2.000000
  0.022516 -0.039003  0.019563      2.000000
  0.045035 -0.026001  0.019563      2.000000
  0.067554 -0.012998  0.019563      2.000000
  0.090072  0.000004  0.019563      2.000000
 -0.090077 -0.104016  0.019563      2.000000
 -0.067558 -0.091013  0.019563      2.000000
 -0.045040 -0.078011  0.019563      2.000000
 -0.022521 -0.065008  0.019563      2.000000
 -0.000001 -0.026003  0.019563      2.000000
  0.022517 -0.013000  0.019563      2.000000
  0.045036  0.000002  0.019563      2.000000
  0.067555  0.013005  0.019563      2.000000
  0.090073  0.026007  0.019563      2.000000
 -0.090076 -0.078013  0.019563      2.000000
 -0.067557 -0.065010  0.019563      2.000000
 -0.045038 -0.052008  0.019563      2.000000
 -0.022520 -0.039005  0.019563      2.000000
  0.000000  0.000000  0.039127      1.000000
  0.022519  0.013002  0.039127      2.000000
  0.045037  0.026005  0.039127      2.000000
  0.067556  0.039007  0.039127      2.000000
  0.090075  0.052010  0.039127      2.000000
  0.000001  0.026003  0.039127      2.000000
  0.022520  0.039005  0.039127      2.000000
  0.045038  0.052008  0.039127      2.000000
  0.067557  0.065010  0.039127      2.000000
  0.090076  0.078013  0.039127      2.000000
 -0.090073 -0.026007  0.039127      2.000000
 -0.067555 -0.013005  0.039127      2.000000
 -0.045036 -0.000002  0.039127      2.000000
 -0.022517  0.013000  0.039127      2.000000
  0.000002  0.052006  0.039127      2.000000
  0.022521  0.065008  0.039127      2.000000
  0.045040  0.078011  0.039127      2.000000
  0.067558  0.091013  0.039127      2.000000
  0.090077  0.104016  0.039127      2.000000
 -0.090072 -0.000004  0.039127      2.000000
 -0.067554  0.012998  0.039127      2.000000
 -0.045035  0.026001  0.039127      2.000000
 -0.022516  0.039003  0.039127      2.000000
  0.000004  0.078009  0.039127      2.000000
  0.022522  0.091011  0.039127      2.000000
  0.045041  0.104014  0.039127      2.000000
  0.067559  0.117016  0.039127      2.000000
  0.090078  0.130019  0.039127      2.000000
 -0.090071  0.025999  0.039127      2.000000
 -0.067552  0.039001  0.039127      2.000000
 -0.045034  0.052004  0.039127      2.000000
 -0.022515  0.065006  0.039127      2.000000
  0.000005  0.104012  0.039127      2.000000
  0.022523  0.117014  0.039127      2.000000
  0.045042  0.130017  0.039127      2.000000
  0.067561  0.143019  0.039127      2.000000
  0.090079  0.156022  0.039127      2.000000
 -0.090070  0.052002  0.039127      2.000000
 -0.067551  0.065004  0.039127      2.000000
 -0.045033  0.078007  0.039127      2.000000
 -0.022514  0.091009  0.039127      2.000000
 
 TETIRR: Found    970 inequivalent tetrahedra from     1944


--------------------------------------------------------------------------------------------------------




 Dimension of arrays:
   k-points           NKPTS =    163   k-points in BZ     NKDIM =    163   number of bands    NBANDS=     84
   number of dos      NEDOS =    301   number of ions     NIONS =     32
   non local maximal  LDIM  =      4   non local SUM 2l+1 LMDIM =      8
   total plane-waves  NPLWV = 172800
   max r-space proj   IRMAX =      1   max aug-charges    IRDMAX=   7767
   dimension x,y,z NGX =    40 NGY =   40 NGZ =  108
   dimension x,y,z NGXF=    80 NGYF=   80 NGZF=  216
   support grid    NGXF=    80 NGYF=   80 NGZF=  216
   ions per type =              32
 NGX,Y,Z   is equivalent  to a cutoff of  13.48, 13.48, 14.05 a.u.
 NGXF,Y,Z  is equivalent  to a cutoff of  26.95, 26.95, 28.10 a.u.


 I would recommend the setting:
   dimension x,y,z NGX =    39 NGY =   39 NGZ =  102
 SYSTEM =  graphite                                
 POSCAR =  C                                       

 Startparameter for this run:
   NWRITE =      2    write-flag & timer
   PREC   = accura    normal or accurate (medium, high low for compatibility)
   ISTART =      0    job   : 0-new  1-cont  2-samecut
   ICHARG =      2    charge: 1-file 2-atom 10-const
   ISPIN  =      1    spin polarized calculation?
   LNONCOLLINEAR =      F non collinear calculations
   LSORBIT =      F    spin-orbit coupling
   INIWAV =      1    electr: 0-lowe 1-rand  2-diag
   LASPH  =      F    aspherical Exc in radial PAW
   METAGGA=      F    non-selfconsistent MetaGGA calc.

 Electronic Relaxation 1
   ENCUT  =  600.0 eV  44.10 Ry    6.64 a.u.   9.86  9.86 25.52*2*pi/ulx,y,z
   ENINI  =  600.0     initial cutoff
   ENAUG  =  644.9 eV  augmentation charge cutoff
   NELM   =    200;   NELMIN=  2; NELMDL=  0     # of ELM steps 
   EDIFF  = 0.1E-05   stopping-criterion for ELM
   LREAL  =      F    real-space projection
   NLSPLINE    = F    spline interpolate recip. space projectors
   LCOMPAT=      F    compatible to vasp.4.4
   GGA_COMPAT  = T    GGA compatible to vasp.4.4-vasp.4.6
   LMAXPAW     = -100 max onsite density
   LMAXMIX     =    2 max onsite mixed and CHGCAR
   VOSKOWN=      0    Vosko Wilk Nusair interpolation
   ROPT   =    0.00000
 Ionic relaxation
   EDIFFG = 0.1E-02   stopping-criterion for IOM
   NSW    =      0    number of steps for IOM
   NBLOCK =      1;   KBLOCK =      1    inner block; outer block 
   IBRION =     -1    ionic relax: 0-MD 1-quasi-New 2-CG
   NFREE  =      0    steps in history (QN), initial steepest desc. (CG)
   ISIF   =      2    stress and relaxation
   IWAVPR =     10    prediction:  0-non 1-charg 2-wave 3-comb
   ISYM   =      2    0-nonsym 1-usesym 2-fastsym
   LCORR  =      T    Harris-Foulkes like correction to forces

   POTIM  = 0.5000    time-step for ionic-motion
   TEIN   =    0.0    initial temperature
   TEBEG  =    0.0;   TEEND  =   0.0 temperature during run
   SMASS  =  -3.00    Nose mass-parameter (am)
   estimated Nose-frequenzy (Omega)   =  0.10E-29 period in steps =****** mass=  -0.556E-27a.u.
   SCALEE = 1.0000    scale energy and forces
   NPACO  =    256;   APACO  = 16.0  distance and # of slots for P.C.
   PSTRESS=    0.0 pullay stress

  Mass of Ions in am
   POMASS =  12.01
  Ionic Valenz
   ZVAL   =   4.00
  Atomic Wigner-Seitz radii
   RWIGS  =  -1.00
  virtual crystal weights 
   VCA    =   1.00
   NELECT =     128.0000    total number of electrons
   NUPDOWN=      -1.0000    fix difference up-down

 DOS related values:
   EMIN   =  10.00;   EMAX   =-10.00  energy-range for DOS
   EFERMI =   0.00
   ISMEAR =    -5;   SIGMA  =   0.20  broadening in eV -4-tet -1-fermi 0-gaus

 Electronic relaxation 2 (details)
   IALGO  =     38    algorithm
   LDIAG  =      T    sub-space diagonalisation (order eigenvalues)
   LSUBROT=      F    optimize rotation matrix (better conditioning)
   TURBO    =      0    0=normal 1=particle mesh
   IRESTART =      0    0=no restart 2=restart with 2 vectors
   NREBOOT  =      0    no. of reboots
   NMIN     =      0    reboot dimension
   EREF     =   0.00    reference energy to select bands
   IMIX   =      4    mixing-type and parameters
     AMIX     =   0.40;   BMIX     =  1.00
     AMIX_MAG =   1.60;   BMIX_MAG =  1.00
     AMIN     =   0.10
     WC   =   100.;   INIMIX=   1;  MIXPRE=   1;  MAXMIX= -45

 Intra band minimization:
   WEIMIN = 0.0000     energy-eigenvalue tresh-hold
   EBREAK =  0.30E-08  absolut break condition
   DEPER  =   0.30     relativ break condition  

   TIME   =   0.40     timestep for ELM

  volume/ion in A,a.u.               =       8.42        56.82
  Fermi-wavevector in a.u.,A,eV,Ry     =   1.277399  2.413934 22.201278  1.631748
  Thomas-Fermi vector in A             =   2.410001
 
 Write flags
   LWAVE  =      F    write WAVECAR
   LCHARG =      F    write CHGCAR
   LVTOT  =      F    write LOCPOT, total local potential
   LVHAR  =      F    write LOCPOT, Hartree potential only
   LELF   =      F    write electronic localiz. function (ELF)
   LORBIT =      0    0 simple, 1 ext, 2 COOP (PROOUT)


 Dipole corrections
   LMONO  =      F    monopole corrections only (constant potential shift)
   LDIPOL =      F    correct potential (dipole corrections)
   IDIPOL =      0    1-x, 2-y, 3-z, 4-all directions 
   EPSILON=  1.0000000 bulk dielectric constant

 Exchange correlation treatment:
   GGA     =    PE    GGA type
   LEXCH   =     8    internal setting for exchange type
   VOSKOWN=      0    Vosko Wilk Nusair interpolation
   LHFCALC =     F    Hartree Fock is set to
   LHFONE  =     F    Hartree Fock one center treatment
   AEXX    =    0.0000 exact exchange contribution

 Linear response parameters
   LEPSILON=     F    determine dielectric tensor
   LRPA    =     F    only Hartree local field effects (RPA)
   LNABLA  =     F    use nabla operator in PAW spheres
   LVEL    =     F    velocity operator in full k-point grid
   LINTERFAST=   F  fast interpolation
   KINTER  =     0    interpolate to denser k-point grid
   CSHIFT  =0.1000    complex shift for real part using Kramers Kronig
   OMEGAMAX=  -1.0    maximum frequency
   DEG_THRESHOLD= 0.2000000E-02 threshold for treating states as degnerate
   RTIME   =    0.100 relaxation time in fs

 Orbital magnetization related:
   ORBITALMAG=     F  switch on orbital magnetization
   LCHIMAG   =     F  perturbation theory with respect to B field
   DQ        =  0.001000  dq finite difference perturbation B field



--------------------------------------------------------------------------------------------------------


 Static calculation
 charge density and potential will be updated during run
 non-spin polarized calculation
 Variant of blocked Davidson
 Davidson routine will perform the subspace rotation
 perform sub-space diagonalisation
    after iterative eigenvector-optimisation
 modified Broyden-mixing scheme, WC =      100.0
 initial mixing is a Kerker type mixing with AMIX =  0.4000 and BMIX =      1.0000
 Hartree-type preconditioning will be used
 using additional bands           20
 reciprocal scheme for non local part
 calculate Harris-corrections to forces 
   (improved forces if not selfconsistent)
 use gradient corrections 
 use of overlap-Matrix (Vanderbilt PP)
 Fermi weights with tetrahedron method with Bloechl corrections


--------------------------------------------------------------------------------------------------------


  energy-cutoff  :      600.00
  volume of cell :      269.44
      direct lattice vectors                 reciprocal lattice vectors
     4.934310885 -0.000222400  0.000000000     0.202667819  0.117022500  0.000000000
    -2.467348046  4.273127376  0.000000000     0.000010548  0.234026730  0.000000000
     0.000000000  0.000000000 12.778910394     0.000000000  0.000000000  0.078253933

  length of vectors
     4.934310890  4.934310890 12.778910394     0.234026730  0.234026730  0.078253933


 
 k-points in units of 2pi/SCALE and weight: B4C B11C-CBC                            
   0.00000000  0.00000000  0.00000000       0.003
   0.02251865  0.01300250  0.00000000       0.006
   0.04503729  0.02600500  0.00000000       0.006
   0.06755594  0.03900750  0.00000000       0.006
   0.09007459  0.05201000  0.00000000       0.006
   0.00000117  0.02600297  0.00000000       0.006
   0.02251982  0.03900547  0.00000000       0.006
   0.04503847  0.05200797  0.00000000       0.006
   0.06755711  0.06501047  0.00000000       0.006
   0.09007576  0.07801297  0.00000000       0.006
  -0.09007341 -0.02600703  0.00000000       0.006
  -0.06755477 -0.01300453  0.00000000       0.006
  -0.04503612 -0.00000203  0.00000000       0.006
  -0.02251747  0.01300047  0.00000000       0.006
   0.00000234  0.05200594  0.00000000       0.006
   0.02252099  0.06500844  0.00000000       0.006
   0.04503964  0.07801094  0.00000000       0.006
   0.06755828  0.09101344  0.00000000       0.006
   0.09007693  0.10401594  0.00000000       0.006
  -0.09007224 -0.00000406  0.00000000       0.006
  -0.06755360  0.01299844  0.00000000       0.006
  -0.04503495  0.02600094  0.00000000       0.006
  -0.02251630  0.03900344  0.00000000       0.006
   0.00000352  0.07800891  0.00000000       0.006
   0.02252216  0.09101141  0.00000000       0.006
   0.04504081  0.10401391  0.00000000       0.006
   0.06755946  0.11701641  0.00000000       0.006
   0.09007810  0.13001891  0.00000000       0.006
  -0.09007107  0.02599891  0.00000000       0.006
  -0.06755242  0.03900141  0.00000000       0.006
  -0.04503378  0.05200391  0.00000000       0.006
  -0.02251513  0.06500641  0.00000000       0.006
   0.00000469  0.10401188  0.00000000       0.006
   0.02252333  0.11701438  0.00000000       0.006
   0.04504198  0.13001688  0.00000000       0.006
   0.06756063  0.14301938  0.00000000       0.006
   0.09007927  0.15602188  0.00000000       0.006
  -0.09006990  0.05200188  0.00000000       0.006
  -0.06755125  0.06500438  0.00000000       0.006
  -0.04503261  0.07800688  0.00000000       0.006
  -0.02251396  0.09100938  0.00000000       0.006
   0.00000000  0.00000000  0.01956348       0.006
   0.02251865  0.01300250  0.01956348       0.006
   0.04503729  0.02600500  0.01956348       0.006
   0.06755594  0.03900750  0.01956348       0.006
   0.09007459  0.05201000  0.01956348       0.006
  -0.09007459 -0.05201000  0.01956348       0.006
  -0.06755594 -0.03900750  0.01956348       0.006
  -0.04503729 -0.02600500  0.01956348       0.006
  -0.02251865 -0.01300250  0.01956348       0.006
   0.00000117  0.02600297  0.01956348       0.006
   0.02251982  0.03900547  0.01956348       0.006
   0.04503847  0.05200797  0.01956348       0.006
   0.06755711  0.06501047  0.01956348       0.006
   0.09007576  0.07801297  0.01956348       0.006
  -0.09007341 -0.02600703  0.01956348       0.006
  -0.06755477 -0.01300453  0.01956348       0.006
  -0.04503612 -0.00000203  0.01956348       0.006
  -0.02251747  0.01300047  0.01956348       0.006
   0.00000234  0.05200594  0.01956348       0.006
   0.02252099  0.06500844  0.01956348       0.006
   0.04503964  0.07801094  0.01956348       0.006
   0.06755828  0.09101344  0.01956348       0.006
   0.09007693  0.10401594  0.01956348       0.006
  -0.09007224 -0.00000406  0.01956348       0.006
  -0.06755360  0.01299844  0.01956348       0.006
  -0.04503495  0.02600094  0.01956348       0.006
  -0.02251630  0.03900344  0.01956348       0.006
   0.00000352  0.07800891  0.01956348       0.006
   0.02252216  0.09101141  0.01956348       0.006
   0.04504081  0.10401391  0.01956348       0.006
   0.06755946  0.11701641  0.01956348       0.006
   0.09007810  0.13001891  0.01956348       0.006
  -0.09007107  0.02599891  0.01956348       0.006
  -0.06755242  0.03900141  0.01956348       0.006
  -0.04503378  0.05200391  0.01956348       0.006
  -0.02251513  0.06500641  0.01956348       0.006
   0.00000469  0.10401188  0.01956348       0.006
   0.02252333  0.11701438  0.01956348       0.006
   0.04504198  0.13001688  0.01956348       0.006
   0.06756063  0.14301938  0.01956348       0.006
   0.09007927  0.15602188  0.01956348       0.006
  -0.09006990  0.05200188  0.01956348       0.006
  -0.06755125  0.06500438  0.01956348       0.006
  -0.04503261  0.07800688  0.01956348       0.006
  -0.02251396  0.09100938  0.01956348       0.006
  -0.00000469 -0.10401188  0.01956348       0.006
   0.02251396 -0.09100938  0.01956348       0.006
   0.04503261 -0.07800688  0.01956348       0.006
   0.06755125 -0.06500438  0.01956348       0.006
   0.09006990 -0.05200188  0.01956348       0.006
  -0.09007927 -0.15602188  0.01956348       0.006
  -0.06756063 -0.14301938  0.01956348       0.006
  -0.04504198 -0.13001688  0.01956348       0.006
  -0.02252333 -0.11701438  0.01956348       0.006
  -0.00000352 -0.07800891  0.01956348       0.006
   0.02251513 -0.06500641  0.01956348       0.006
   0.04503378 -0.05200391  0.01956348       0.006
   0.06755242 -0.03900141  0.01956348       0.006
   0.09007107 -0.02599891  0.01956348       0.006
  -0.09007810 -0.13001891  0.01956348       0.006
  -0.06755946 -0.11701641  0.01956348       0.006
  -0.04504081 -0.10401391  0.01956348       0.006
  -0.02252216 -0.09101141  0.01956348       0.006
  -0.00000234 -0.05200594  0.01956348       0.006
   0.02251630 -0.03900344  0.01956348       0.006
   0.04503495 -0.02600094  0.01956348       0.006
   0.06755360 -0.01299844  0.01956348       0.006
   0.09007224  0.00000406  0.01956348       0.006
  -0.09007693 -0.10401594  0.01956348       0.006
  -0.06755828 -0.09101344  0.01956348       0.006
  -0.04503964 -0.07801094  0.01956348       0.006
  -0.02252099 -0.06500844  0.01956348       0.006
  -0.00000117 -0.02600297  0.01956348       0.006
   0.02251747 -0.01300047  0.01956348       0.006
   0.04503612  0.00000203  0.01956348       0.006
   0.06755477  0.01300453  0.01956348       0.006
   0.09007341  0.02600703  0.01956348       0.006
  -0.09007576 -0.07801297  0.01956348       0.006
  -0.06755711 -0.06501047  0.01956348       0.006
  -0.04503847 -0.05200797  0.01956348       0.006
  -0.02251982 -0.03900547  0.01956348       0.006
   0.00000000  0.00000000  0.03912697       0.003
   0.02251865  0.01300250  0.03912697       0.006
   0.04503729  0.02600500  0.03912697       0.006
   0.06755594  0.03900750  0.03912697       0.006
   0.09007459  0.05201000  0.03912697       0.006
   0.00000117  0.02600297  0.03912697       0.006
   0.02251982  0.03900547  0.03912697       0.006
   0.04503847  0.05200797  0.03912697       0.006
   0.06755711  0.06501047  0.03912697       0.006
   0.09007576  0.07801297  0.03912697       0.006
  -0.09007341 -0.02600703  0.03912697       0.006
  -0.06755477 -0.01300453  0.03912697       0.006
  -0.04503612 -0.00000203  0.03912697       0.006
  -0.02251747  0.01300047  0.03912697       0.006
   0.00000234  0.05200594  0.03912697       0.006
   0.02252099  0.06500844  0.03912697       0.006
   0.04503964  0.07801094  0.03912697       0.006
   0.06755828  0.09101344  0.03912697       0.006
   0.09007693  0.10401594  0.03912697       0.006
  -0.09007224 -0.00000406  0.03912697       0.006
  -0.06755360  0.01299844  0.03912697       0.006
  -0.04503495  0.02600094  0.03912697       0.006
  -0.02251630  0.03900344  0.03912697       0.006
   0.00000352  0.07800891  0.03912697       0.006
   0.02252216  0.09101141  0.03912697       0.006
   0.04504081  0.10401391  0.03912697       0.006
   0.06755946  0.11701641  0.03912697       0.006
   0.09007810  0.13001891  0.03912697       0.006
  -0.09007107  0.02599891  0.03912697       0.006
  -0.06755242  0.03900141  0.03912697       0.006
  -0.04503378  0.05200391  0.03912697       0.006
  -0.02251513  0.06500641  0.03912697       0.006
   0.00000469  0.10401188  0.03912697       0.006
   0.02252333  0.11701438  0.03912697       0.006
   0.04504198  0.13001688  0.03912697       0.006
   0.06756063  0.14301938  0.03912697       0.006
   0.09007927  0.15602188  0.03912697       0.006
  -0.09006990  0.05200188  0.03912697       0.006
  -0.06755125  0.06500438  0.03912697       0.006
  -0.04503261  0.07800688  0.03912697       0.006
  -0.02251396  0.09100938  0.03912697       0.006
 
 k-points in reciprocal lattice and weights: B4C B11C-CBC                            
   0.00000000  0.00000000  0.00000000       0.003
   0.11111111 -0.00000000  0.00000000       0.006
   0.22222222 -0.00000000  0.00000000       0.006
   0.33333333 -0.00000000  0.00000000       0.006
   0.44444444 -0.00000000  0.00000000       0.006
  -0.00000000  0.11111111  0.00000000       0.006
   0.11111111  0.11111111  0.00000000       0.006
   0.22222222  0.11111111  0.00000000       0.006
   0.33333333  0.11111111  0.00000000       0.006
   0.44444444  0.11111111  0.00000000       0.006
  -0.44444444  0.11111111  0.00000000       0.006
  -0.33333333  0.11111111  0.00000000       0.006
  -0.22222222  0.11111111  0.00000000       0.006
  -0.11111111  0.11111111  0.00000000       0.006
  -0.00000000  0.22222222  0.00000000       0.006
   0.11111111  0.22222222  0.00000000       0.006
   0.22222222  0.22222222  0.00000000       0.006
   0.33333333  0.22222222  0.00000000       0.006
   0.44444444  0.22222222  0.00000000       0.006
  -0.44444444  0.22222222  0.00000000       0.006
  -0.33333333  0.22222222  0.00000000       0.006
  -0.22222222  0.22222222  0.00000000       0.006
  -0.11111111  0.22222222  0.00000000       0.006
  -0.00000000  0.33333333  0.00000000       0.006
   0.11111111  0.33333333  0.00000000       0.006
   0.22222222  0.33333333  0.00000000       0.006
   0.33333333  0.33333333  0.00000000       0.006
   0.44444444  0.33333333  0.00000000       0.006
  -0.44444444  0.33333333  0.00000000       0.006
  -0.33333333  0.33333333  0.00000000       0.006
  -0.22222222  0.33333333  0.00000000       0.006
  -0.11111111  0.33333333  0.00000000       0.006
  -0.00000000  0.44444444  0.00000000       0.006
   0.11111111  0.44444444  0.00000000       0.006
   0.22222222  0.44444444  0.00000000       0.006
   0.33333333  0.44444444  0.00000000       0.006
   0.44444444  0.44444444  0.00000000       0.006
  -0.44444444  0.44444444  0.00000000       0.006
  -0.33333333  0.44444444  0.00000000       0.006
  -0.22222222  0.44444444  0.00000000       0.006
  -0.11111111  0.44444444  0.00000000       0.006
   0.00000000  0.00000000  0.25000000       0.006
   0.11111111 -0.00000000  0.25000000       0.006
   0.22222222 -0.00000000  0.25000000       0.006
   0.33333333 -0.00000000  0.25000000       0.006
   0.44444444 -0.00000000  0.25000000       0.006
  -0.44444444  0.00000000  0.25000000       0.006
  -0.33333333  0.00000000  0.25000000       0.006
  -0.22222222  0.00000000  0.25000000       0.006
  -0.11111111  0.00000000  0.25000000       0.006
  -0.00000000  0.11111111  0.25000000       0.006
   0.11111111  0.11111111  0.25000000       0.006
   0.22222222  0.11111111  0.25000000       0.006
   0.33333333  0.11111111  0.25000000       0.006
   0.44444444  0.11111111  0.25000000       0.006
  -0.44444444  0.11111111  0.25000000       0.006
  -0.33333333  0.11111111  0.25000000       0.006
  -0.22222222  0.11111111  0.25000000       0.006
  -0.11111111  0.11111111  0.25000000       0.006
  -0.00000000  0.22222222  0.25000000       0.006
   0.11111111  0.22222222  0.25000000       0.006
   0.22222222  0.22222222  0.25000000       0.006
   0.33333333  0.22222222  0.25000000       0.006
   0.44444444  0.22222222  0.25000000       0.006
  -0.44444444  0.22222222  0.25000000       0.006
  -0.33333333  0.22222222  0.25000000       0.006
  -0.22222222  0.22222222  0.25000000       0.006
  -0.11111111  0.22222222  0.25000000       0.006
  -0.00000000  0.33333333  0.25000000       0.006
   0.11111111  0.33333333  0.25000000       0.006
   0.22222222  0.33333333  0.25000000       0.006
   0.33333333  0.33333333  0.25000000       0.006
   0.44444444  0.33333333  0.25000000       0.006
  -0.44444444  0.33333333  0.25000000       0.006
  -0.33333333  0.33333333  0.25000000       0.006
  -0.22222222  0.33333333  0.25000000       0.006
  -0.11111111  0.33333333  0.25000000       0.006
  -0.00000000  0.44444444  0.25000000       0.006
   0.11111111  0.44444444  0.25000000       0.006
   0.22222222  0.44444444  0.25000000       0.006
   0.33333333  0.44444444  0.25000000       0.006
   0.44444444  0.44444444  0.25000000       0.006
  -0.44444444  0.44444444  0.25000000       0.006
  -0.33333333  0.44444444  0.25000000       0.006
  -0.22222222  0.44444444  0.25000000       0.006
  -0.11111111  0.44444444  0.25000000       0.006
   0.00000000 -0.44444444  0.25000000       0.006
   0.11111111 -0.44444444  0.25000000       0.006
   0.22222222 -0.44444444  0.25000000       0.006
   0.33333333 -0.44444444  0.25000000       0.006
   0.44444444 -0.44444444  0.25000000       0.006
  -0.44444444 -0.44444444  0.25000000       0.006
  -0.33333333 -0.44444444  0.25000000       0.006
  -0.22222222 -0.44444444  0.25000000       0.006
  -0.11111111 -0.44444444  0.25000000       0.006
   0.00000000 -0.33333333  0.25000000       0.006
   0.11111111 -0.33333333  0.25000000       0.006
   0.22222222 -0.33333333  0.25000000       0.006
   0.33333333 -0.33333333  0.25000000       0.006
   0.44444444 -0.33333333  0.25000000       0.006
  -0.44444444 -0.33333333  0.25000000       0.006
  -0.33333333 -0.33333333  0.25000000       0.006
  -0.22222222 -0.33333333  0.25000000       0.006
  -0.11111111 -0.33333333  0.25000000       0.006
   0.00000000 -0.22222222  0.25000000       0.006
   0.11111111 -0.22222222  0.25000000       0.006
   0.22222222 -0.22222222  0.25000000       0.006
   0.33333333 -0.22222222  0.25000000       0.006
   0.44444444 -0.22222222  0.25000000       0.006
  -0.44444444 -0.22222222  0.25000000       0.006
  -0.33333333 -0.22222222  0.25000000       0.006
  -0.22222222 -0.22222222  0.25000000       0.006
  -0.11111111 -0.22222222  0.25000000       0.006
   0.00000000 -0.11111111  0.25000000       0.006
   0.11111111 -0.11111111  0.25000000       0.006
   0.22222222 -0.11111111  0.25000000       0.006
   0.33333333 -0.11111111  0.25000000       0.006
   0.44444444 -0.11111111  0.25000000       0.006
  -0.44444444 -0.11111111  0.25000000       0.006
  -0.33333333 -0.11111111  0.25000000       0.006
  -0.22222222 -0.11111111  0.25000000       0.006
  -0.11111111 -0.11111111  0.25000000       0.006
   0.00000000  0.00000000  0.50000000       0.003
   0.11111111 -0.00000000  0.50000000       0.006
   0.22222222 -0.00000000  0.50000000       0.006
   0.33333333 -0.00000000  0.50000000       0.006
   0.44444444 -0.00000000  0.50000000       0.006
  -0.00000000  0.11111111  0.50000000       0.006
   0.11111111  0.11111111  0.50000000       0.006
   0.22222222  0.11111111  0.50000000       0.006
   0.33333333  0.11111111  0.50000000       0.006
   0.44444444  0.11111111  0.50000000       0.006
  -0.44444444  0.11111111  0.50000000       0.006
  -0.33333333  0.11111111  0.50000000       0.006
  -0.22222222  0.11111111  0.50000000       0.006
  -0.11111111  0.11111111  0.50000000       0.006
  -0.00000000  0.22222222  0.50000000       0.006
   0.11111111  0.22222222  0.50000000       0.006
   0.22222222  0.22222222  0.50000000       0.006
   0.33333333  0.22222222  0.50000000       0.006
   0.44444444  0.22222222  0.50000000       0.006
  -0.44444444  0.22222222  0.50000000       0.006
  -0.33333333  0.22222222  0.50000000       0.006
  -0.22222222  0.22222222  0.50000000       0.006
  -0.11111111  0.22222222  0.50000000       0.006
  -0.00000000  0.33333333  0.50000000       0.006
   0.11111111  0.33333333  0.50000000       0.006
   0.22222222  0.33333333  0.50000000       0.006
   0.33333333  0.33333333  0.50000000       0.006
   0.44444444  0.33333333  0.50000000       0.006
  -0.44444444  0.33333333  0.50000000       0.006
  -0.33333333  0.33333333  0.50000000       0.006
  -0.22222222  0.33333333  0.50000000       0.006
  -0.11111111  0.33333333  0.50000000       0.006
  -0.00000000  0.44444444  0.50000000       0.006
   0.11111111  0.44444444  0.50000000       0.006
   0.22222222  0.44444444  0.50000000       0.006
   0.33333333  0.44444444  0.50000000       0.006
   0.44444444  0.44444444  0.50000000       0.006
  -0.44444444  0.44444444  0.50000000       0.006
  -0.33333333  0.44444444  0.50000000       0.006
  -0.22222222  0.44444444  0.50000000       0.006
  -0.11111111  0.44444444  0.50000000       0.006
 
 position of ions in fractional coordinates (direct lattice) 
   0.49926984  0.00000017  0.12426999
   0.99999985  0.00000017  0.12500000
   0.49999985  0.50000017  0.12500000
   0.99999985  0.50000017  0.12500000
   0.49999985  0.00000017  0.62500000
   0.99999985  0.00000017  0.62500000
   0.49999985  0.50000017  0.62500000
   0.99999985  0.50000017  0.62500000
   0.00000017  0.49999985  0.37500000
   0.50000017  0.49999985  0.37500000
   0.00000017  0.99999985  0.37500000
   0.50000017  0.99999985  0.37500000
   0.00000017  0.49999985  0.87500000
   0.50000017  0.49999985  0.87500000
   0.00000017  0.99999985  0.87500000
   0.50000017  0.99999985  0.87500000
   0.16664946  0.33335053  0.12500000
   0.66664946  0.33335053  0.12500000
   0.16664946  0.83335053  0.12500000
   0.66664946  0.83335053  0.12500000
   0.16664946  0.33335053  0.62500000
   0.66664946  0.33335053  0.62500000
   0.16664946  0.83335053  0.62500000
   0.66664946  0.83335053  0.62500000
   0.33335053  0.16664946  0.37500000
   0.83335053  0.16664946  0.37500000
   0.33335053  0.66664946  0.37500000
   0.83335053  0.66664946  0.37500000
   0.33335053  0.16664946  0.87500000
   0.83335053  0.16664946  0.87500000
   0.33335053  0.66664946  0.87500000
   0.83335053  0.66664946  0.87500000
 
 position of ions in cartesian coordinates  (Angst):
   2.46355217 -0.00011029  1.58803508
   4.93430971 -0.00022165  1.59736380
   1.23348024  2.13645323  1.59736380
   3.70063568  2.13634203  1.59736380
   2.46715426 -0.00011045  7.98681900
   4.93430971 -0.00022165  7.98681900
   1.23348024  2.13645323  7.98681900
   3.70063568  2.13634203  7.98681900
  -1.23367279  2.13656304  4.79209140
   1.23348265  2.13645184  4.79209140
  -2.46734681  4.27312673  4.79209140
  -0.00019137  4.27301553  4.79209140
  -1.23367279  2.13656304 11.18154659
   1.23348265  2.13645184 11.18154659
  -2.46734681  4.27312673 11.18154659
  -0.00019137  4.27301553 11.18154659
  -0.00019150  1.42441220  1.59736380
   2.46696394  1.42430100  1.59736380
  -1.23386552  3.56097589  1.59736380
   1.23328992  3.56086469  1.59736380
  -0.00019150  1.42441220  7.98681900
   2.46696394  1.42430100  7.98681900
  -1.23386552  3.56097589  7.98681900
   1.23328992  3.56086469  7.98681900
   1.23367290  0.71204025  4.79209140
   3.70082834  0.71192905  4.79209140
  -0.00000112  2.84860394  4.79209140
   2.46715432  2.84849274  4.79209140
   1.23367290  0.71204025 11.18154659
   3.70082834  0.71192905 11.18154659
  -0.00000112  2.84860394 11.18154659
   2.46715432  2.84849274 11.18154659
 


--------------------------------------------------------------------------------------------------------


 k-point  1 :   0.0000 0.0000 0.0000  plane waves:    8931
 k-point  2 :   0.1111-0.0000 0.0000  plane waves:    8975
 k-point  3 :   0.2222-0.0000 0.0000  plane waves:    8979
 k-point  4 :   0.3333-0.0000 0.0000  plane waves:    9003
 k-point  5 :   0.4444-0.0000 0.0000  plane waves:    8997
 k-point  6 :  -0.0000 0.1111 0.0000  plane waves:    8975
 k-point  7 :   0.1111 0.1111 0.0000  plane waves:    8960
 k-point  8 :   0.2222 0.1111 0.0000  plane waves:    8996
 k-point  9 :   0.3333 0.1111 0.0000  plane waves:    8996
 k-point 10 :   0.4444 0.1111 0.0000  plane waves:    9018
 k-point 11 :  -0.4444 0.1111 0.0000  plane waves:    8996
 k-point 12 :  -0.3333 0.1111 0.0000  plane waves:    8996
 k-point 13 :  -0.2222 0.1111 0.0000  plane waves:    8964
 k-point 14 :  -0.1111 0.1111 0.0000  plane waves:    8975
 k-point 15 :  -0.0000 0.2222 0.0000  plane waves:    8979
 k-point 16 :   0.1111 0.2222 0.0000  plane waves:    8996
 k-point 17 :   0.2222 0.2222 0.0000  plane waves:    9014
 k-point 18 :   0.3333 0.2222 0.0000  plane waves:    9002
 k-point 19 :   0.4444 0.2222 0.0000  plane waves:    9002
 k-point 20 :  -0.4444 0.2222 0.0000  plane waves:    9014
 k-point 21 :  -0.3333 0.2222 0.0000  plane waves:    8994
 k-point 22 :  -0.2222 0.2222 0.0000  plane waves:    8979
 k-point 23 :  -0.1111 0.2222 0.0000  plane waves:    8964
 k-point 24 :  -0.0000 0.3333 0.0000  plane waves:    9003
 k-point 25 :   0.1111 0.3333 0.0000  plane waves:    8996
 k-point 26 :   0.2222 0.3333 0.0000  plane waves:    9002
 k-point 27 :   0.3333 0.3333 0.0000  plane waves:    9006
 k-point 28 :   0.4444 0.3333 0.0000  plane waves:    9002
 k-point 29 :  -0.4444 0.3333 0.0000  plane waves:    8996
 k-point 30 :  -0.3333 0.3333 0.0000  plane waves:    9003
 k-point 31 :  -0.2222 0.3333 0.0000  plane waves:    8994
 k-point 32 :  -0.1111 0.3333 0.0000  plane waves:    8996
 k-point 33 :  -0.0000 0.4444 0.0000  plane waves:    8997
 k-point 34 :   0.1111 0.4444 0.0000  plane waves:    9018
 k-point 35 :   0.2222 0.4444 0.0000  plane waves:    9002
 k-point 36 :   0.3333 0.4444 0.0000  plane waves:    9002
 k-point 37 :   0.4444 0.4444 0.0000  plane waves:    9018
 k-point 38 :  -0.4444 0.4444 0.0000  plane waves:    8997
 k-point 39 :  -0.3333 0.4444 0.0000  plane waves:    8996
 k-point 40 :  -0.2222 0.4444 0.0000  plane waves:    9014
 k-point 41 :  -0.1111 0.4444 0.0000  plane waves:    8996
 k-point 42 :   0.0000 0.0000 0.2500  plane waves:    8949
 k-point 43 :   0.1111-0.0000 0.2500  plane waves:    8965
 k-point 44 :   0.2222-0.0000 0.2500  plane waves:    8990
 k-point 45 :   0.3333-0.0000 0.2500  plane waves:    9008
 k-point 46 :   0.4444-0.0000 0.2500  plane waves:    9002
 k-point 47 :  -0.4444 0.0000 0.2500  plane waves:    9002
 k-point 48 :  -0.3333 0.0000 0.2500  plane waves:    9008
 k-point 49 :  -0.2222 0.0000 0.2500  plane waves:    8990
 k-point 50 :  -0.1111 0.0000 0.2500  plane waves:    8965
 k-point 51 :  -0.0000 0.1111 0.2500  plane waves:    8965
 k-point 52 :   0.1111 0.1111 0.2500  plane waves:    8982
 k-point 53 :   0.2222 0.1111 0.2500  plane waves:    8996
 k-point 54 :   0.3333 0.1111 0.2500  plane waves:    8989
 k-point 55 :   0.4444 0.1111 0.2500  plane waves:    9015
 k-point 56 :  -0.4444 0.1111 0.2500  plane waves:    8989
 k-point 57 :  -0.3333 0.1111 0.2500  plane waves:    8995
 k-point 58 :  -0.2222 0.1111 0.2500  plane waves:    8982
 k-point 59 :  -0.1111 0.1111 0.2500  plane waves:    8965
 k-point 60 :  -0.0000 0.2222 0.2500  plane waves:    8990
 k-point 61 :   0.1111 0.2222 0.2500  plane waves:    8996
 k-point 62 :   0.2222 0.2222 0.2500  plane waves:    8976
 k-point 63 :   0.3333 0.2222 0.2500  plane waves:    8996
 k-point 64 :   0.4444 0.2222 0.2500  plane waves:    8996
 k-point 65 :  -0.4444 0.2222 0.2500  plane waves:    8976
 k-point 66 :  -0.3333 0.2222 0.2500  plane waves:    8995
 k-point 67 :  -0.2222 0.2222 0.2500  plane waves:    8991
 k-point 68 :  -0.1111 0.2222 0.2500  plane waves:    8982
 k-point 69 :  -0.0000 0.3333 0.2500  plane waves:    9008
 k-point 70 :   0.1111 0.3333 0.2500  plane waves:    8989
 k-point 71 :   0.2222 0.3333 0.2500  plane waves:    8996
 k-point 72 :   0.3333 0.3333 0.2500  plane waves:    9009
 k-point 73 :   0.4444 0.3333 0.2500  plane waves:    8996
 k-point 74 :  -0.4444 0.3333 0.2500  plane waves:    8989
 k-point 75 :  -0.3333 0.3333 0.2500  plane waves:    9008
 k-point 76 :  -0.2222 0.3333 0.2500  plane waves:    8995
 k-point 77 :  -0.1111 0.3333 0.2500  plane waves:    8995
 k-point 78 :  -0.0000 0.4444 0.2500  plane waves:    9002
 k-point 79 :   0.1111 0.4444 0.2500  plane waves:    9015
 k-point 80 :   0.2222 0.4444 0.2500  plane waves:    8996
 k-point 81 :   0.3333 0.4444 0.2500  plane waves:    8996
 k-point 82 :   0.4444 0.4444 0.2500  plane waves:    9015
 k-point 83 :  -0.4444 0.4444 0.2500  plane waves:    9002
 k-point 84 :  -0.3333 0.4444 0.2500  plane waves:    8989
 k-point 85 :  -0.2222 0.4444 0.2500  plane waves:    8976
 k-point 86 :  -0.1111 0.4444 0.2500  plane waves:    8989
 k-point 87 :   0.0000-0.4444 0.2500  plane waves:    9002
 k-point 88 :   0.1111-0.4444 0.2500  plane waves:    8989
 k-point 89 :   0.2222-0.4444 0.2500  plane waves:    8976
 k-point 90 :   0.3333-0.4444 0.2500  plane waves:    8989
 k-point 91 :   0.4444-0.4444 0.2500  plane waves:    9002
 k-point 92 :  -0.4444-0.4444 0.2500  plane waves:    9015
 k-point 93 :  -0.3333-0.4444 0.2500  plane waves:    8996
 k-point 94 :  -0.2222-0.4444 0.2500  plane waves:    8996
 k-point 95 :  -0.1111-0.4444 0.2500  plane waves:    9015
 k-point 96 :   0.0000-0.3333 0.2500  plane waves:    9008
 k-point 97 :   0.1111-0.3333 0.2500  plane waves:    8995
 k-point 98 :   0.2222-0.3333 0.2500  plane waves:    8995
 k-point 99 :   0.3333-0.3333 0.2500  plane waves:    9008
 k-point ** :   0.4444-0.3333 0.2500  plane waves:    8989
 k-point ** :  -0.4444-0.3333 0.2500  plane waves:    8996
 k-point ** :  -0.3333-0.3333 0.2500  plane waves:    9009
 k-point ** :  -0.2222-0.3333 0.2500  plane waves:    8996
 k-point ** :  -0.1111-0.3333 0.2500  plane waves:    8989
 k-point ** :   0.0000-0.2222 0.2500  plane waves:    8990
 k-point ** :   0.1111-0.2222 0.2500  plane waves:    8982
 k-point ** :   0.2222-0.2222 0.2500  plane waves:    8991
 k-point ** :   0.3333-0.2222 0.2500  plane waves:    8995
 k-point ** :   0.4444-0.2222 0.2500  plane waves:    8976
 k-point ** :  -0.4444-0.2222 0.2500  plane waves:    8996
 k-point ** :  -0.3333-0.2222 0.2500  plane waves:    8996
 k-point ** :  -0.2222-0.2222 0.2500  plane waves:    8976
 k-point ** :  -0.1111-0.2222 0.2500  plane waves:    8996
 k-point ** :   0.0000-0.1111 0.2500  plane waves:    8965
 k-point ** :   0.1111-0.1111 0.2500  plane waves:    8965
 k-point ** :   0.2222-0.1111 0.2500  plane waves:    8982
 k-point ** :   0.3333-0.1111 0.2500  plane waves:    8995
 k-point ** :   0.4444-0.1111 0.2500  plane waves:    8989
 k-point ** :  -0.4444-0.1111 0.2500  plane waves:    9015
 k-point ** :  -0.3333-0.1111 0.2500  plane waves:    8989
 k-point ** :  -0.2222-0.1111 0.2500  plane waves:    8996
 k-point ** :  -0.1111-0.1111 0.2500  plane waves:    8982
 k-point ** :   0.0000 0.0000 0.5000  plane waves:    8920
 k-point ** :   0.1111-0.0000 0.5000  plane waves:    8954
 k-point ** :   0.2222-0.0000 0.5000  plane waves:    8992
 k-point ** :   0.3333-0.0000 0.5000  plane waves:    9000
 k-point ** :   0.4444-0.0000 0.5000  plane waves:    9012
 k-point ** :  -0.0000 0.1111 0.5000  plane waves:    8954
 k-point ** :   0.1111 0.1111 0.5000  plane waves:    8978
 k-point ** :   0.2222 0.1111 0.5000  plane waves:    8974
 k-point ** :   0.3333 0.1111 0.5000  plane waves:    8992
 k-point ** :   0.4444 0.1111 0.5000  plane waves:    8994
 k-point ** :  -0.4444 0.1111 0.5000  plane waves:    8992
 k-point ** :  -0.3333 0.1111 0.5000  plane waves:    8976
 k-point ** :  -0.2222 0.1111 0.5000  plane waves:    8978
 k-point ** :  -0.1111 0.1111 0.5000  plane waves:    8950
 k-point ** :  -0.0000 0.2222 0.5000  plane waves:    8992
 k-point ** :   0.1111 0.2222 0.5000  plane waves:    8974
 k-point ** :   0.2222 0.2222 0.5000  plane waves:    8990
 k-point ** :   0.3333 0.2222 0.5000  plane waves:    8998
 k-point ** :   0.4444 0.2222 0.5000  plane waves:    8996
 k-point ** :  -0.4444 0.2222 0.5000  plane waves:    8990
 k-point ** :  -0.3333 0.2222 0.5000  plane waves:    8976
 k-point ** :  -0.2222 0.2222 0.5000  plane waves:    8992
 k-point ** :  -0.1111 0.2222 0.5000  plane waves:    8978
 k-point ** :  -0.0000 0.3333 0.5000  plane waves:    9000
 k-point ** :   0.1111 0.3333 0.5000  plane waves:    8992
 k-point ** :   0.2222 0.3333 0.5000  plane waves:    8998
 k-point ** :   0.3333 0.3333 0.5000  plane waves:    9004
 k-point ** :   0.4444 0.3333 0.5000  plane waves:    9000
 k-point ** :  -0.4444 0.3333 0.5000  plane waves:    8992
 k-point ** :  -0.3333 0.3333 0.5000  plane waves:    9002
 k-point ** :  -0.2222 0.3333 0.5000  plane waves:    8976
 k-point ** :  -0.1111 0.3333 0.5000  plane waves:    8976
 k-point ** :  -0.0000 0.4444 0.5000  plane waves:    9012
 k-point ** :   0.1111 0.4444 0.5000  plane waves:    8994
 k-point ** :   0.2222 0.4444 0.5000  plane waves:    8996
 k-point ** :   0.3333 0.4444 0.5000  plane waves:    9000
 k-point ** :   0.4444 0.4444 0.5000  plane waves:    8994
 k-point ** :  -0.4444 0.4444 0.5000  plane waves:    9016
 k-point ** :  -0.3333 0.4444 0.5000  plane waves:    8992
 k-point ** :  -0.2222 0.4444 0.5000  plane waves:    8990
 k-point ** :  -0.1111 0.4444 0.5000  plane waves:    8992

 maximum and minimum number of plane-waves per node :      9018     8920

 maximum number of plane-waves:      9018
 maximum index in each direction: 
   IXMAX=   10   IYMAX=   10   IZMAX=   25
   IXMIN=  -10   IYMIN=  -10   IZMIN=  -26

 WARNING: aliasing errors must be expected set NGX to  42 to avoid them
 WARNING: aliasing errors must be expected set NGY to  42 to avoid them
 NGZ is ok and might be reduce to 104
 aliasing errors are usually negligible using standard VASP settings
 and one can safely disregard these warnings

 serial   3D FFT for wavefunctions
 parallel 3D FFT for charge:
    minimum data exchange during FFTs selected (reduces bandwidth)


 total amount of memory used by VASP on root node   494879. kBytes
========================================================================

   base      :      30000. kBytes
   nonl-proj :      98692. kBytes
   fftplans  :       8783. kBytes
   grid      :      18621. kBytes
   one-center:         98. kBytes
   wavefun   :     338685. kBytes
 
     INWAV:  cpu time    0.00: real time    0.00
 Broyden mixing: mesh for mixing (old mesh)
   NGX = 19   NGY = 19   NGZ = 51
  (NGX  = 80   NGY  = 80   NGZ  =216)
  gives a total of  18411 points

 initial charge density was supplied:
 charge density of overlapping atoms calculated
 number of electron     128.0000000 magnetization 
 keeping initial charge density in first step


--------------------------------------------------------------------------------------------------------


 Maximum index for augmentation-charges         1503 (set IRDMAX)


--------------------------------------------------------------------------------------------------------


 First call to EWALD:  gamma=   0.274
 Maximum number of real-space cells 4x 4x 2
 Maximum number of reciprocal cells 2x 2x 5

 FEWALD executed in parallel
    FEWALD:  cpu time    0.00: real time    0.00


----------------------------------------- Iteration    1(   1)  ---------------------------------------


    POTLOK:  cpu time    0.20: real time    0.20
    SETDIJ:  cpu time    0.01: real time    0.01
     EDDAV:  cpu time  144.69: real time  144.77
 BZINTS: Fermi energy: 16.323293;128.000000 electrons
         Band energy: 103.751268;  BLOECHL correction: -0.128523
       DOS:  cpu time    0.20: real time    0.20
    --------------------------------------------
      LOOP:  cpu time  145.11: real time  145.23

 eigenvalue-minimisations  : 27384
 total energy-change (2. order) : 0.5688357E+03  (-0.7229906E+04)
 number of electron     128.0000000 magnetization 
 augmentation part      128.0000000 magnetization 

 Free energy of the ion-electron system (eV)
  ---------------------------------------------------
  alpha Z        PSCENC =       309.66846517
  Ewald energy   TEWEN  =     -3921.12895898
  -Hartree energ DENC   =     -1039.20786625
  -exchange      EXHF   =         0.00000000
  -V(xc)+E(xc)   XCENC  =       443.75891255
  PAW double counting   =      1210.60617908    -1247.42152856
  entropy T*S    EENTRO =         0.00000000
  eigenvalues    EBANDS =       103.75126800
  atomic energy  EATOM  =      4708.80920826
  ---------------------------------------------------
  free energy    TOTEN  =       568.83567928 eV

  energy without entropy =      568.83567928  energy(sigma->0) =      568.83567928


--------------------------------------------------------------------------------------------------------




----------------------------------------- Iteration    1(   2)  ---------------------------------------


     EDDAV:  cpu time  169.78: real time  169.87
 BZINTS: Fermi energy:  4.432091;128.000000 electrons
         Band energy:-730.395945;  BLOECHL correction: -0.002053
       DOS:  cpu time    0.17: real time    0.17
    --------------------------------------------
      LOOP:  cpu time  169.96: real time  170.04

 eigenvalue-minimisations  : 34044
 total energy-change (2. order) :-0.8341472E+03  (-0.8039324E+03)
 number of electron     128.0000000 magnetization 
 augmentation part      128.0000000 magnetization 

 Free energy of the ion-electron system (eV)
  ---------------------------------------------------
  alpha Z        PSCENC =       309.66846517
  Ewald energy   TEWEN  =     -3921.12895898
  -Hartree energ DENC   =     -1039.20786625
  -exchange      EXHF   =         0.00000000
  -V(xc)+E(xc)   XCENC  =       443.75891255
  PAW double counting   =      1210.60617908    -1247.42152856
  entropy T*S    EENTRO =         0.00000000
  eigenvalues    EBANDS =      -730.39594502
  atomic energy  EATOM  =      4708.80920826
  ---------------------------------------------------
  free energy    TOTEN  =      -265.31153374 eV

  energy without entropy =     -265.31153374  energy(sigma->0) =     -265.31153374


--------------------------------------------------------------------------------------------------------




----------------------------------------- Iteration    1(   3)  ---------------------------------------


     EDDAV:  cpu time  166.96: real time  167.04
 BZINTS: Fermi energy:  3.728183;128.000000 electrons
         Band energy:-777.001397;  BLOECHL correction: -0.000004
       DOS:  cpu time    0.12: real time    0.12
    --------------------------------------------
      LOOP:  cpu time  167.07: real time  167.16

 eigenvalue-minimisations  : 33276
 total energy-change (2. order) :-0.4660545E+02  (-0.4614619E+02)
 number of electron     128.0000000 magnetization 
 augmentation part      128.0000000 magnetization 

 Free energy of the ion-electron system (eV)
  ---------------------------------------------------
  alpha Z        PSCENC =       309.66846517
  Ewald energy   TEWEN  =     -3921.12895898
  -Hartree energ DENC   =     -1039.20786625
  -exchange      EXHF   =         0.00000000
  -V(xc)+E(xc)   XCENC  =       443.75891255
  PAW double counting   =      1210.60617908    -1247.42152856
  entropy T*S    EENTRO =         0.00000000
  eigenvalues    EBANDS =      -777.00139745
  atomic energy  EATOM  =      4708.80920826
  ---------------------------------------------------
  free energy    TOTEN  =      -311.91698617 eV

  energy without entropy =     -311.91698617  energy(sigma->0) =     -311.91698617


--------------------------------------------------------------------------------------------------------




----------------------------------------- Iteration    1(   4)  ---------------------------------------


     EDDAV:  cpu time  170.36: real time  170.44
 BZINTS: Fermi energy:  3.718288;128.000000 electrons
         Band energy:-777.857453;  BLOECHL correction: -0.000004
       DOS:  cpu time    0.12: real time    0.12
    --------------------------------------------
      LOOP:  cpu time  170.48: real time  170.56

 eigenvalue-minimisations  : 34308
 total energy-change (2. order) :-0.8560554E+00  (-0.8543993E+00)
 number of electron     128.0000000 magnetization 
 augmentation part      128.0000000 magnetization 

 Free energy of the ion-electron system (eV)
  ---------------------------------------------------
  alpha Z        PSCENC =       309.66846517
  Ewald energy   TEWEN  =     -3921.12895898
  -Hartree energ DENC   =     -1039.20786625
  -exchange      EXHF   =         0.00000000
  -V(xc)+E(xc)   XCENC  =       443.75891255
  PAW double counting   =      1210.60617908    -1247.42152856
  entropy T*S    EENTRO =         0.00000000
  eigenvalues    EBANDS =      -777.85745280
  atomic energy  EATOM  =      4708.80920826
  ---------------------------------------------------
  free energy    TOTEN  =      -312.77304152 eV

  energy without entropy =     -312.77304152  energy(sigma->0) =     -312.77304152


--------------------------------------------------------------------------------------------------------




----------------------------------------- Iteration    1(   5)  ---------------------------------------


     EDDAV:  cpu time  171.11: real time  171.20
 BZINTS: Fermi energy:  3.718253;128.000000 electrons
         Band energy:-777.882008;  BLOECHL correction: -0.000004
       DOS:  cpu time    0.12: real time    0.12
    CHARGE:  cpu time    7.57: real time    7.57
    MIXING:  cpu time    0.01: real time    0.01
    --------------------------------------------
      LOOP:  cpu time  178.81: real time  178.90

 eigenvalue-minimisations  : 34512
 total energy-change (2. order) :-0.2455528E-01  (-0.2454439E-01)
 number of electron     127.9999993 magnetization 
 augmentation part        3.3914216 magnetization 

 Broyden mixing:
  rms(total) = 0.22029E+01    rms(broyden)= 0.22027E+01
  rms(prec ) = 0.26339E+01
  weight for this iteration     100.00

 Free energy of the ion-electron system (eV)
  ---------------------------------------------------
  alpha Z        PSCENC =       309.66846517
  Ewald energy   TEWEN  =     -3921.12895898
  -Hartree energ DENC   =     -1039.20786625
  -exchange      EXHF   =         0.00000000
  -V(xc)+E(xc)   XCENC  =       443.75891255
  PAW double counting   =      1210.60617908    -1247.42152856
  entropy T*S    EENTRO =         0.00000000
  eigenvalues    EBANDS =      -777.88200809
  atomic energy  EATOM  =      4708.80920826
  ---------------------------------------------------
  free energy    TOTEN  =      -312.79759681 eV

  energy without entropy =     -312.79759681  energy(sigma->0) =     -312.79759681


--------------------------------------------------------------------------------------------------------




----------------------------------------- Iteration    1(   6)  ---------------------------------------


    POTLOK:  cpu time    0.20: real time    0.20
    SETDIJ:  cpu time    0.01: real time    0.01
     EDDAV:  cpu time  161.05: real time  161.13
 BZINTS: Fermi energy:  4.426028;128.000000 electrons
         Band energy:-644.411630;  BLOECHL correction: -0.000000
       DOS:  cpu time    0.07: real time    0.08
    CHARGE:  cpu time    7.52: real time    7.53
    MIXING:  cpu time    0.01: real time    0.01
    --------------------------------------------
      LOOP:  cpu time  168.87: real time  168.96

 eigenvalue-minimisations  : 31296
 total energy-change (2. order) : 0.1414920E+02  (-0.1461284E+01)
 number of electron     127.9999994 magnetization 
 augmentation part        3.2375274 magnetization 

 Broyden mixing:
  rms(total) = 0.11550E+01    rms(broyden)= 0.11550E+01
  rms(prec ) = 0.13697E+01
  weight for this iteration     100.00

 eigenvalues of (default mixing * dielectric matrix)
  average eigenvalue GAMMA=   2.0350
  2.0350

 Free energy of the ion-electron system (eV)
  ---------------------------------------------------
  alpha Z        PSCENC =       309.66846517
  Ewald energy   TEWEN  =     -3921.12895898
  -Hartree energ DENC   =     -1163.87191164
  -exchange      EXHF   =         0.00000000
  -V(xc)+E(xc)   XCENC  =       452.01355596
  PAW double counting   =      1639.94437938    -1679.67150533
  entropy T*S    EENTRO =         0.00000000
  eigenvalues    EBANDS =      -644.41162980
  atomic energy  EATOM  =      4708.80920826
  ---------------------------------------------------
  free energy    TOTEN  =      -298.64839697 eV

  energy without entropy =     -298.64839697  energy(sigma->0) =     -298.64839697


--------------------------------------------------------------------------------------------------------




----------------------------------------- Iteration    1(   7)  ---------------------------------------


    POTLOK:  cpu time    0.20: real time    0.20
    SETDIJ:  cpu time    0.01: real time    0.01
     EDDAV:  cpu time  160.68: real time  160.76
 BZINTS: Fermi energy:  5.106473;128.000000 electrons
         Band energy:-509.264130;  BLOECHL correction:  0.000000
       DOS:  cpu time    0.06: real time    0.06
    CHARGE:  cpu time    7.68: real time    7.68
    MIXING:  cpu time    0.01: real time    0.01
    --------------------------------------------
      LOOP:  cpu time  168.65: real time  168.74

 eigenvalue-minimisations  : 31152
 total energy-change (2. order) : 0.4432813E+01  (-0.1507137E+01)
 number of electron     127.9999995 magnetization 
 augmentation part        3.0747532 magnetization 

 Broyden mixing:
  rms(total) = 0.19069E+00    rms(broyden)= 0.19058E+00
  rms(prec ) = 0.20648E+00
  weight for this iteration     100.00

 eigenvalues of (default mixing * dielectric matrix)
  average eigenvalue GAMMA=   2.1341
  2.1341  2.1341

 Free energy of the ion-electron system (eV)
  ---------------------------------------------------
  alpha Z        PSCENC =       309.66846517
  Ewald energy   TEWEN  =     -3921.12895898
  -Hartree energ DENC   =     -1301.55213507
  -exchange      EXHF   =         0.00000000
  -V(xc)+E(xc)   XCENC  =       461.35444953
  PAW double counting   =      2175.78317443    -2217.88565700
  entropy T*S    EENTRO =         0.00000000
  eigenvalues    EBANDS =      -509.26413008
  atomic energy  EATOM  =      4708.80920826
  ---------------------------------------------------
  free energy    TOTEN  =      -294.21558373 eV

  energy without entropy =     -294.21558373  energy(sigma->0) =     -294.21558373


--------------------------------------------------------------------------------------------------------




----------------------------------------- Iteration    1(   8)  ---------------------------------------


    POTLOK:  cpu time    0.20: real time    0.20
    SETDIJ:  cpu time    0.01: real time    0.02
     EDDAV:  cpu time  162.57: real time  162.65
 BZINTS: Fermi energy:  5.081661;128.000000 electrons
         Band energy:-512.240141;  BLOECHL correction:  0.000000
       DOS:  cpu time    0.05: real time    0.05
    CHARGE:  cpu time    8.02: real time    8.02
    MIXING:  cpu time    0.01: real time    0.01
    --------------------------------------------
      LOOP:  cpu time  170.86: real time  170.95

 eigenvalue-minimisations  : 31392
 total energy-change (2. order) :-0.5259624E-01  (-0.4088051E-01)
 number of electron     127.9999995 magnetization 
 augmentation part        3.0687662 magnetization 

 Broyden mixing:
  rms(total) = 0.46181E-01    rms(broyden)= 0.46162E-01
  rms(prec ) = 0.62327E-01
  weight for this iteration     100.00

 eigenvalues of (default mixing * dielectric matrix)
  average eigenvalue GAMMA=   1.6890
  2.4046  2.0083  0.6540

 Free energy of the ion-electron system (eV)
  ---------------------------------------------------
  alpha Z        PSCENC =       309.66846517
  Ewald energy   TEWEN  =     -3921.12895898
  -Hartree energ DENC   =     -1299.19203167
  -exchange      EXHF   =         0.00000000
  -V(xc)+E(xc)   XCENC  =       461.23062025
  PAW double counting   =      2207.30936424    -2248.72470617
  entropy T*S    EENTRO =         0.00000000
  eigenvalues    EBANDS =      -512.24014106
  atomic energy  EATOM  =      4708.80920826
  ---------------------------------------------------
  free energy    TOTEN  =      -294.26817997 eV

  energy without entropy =     -294.26817997  energy(sigma->0) =     -294.26817997


--------------------------------------------------------------------------------------------------------




----------------------------------------- Iteration    1(   9)  ---------------------------------------


    POTLOK:  cpu time    0.20: real time    0.20
    SETDIJ:  cpu time    0.01: real time    0.01
     EDDAV:  cpu time  166.89: real time  166.98
 BZINTS: Fermi energy:  5.086067;128.000000 electrons
         Band energy:-511.211990;  BLOECHL correction:  0.000000
       DOS:  cpu time    0.06: real time    0.06
    CHARGE:  cpu time    7.52: real time    7.52
    MIXING:  cpu time    0.01: real time    0.01
    --------------------------------------------
      LOOP:  cpu time  174.70: real time  174.79

 eigenvalue-minimisations  : 32280
 total energy-change (2. order) :-0.1596901E-02  (-0.2902620E-02)
 number of electron     127.9999995 magnetization 
 augmentation part        3.0665196 magnetization 

 Broyden mixing:
  rms(total) = 0.18517E-01    rms(broyden)= 0.18516E-01
  rms(prec ) = 0.30690E-01
  weight for this iteration     100.00

 eigenvalues of (default mixing * dielectric matrix)
  average eigenvalue GAMMA=   1.5338
  2.4467  1.9907  0.8489  0.8489

 Free energy of the ion-electron system (eV)
  ---------------------------------------------------
  alpha Z        PSCENC =       309.66846517
  Ewald energy   TEWEN  =     -3921.12895898
  -Hartree energ DENC   =     -1300.40919000
  -exchange      EXHF   =         0.00000000
  -V(xc)+E(xc)   XCENC  =       461.32728025
  PAW double counting   =      2217.62531931    -2258.94991131
  entropy T*S    EENTRO =         0.00000000
  eigenvalues    EBANDS =      -511.21198958
  atomic energy  EATOM  =      4708.80920826
  ---------------------------------------------------
  free energy    TOTEN  =      -294.26977687 eV

  energy without entropy =     -294.26977687  energy(sigma->0) =     -294.26977687


--------------------------------------------------------------------------------------------------------




----------------------------------------- Iteration    1(  10)  ---------------------------------------


    POTLOK:  cpu time    0.20: real time    0.21
    SETDIJ:  cpu time    0.01: real time    0.01
     EDDAV:  cpu time  181.95: real time  182.04
 BZINTS: Fermi energy:  5.088824;128.000000 electrons
         Band energy:-510.595248;  BLOECHL correction:  0.000000
       DOS:  cpu time    0.07: real time    0.07
    CHARGE:  cpu time    7.54: real time    7.55
    MIXING:  cpu time    0.01: real time    0.01
    --------------------------------------------
      LOOP:  cpu time  189.79: real time  189.89

 eigenvalue-minimisations  : 36720
 total energy-change (2. order) : 0.2463811E-03  (-0.1035009E-02)
 number of electron     127.9999995 magnetization 
 augmentation part        3.0657554 magnetization 

 Broyden mixing:
  rms(total) = 0.10358E-01    rms(broyden)= 0.10350E-01
  rms(prec ) = 0.16353E-01
  weight for this iteration     100.00

 eigenvalues of (default mixing * dielectric matrix)
  average eigenvalue GAMMA=   1.5236
  2.6044  1.8457  1.6914  0.7381  0.7381

 Free energy of the ion-electron system (eV)
  ---------------------------------------------------
[...]
     79      13.0426      0.00000
     80      13.0450      0.00000
     81      13.2154      0.00000
     82      13.2177      0.00000
     83      13.3793      0.00000
     84      13.3843      0.00000

 k-point   162 :      -0.2222    0.4444    0.5000
  band No.  band energies     occupation 
      1     -13.6324      2.00000
      2     -13.6323      2.00000
      3     -13.3416      2.00000
      4     -13.3409      2.00000
      5     -11.6951      2.00000
      6     -11.6923      2.00000
      7     -11.6917      2.00000
      8     -11.6890      2.00000
      9     -11.4378      2.00000
     10     -11.4350      2.00000
     11     -11.4344      2.00000
     12     -11.4315      2.00000
     13      -8.4297      2.00000
     14      -8.4281      2.00000
     15      -8.3195      2.00000
     16      -8.3177      2.00000
     17      -7.4359      2.00000
     18      -7.4321      2.00000
     19      -7.3735      2.00000
     20      -7.3701      2.00000
     21      -4.4486      2.00000
     22      -4.4464      2.00000
     23      -4.4447      2.00000
     24      -4.4415      2.00000
     25      -4.3158      2.00000
     26      -4.3137      2.00000
     27      -4.3119      2.00000
     28      -4.3085      2.00000
     29      -4.1367      2.00000
     30      -4.1346      2.00000
     31      -4.0240      2.00000
     32      -4.0217      2.00000
     33      -2.2402      2.00000
     34      -2.2390      2.00000
     35      -1.5158      2.00000
     36      -1.5134      2.00000
     37      -1.5107      2.00000
     38      -1.5099      2.00000
     39      -1.4395      2.00000
     40      -1.4373      2.00000
     41      -1.4346      2.00000
     42      -1.4337      2.00000
     43      -0.5784      2.00000
     44      -0.5757      2.00000
     45      -0.5462      2.00000
     46      -0.5435      2.00000
     47      -0.5231      2.00000
     48      -0.5181      2.00000
     49       0.0353      2.00000
     50       0.0379      2.00000
     51       0.0383      2.00000
     52       0.0409      2.00000
     53       0.3968      2.00000
     54       0.4020      2.00000
     55       0.4298      2.00000
     56       0.4338      2.00000
     57       1.5295      2.00000
     58       1.5325      2.00000
     59       1.5326      2.00000
     60       1.5357      2.00000
     61       3.4337      2.00000
     62       3.4364      2.00000
     63       4.0563      2.00000
     64       4.0594      2.00000
     65       6.3517      0.00000
     66       6.3565      0.00000
     67       6.3642      0.00000
     68       6.3675      0.00000
     69       9.4750      0.00000
     70       9.4769      0.00000
     71       9.4783      0.00000
     72       9.4811      0.00000
     73      10.1824      0.00000
     74      10.1848      0.00000
     75      10.1859      0.00000
     76      10.1880      0.00000
     77      11.7493      0.00000
     78      11.7513      0.00000
     79      13.6543      0.00000
     80      13.6603      0.00000
     81      13.7845      0.00000
     82      13.7902      0.00000
     83      13.7990      0.00000
     84      13.9306      0.00000

 k-point   163 :      -0.1111    0.4444    0.5000
  band No.  band energies     occupation 
      1     -13.5595      2.00000
      2     -13.5593      2.00000
      3     -13.2699      2.00000
      4     -13.2692      2.00000
      5     -12.2599      2.00000
      6     -12.2597      2.00000
      7     -11.9927      2.00000
      8     -11.9921      2.00000
      9     -10.9929      2.00000
     10     -10.9928      2.00000
     11     -10.7484      2.00000
     12     -10.7478      2.00000
     13      -9.1943      2.00000
     14      -9.1940      2.00000
     15      -8.9904      2.00000
     16      -8.9898      2.00000
     17      -6.6963      2.00000
     18      -6.6944      2.00000
     19      -6.5531      2.00000
     20      -6.5513      2.00000
     21      -5.0321      2.00000
     22      -5.0305      2.00000
     23      -4.9027      2.00000
     24      -4.9011      2.00000
     25      -4.0286      2.00000
     26      -4.0268      2.00000
     27      -3.9220      2.00000
     28      -3.9201      2.00000
     29      -3.7822      2.00000
     30      -3.7819      2.00000
     31      -3.6537      2.00000
     32      -3.6531      2.00000
     33      -2.5846      2.00000
     34      -2.5828      2.00000
     35      -2.4967      2.00000
     36      -2.4948      2.00000
     37      -2.1533      2.00000
     38      -2.1521      2.00000
     39      -0.9150      2.00000
     40      -0.9137      2.00000
     41      -0.8379      2.00000
     42      -0.8365      2.00000
     43      -0.6557      2.00000
     44      -0.6550      2.00000
     45      -0.6213      2.00000
     46      -0.6200      2.00000
     47      -0.5926      2.00000
     48      -0.5919      2.00000
     49      -0.4754      2.00000
     50      -0.4734      2.00000
     51       0.4747      2.00000
     52       0.4765      2.00000
     53       0.5238      2.00000
     54       0.5254      2.00000
     55       0.8409      2.00000
     56       0.8422      2.00000
     57       0.9356      2.00000
     58       0.9374      2.00000
     59       2.2487      2.00000
     60       2.2505      2.00000
     61       2.7935      2.00000
     62       2.7952      2.00000
     63       3.8268      2.00000
     64       3.8292      2.00000
     65       6.5688      0.00000
     66       6.5720      0.00000
     67       7.1172      0.00000
     68       7.1195      0.00000
     69       8.5525      0.00000
     70       8.5545      0.00000
     71       9.1935      0.00000
     72       9.1954      0.00000
     73      10.3721      0.00000
     74      10.3747      0.00000
     75      11.1052      0.00000
     76      11.1071      0.00000
     77      11.8212      0.00000
     78      11.8233      0.00000
     79      13.0404      0.00000
     80      13.0426      0.00000
     81      13.2133      0.00000
     82      13.2152      0.00000
     83      13.3798      0.00000
     84      13.3836      0.00000


--------------------------------------------------------------------------------------------------------


 soft charge-density along one line, spin component           1
         0         1         2         3         4         5         6         7         8         9
 total charge-density along one line
 
 pseudopotential strength for first ion, spin component:           1
  9.746   0.004  -0.000   0.000  -0.000   0.000  -0.000   0.000
  0.004  -0.002  -0.000  -0.000  -0.000   0.000  -0.000   0.000
 -0.000  -0.000  -3.921   0.000  -0.000  -0.015   0.000  -0.000
  0.000  -0.000   0.000  -3.915   0.000   0.000  -0.012   0.000
 -0.000  -0.000  -0.000   0.000  -3.921  -0.000   0.000  -0.015
  0.000   0.000  -0.015   0.000  -0.000  -0.763   0.000  -0.000
 -0.000  -0.000   0.000  -0.012   0.000   0.000  -0.763  -0.000
  0.000   0.000  -0.000   0.000  -0.015  -0.000  -0.000  -0.763
 total augmentation occupancy for first ion, spin component:           1
  1.471  -1.105  -0.000  -0.000  -0.003  -0.000   0.001  -0.001
 -1.105   1.036   0.000  -0.006   0.003   0.000  -0.002   0.001
 -0.000   0.000   1.224  -0.000   0.002   0.225  -0.000   0.001
 -0.000  -0.006  -0.000   0.926  -0.000  -0.000   0.103  -0.000
 -0.003   0.003   0.002  -0.000   1.224   0.001  -0.000   0.225
 -0.000   0.000   0.225  -0.000   0.001   0.047  -0.000   0.000
  0.001  -0.002  -0.000   0.103  -0.000  -0.000   0.013  -0.000
 -0.001   0.001   0.001  -0.000   0.225   0.000  -0.000   0.047


------------------------ aborting loop because EDIFF is reached ----------------------------------------


    CHARGE:  cpu time    7.44: real time    7.44
    FORLOC:  cpu time    0.05: real time    0.05
    FORNL :  cpu time   47.00: real time   47.03
    STRESS:  cpu time   88.22: real time   88.26
    FORHAR:  cpu time    0.08: real time    0.08
    MIXING:  cpu time    0.01: real time    0.01
    OFIELD:  cpu time    0.00: real time    0.00

 ---------------------------------------------------------------------------------------------

         DFTD3 V3.0 Rev 1        
 IVDW         = 12
 DF pbe       
 parameters
 VDW_S6       =    1.0000
 VDW_S8       =    0.7875
 VDW_A1       =    0.4289
 VDW_A2       =    4.4407
 k1-k3        =   16.0000    1.3333   -4.0000
 VDW_RADIUS   =   50.2022 A
 VDW_CNRADIUS =   21.1671 A
 Edisp (eV)   -5.29841

 E6    (eV) :    -3.7872
 E8    (eV) :    -1.5112
 % E8        : 28.52
    FORVDW:  cpu time    0.28: real time    0.28

  FORCE on cell =-STRESS in cart. coord.  units (eV):
  Direction    XX          YY          ZZ          XY          YZ          ZX
  --------------------------------------------------------------------------------------
  Alpha Z   309.66847   309.66847   309.66847
  Ewald     381.03484   380.63666 -4682.81854     0.44160    -0.00005    -0.00849
  Hartree  1121.90972  1121.86141  -941.64662     0.06497     0.00001    -0.00189
  E(xc)    -467.93789  -467.94001  -484.34785     0.00112    -0.00003     0.00002
  Local   -3142.44055 -3142.06811  3717.19227    -0.41857     0.00002     0.00835
  n-local  -112.17133  -112.18671  -102.89095    -0.00729     0.00003    -0.00014
  augment   -12.35722   -12.35654   -11.32720    -0.00066    -0.00000     0.00002
  Kinetic  1921.35570  1921.48624  2205.89156    -0.00987    -0.00049     0.00363
  Fock        0.00000     0.00000     0.00000     0.00000     0.00000     0.00000
  vdW        -0.73486    -0.73347    -6.13197     0.00080    -0.00000    -0.00002
  -------------------------------------------------------------------------------------
  Total      -1.67314    -1.63207     3.58917     0.07209    -0.00050     0.00147
  in kB      -9.94919    -9.70499    21.34274     0.42867    -0.00295     0.00876
  external pressure =        0.56 kB  Pullay stress =        0.00 kB


 VOLUME and BASIS-vectors are now :
 -----------------------------------------------------------------------------
  energy-cutoff  :      600.00
  volume of cell :      269.44
      direct lattice vectors                 reciprocal lattice vectors
     4.934310885 -0.000222400  0.000000000     0.202667819  0.117022500  0.000000000
    -2.467348046  4.273127376  0.000000000     0.000010548  0.234026730  0.000000000
     0.000000000  0.000000000 12.778910394     0.000000000  0.000000000  0.078253933

  length of vectors
     4.934310890  4.934310890 12.778910394     0.234026730  0.234026730  0.078253933


 FORCES acting on ions
    electron-ion (+dipol)            ewald-force                    non-local-force                 convergence-correction
 -----------------------------------------------------------------------------------------------
   -.783E+00 -.239E-02 0.158E+01   0.903E+00 0.517E-02 -.158E+01   0.963E-01 0.137E-02 0.170E+00   -.697E-04 0.447E-04 -.295E-01
   0.209E+00 0.340E-03 -.348E+00   -.230E+00 0.154E-02 0.360E+00   -.205E-01 0.126E-02 0.210E-01   -.797E-04 0.231E-04 -.299E-01
   0.270E-01 -.104E+00 -.348E+00   -.223E-01 0.122E+00 0.360E+00   -.930E-02 0.764E-02 0.210E-01   -.279E-04 0.513E-04 -.299E-01
   0.268E-01 0.105E+00 -.348E+00   -.223E-01 -.118E+00 0.360E+00   -.922E-02 -.533E-02 0.210E-01   -.520E-04 -.635E-06 -.299E-01
   -.784E-03 0.478E-03 0.698E-01   -.249E-02 0.153E-02 -.101E+00   -.203E-02 0.119E-02 -.250E-02   -.656E-04 0.156E-04 0.311E-01
   -.461E-03 0.455E-03 0.686E-01   -.286E-02 0.153E-02 -.999E-01   -.201E-02 0.119E-02 -.258E-02   -.770E-04 0.358E-04 0.311E-01
   -.612E-03 0.338E-03 0.686E-01   -.268E-02 0.163E-02 -.999E-01   -.202E-02 0.118E-02 -.258E-02   -.808E-04 0.614E-04 0.311E-01
   -.616E-03 0.519E-03 0.686E-01   -.268E-02 0.142E-02 -.999E-01   -.202E-02 0.119E-02 -.258E-02   -.753E-04 0.585E-04 0.311E-01
   0.842E-03 0.475E-02 0.961E-01   0.247E-02 -.691E-02 -.831E-01   0.196E-02 -.106E-02 0.272E-02   0.171E-04 -.371E-04 -.126E-01
   0.992E-03 -.564E-02 0.958E-01   0.247E-02 0.380E-02 -.831E-01   0.210E-02 -.128E-02 0.311E-02   0.394E-04 -.448E-04 -.126E-01
   0.993E-02 -.602E-03 0.959E-01   -.681E-02 -.155E-02 -.831E-01   0.222E-02 -.129E-02 0.291E-02   0.195E-04 -.300E-04 -.126E-01
   -.956E-02 -.539E-03 0.167E+00   0.132E-01 -.155E-02 -.155E+00   0.193E-02 -.121E-02 0.240E-02   0.102E-04 0.496E-05 -.126E-01
   0.129E-02 0.481E-02 0.714E-01   0.247E-02 -.705E-02 -.829E-01   0.223E-02 -.114E-02 0.297E-02   0.895E-04 -.407E-04 0.114E-01
   0.118E-02 -.593E-02 0.716E-01   0.246E-02 0.395E-02 -.829E-01   0.208E-02 -.136E-02 0.258E-02   0.269E-04 0.418E-05 0.114E-01
   0.105E-01 -.418E-03 0.715E-01   -.706E-02 -.155E-02 -.829E-01   0.234E-02 -.112E-02 0.277E-02   0.388E-04 -.558E-05 0.114E-01
   -.960E-02 -.492E-03 0.144E+00   0.135E-01 -.155E-02 -.156E+00   0.205E-02 -.120E-02 0.240E-02   0.741E-04 -.272E-04 0.114E-01
   0.793E-01 0.693E-04 -.286E+00   -.772E-01 -.133E-02 0.314E+00   0.384E-03 -.981E-03 -.109E-01   0.312E-03 -.164E-03 -.298E-01
   -.246E+00 0.751E-02 -.803E+00   0.245E+00 -.966E-02 0.866E+00   -.253E-01 -.717E-03 -.791E-01   0.222E-03 -.152E-03 -.298E-01
   0.337E+00 0.338E+00 -.807E+00   -.393E+00 -.371E+00 0.871E+00   -.175E-01 0.359E-02 -.794E-01   0.275E-03 -.106E-03 -.298E-01
   0.347E+00 -.341E+00 -.799E+00   -.404E+00 0.372E+00 0.862E+00   -.164E-01 -.603E-02 -.789E-01   0.304E-03 -.192E-03 -.298E-01
   -.481E-03 0.224E-03 0.686E-01   0.263E-02 -.156E-02 -.998E-01   0.166E-02 -.983E-03 0.562E-03   0.254E-03 -.128E-03 0.311E-01
   -.674E-03 0.218E-03 0.692E-01   0.281E-02 -.155E-02 -.100E+00   0.167E-02 -.985E-03 0.547E-03   0.255E-03 -.124E-03 0.311E-01
   -.570E-03 0.324E-03 0.692E-01   0.272E-02 -.161E-02 -.100E+00   0.167E-02 -.986E-03 0.546E-03   0.253E-03 -.165E-03 0.311E-01
   -.555E-03 0.203E-03 0.692E-01   0.272E-02 -.150E-02 -.100E+00   0.167E-02 -.981E-03 0.544E-03   0.235E-03 -.159E-03 0.311E-01
   -.244E-01 0.114E-01 0.110E+00   0.224E-01 -.100E-01 -.976E-01   -.181E-02 0.951E-03 -.121E-02   -.155E-03 0.115E-03 -.127E-01
   0.259E-01 0.173E-01 0.130E+00   -.287E-01 -.163E-01 -.117E+00   -.178E-02 0.109E-02 -.778E-03   -.225E-03 0.136E-03 -.127E-01
   -.441E-02 -.291E-01 0.120E+00   0.229E-02 0.311E-01 -.107E+00   -.191E-02 0.100E-02 -.100E-02   -.223E-03 0.106E-03 -.127E-01
   0.444E-02 -.101E-03 0.897E-01   -.716E-02 0.156E-02 -.770E-01   -.158E-02 0.101E-02 -.135E-03   -.186E-03 0.878E-04 -.126E-01
   0.262E-01 -.180E-01 0.106E+00   -.290E-01 0.198E-01 -.118E+00   -.178E-02 0.917E-03 -.890E-03   -.307E-03 0.174E-03 0.114E-01
   -.246E-01 -.119E-01 0.860E-01   0.227E-01 0.133E-01 -.974E-01   -.182E-02 0.105E-02 -.131E-02   -.260E-03 0.167E-03 0.114E-01
   -.460E-02 0.291E-01 0.958E-01   0.244E-02 -.283E-01 -.107E+00   -.192E-02 0.102E-02 -.109E-02   -.255E-03 0.140E-03 0.114E-01
   0.463E-02 -.286E-03 0.652E-01   -.729E-02 0.157E-02 -.767E-01   -.159E-02 0.994E-03 -.216E-03   -.313E-03 0.179E-03 0.114E-01
 -----------------------------------------------------------------------------------------------
   0.195E-03 -.262E-04 0.782E-02   0.169E-13 0.181E-14 -.858E-13   -.110E-03 -.103E-04 -.836E-02   -.258E-04 0.291E-04 0.573E-03
 
 
 POSITION                                       TOTAL-FORCE (eV/Angst)
 -----------------------------------------------------------------------------------
      2.46355     -0.00011      1.58804         0.218370      0.004200      0.134292
      4.93431     -0.00022      1.59736        -0.043606      0.003164      0.003818
      1.23348      2.13645      1.59736        -0.004957      0.025487      0.003884
      3.70064      2.13634      1.59736        -0.005049     -0.019090      0.003764
      2.46715     -0.00011      7.98682        -0.005379      0.003215     -0.002748
      4.93431     -0.00022      7.98682        -0.005411      0.003210     -0.002823
      1.23348      2.13645      7.98682        -0.005392      0.003218     -0.002821
      3.70064      2.13634      7.98682        -0.005394      0.003197     -0.002820
     -1.23367      2.13656      4.79209         0.005299     -0.003263      0.003060
      1.23348      2.13645      4.79209         0.005607     -0.003169      0.003181
     -2.46735      4.27313      4.79209         0.005376     -0.003481      0.003120
     -0.00019      4.27302      4.79209         0.005602     -0.003304      0.001842
     -1.23367      2.13656     11.18155         0.006068     -0.003424      0.002892
      1.23348      2.13645     11.18155         0.005750     -0.003335      0.002767
     -2.46735      4.27313     11.18155         0.005826     -0.003093      0.002831
     -0.00019      4.27302     11.18155         0.006054     -0.003277      0.001659
     -0.00019      1.42441      1.59736         0.002599     -0.002407     -0.012254
      2.46696      1.42430      1.59736        -0.025944     -0.003019     -0.045995
     -1.23387      3.56098      1.59736        -0.073335     -0.029825     -0.045542
      1.23329      3.56086      1.59736        -0.072908      0.024650     -0.046390
     -0.00019      1.42441      7.98682         0.004069     -0.002444      0.000444
      2.46696      1.42430      7.98682         0.004069     -0.002445      0.000409
     -1.23387      3.56098      7.98682         0.004071     -0.002439      0.000410
      1.23329      3.56086      7.98682         0.004076     -0.002444      0.000407
      1.23367      0.71204      4.79209        -0.003997      0.002406     -0.001032
      3.70083      0.71193      4.79209        -0.004829      0.002237     -0.001104
     -0.00000      2.84860      4.79209        -0.004261      0.003052     -0.001075
      2.46715      2.84849      4.79209        -0.004499      0.002569      0.000039
      1.23367      0.71204     11.18155        -0.004954      0.002825     -0.001386
      3.70083      0.71193     11.18155        -0.004014      0.002649     -0.001296
     -0.00000      2.84860     11.18155        -0.004338      0.001920     -0.001331
      2.46715      2.84849     11.18155        -0.004569      0.002461     -0.000204
 -----------------------------------------------------------------------------------
    total drift:                                0.000060     -0.000007      0.000041


--------------------------------------------------------------------------------------------------------



  FREE ENERGIE OF THE ION-ELECTRON SYSTEM (eV)
  ---------------------------------------------------
  free  energy   TOTEN  =      -299.56855490 eV

  energy  without entropy=     -299.56855490  energy(sigma->0) =     -299.56855490
 


--------------------------------------------------------------------------------------------------------


    POTLOK:  cpu time    0.22: real time    0.22


--------------------------------------------------------------------------------------------------------


     LOOP+:  cpu time 2801.58: real time 2803.13
    4ORBIT:  cpu time    0.00: real time    0.00
 BZINTS: Fermi energy:  5.097776;128.000000 electrons
         Band energy:-509.668309;  BLOECHL correction: -0.000000

 total amount of memory used by VASP on root node   494879. kBytes
========================================================================

   base      :      30000. kBytes
   nonl-proj :      98692. kBytes
   fftplans  :       8783. kBytes
   grid      :      18621. kBytes
   one-center:         98. kBytes
   wavefun   :     338685. kBytes
 
  
  
 General timing and accounting informations for this job:
 ========================================================
  
                  Total CPU time used (sec):     2841.619
                            User time (sec):     2422.697
                          System time (sec):      418.922
                         Elapsed time (sec):     2843.715
  
                   Maximum memory used (kb):      598948.
                   Average memory used (kb):           0.
  
                          Minor page faults:     49948582
                          Major page faults:            0
                 Voluntary context switches:          962
