   32   32    1    1
  0.8905205E+01  0.4932875E-09  0.4932875E-09  0.1352877E-08  0.5000000E-15
  1.000000000000000E-004
  CAR 
 graphite                                
    128     76     84
 
  0.0000000E+00  0.0000000E+00  0.0000000E+00  0.6944444E-02
    1      -15.017928
    2      -14.881695
    3      -14.881228
    4      -14.736097
    5       -9.701377
    6       -9.690924
    7       -9.688591
    8       -9.646057
    9       -9.644413
   10       -9.634250
   11       -9.632790
   12       -9.632745
   13       -9.628941
   14       -9.597933
   15       -9.585347
   16       -9.582158
   17       -8.626554
   18       -8.624999
   19       -8.623307
   20       -8.596158
   21       -8.595487
   22       -8.593395
   23       -8.592831
   24       -8.592775
   25       -8.590338
   26       -8.546355
   27       -8.545818
   28       -8.543835
   29       -3.862455
   30       -3.010939
   31       -3.009382
   32       -1.976929
   33       -1.800172
   34       -1.797904
   35       -1.782329
   36       -1.774936
   37       -1.774116
   38       -1.774107
   39       -1.770177
   40       -1.757444
   41       -1.755388
   42       -1.748758
   43       -1.745978
   44       -1.730659
   45        1.595089
   46        1.602108
   47        1.602509
   48        1.607610
   49        1.613885
   50        1.618698
   51        1.619367
   52        1.625901
   53        1.862700
   54        1.865368
   55        1.866915
   56        2.243032
   57        2.246301
   58        2.253138
   59        2.253548
   60        2.253747
   61        2.258161
   62        2.509362
   63        2.527017
   64        2.529615
   65        6.113525
   66        6.116650
   67        6.122661
   68        6.258689
   69        6.260640
   70        6.262954
   71        6.265160
   72        6.265412
   73        6.267918
   74        6.764213
   75        6.771371
   76        6.773855
   77        8.843181
   78       11.414789
   79       11.418848
   80       11.812412
   81       11.816292
   82       11.848044
   83       11.996326
   84       12.001220
 
  0.1666667E+00 -0.1387779E-16  0.0000000E+00  0.1388889E-01
    1      -14.852361
    2      -14.717438
    3      -14.716978
    4      -14.573370
    5      -10.999564
    6      -10.896448
    7      -10.896032
    8      -10.788218
    9      -10.128225
   10      -10.120974
   11      -10.037783
   12      -10.037133
   13      -10.030087
   14      -10.029210
   15       -9.943836
   16       -9.935881
   17       -8.005535
   18       -7.999563
   19       -7.934082
   20       -7.932017
   21       -7.927029
   22       -7.926245
   23       -7.855499
   24       -7.849164
   25       -7.161631
   26       -7.087790
   27       -7.086368
   28       -7.009571
   29       -3.661468
   30       -2.815274
   31       -2.813718
   32       -2.291251
   33       -2.274581
   34       -2.259684
   35       -2.259506
   36       -2.243681
   37       -2.241765
   38       -2.227327
   39       -2.210557
   40       -1.788686
   41       -1.635604
   42       -1.611780
   43       -1.608916
   44       -1.584849
   45        0.782040
   46        0.944142
   47        0.958775
   48        0.962859
   49        0.976873
   50        1.256530
   51        1.267861
   52        1.272388
   53        1.284938
   54        1.406062
   55        1.408494
   56        1.639215
   57        1.643547
   58        2.083335
   59        2.135773
   60        2.138827
   61        2.144520
   62        2.145946
   63        2.591928
   64        2.605237
   65        6.299726
   66        6.302718
   67        6.539924
   68        6.543045
   69        6.545676
   70        6.548436
   71        6.986021
   72        7.043272
   73        7.050079
   74        7.363794
   75        7.367147
   76        7.934914
   77        9.043853
   78       11.589890
   79       11.593803
   80       11.905009
   81       12.080173
   82       12.081606
   83       12.256345
   84       12.547408
 
  0.3333333E+00  0.0000000E+00  0.0000000E+00  0.1388889E-01
    1      -14.357450
    2      -14.226483
    3      -14.226046
    4      -14.086938
    5      -12.409587
    6      -12.294152
    7      -12.293770
    8      -12.172205
    9      -10.550611
   10      -10.546950
   11      -10.451781
   12      -10.451215
   13      -10.448003
   14      -10.446847
   15      -10.347764
   16      -10.343926
   17       -6.832105
   18       -6.823064
   19       -6.765604
   20       -6.763500
   21       -6.755925
   22       -6.754838
   23       -6.694412
   24       -6.685503
   25       -5.046246
   26       -4.985549
   27       -4.983866
   28       -4.921405
   29       -3.448099
   30       -3.434054
   31       -3.406744
   32       -3.406361
   33       -3.393278
   34       -3.391299
   35       -3.363454
   36       -3.349263
   37       -3.062967
   38       -2.233484
   39       -2.231934
   40       -1.230454
   41       -1.161648
   42       -1.138901
   43       -1.135820
   44       -1.112854
   45       -0.760671
   46       -0.708462
   47       -0.679975
   48       -0.676895
   49       -0.648407
   50       -0.017180
   51       -0.015365
   52        0.457707
   53        0.474707
   54        0.478890
   55        0.496217
   56        0.857143
   57        1.337223
   58        1.340502
   59        1.947361
   60        1.950292
   61        1.953227
   62        1.954417
   63        2.613718
   64        2.620437
   65        6.805183
   66        6.808230
   67        7.116293
   68        7.118404
   69        7.120985
   70        7.124289
   71        7.518883
   72        7.522354
   73        9.132771
   74        9.503991
   75        9.507058
   76        9.647549
   77        9.990492
   78       11.940445
   79       12.093368
   80       12.096509
   81       12.223018
   82       12.309855
   83       12.311747
   84       12.593586
 
  0.5000000E+00  0.0000000E+00  0.0000000E+00  0.6944444E-02
    1      -13.540532
    2      -13.537745
    3      -13.417121
    4      -13.414562
    5      -13.414535
    6      -13.411495
    7      -13.283901
    8      -13.281048
    9      -10.699149
   10      -10.697457
   11      -10.598707
   12      -10.597330
   13      -10.597295
   14      -10.595222
   15      -10.492330
   16      -10.490568
   17       -5.921280
   18       -5.919565
   19       -5.884869
   20       -5.884858
   21       -5.884140
   22       -5.880131
   23       -5.849586
   24       -5.847088
   25       -4.333726
   26       -4.331973
   27       -4.311272
   28       -4.308703
   29       -4.307682
   30       -4.307671
   31       -4.279953
   32       -4.278868
   33       -2.826829
   34       -2.823408
   35       -2.783365
   36       -2.778121
   37       -2.778103
   38       -2.777441
   39       -2.733637
   40       -2.730992
   41       -2.083700
   42       -2.081448
   43       -1.285774
   44       -1.283595
   45       -1.283508
   46       -1.280135
   47       -0.428269
   48       -0.424770
   49       -0.406660
   50       -0.405443
   51       -0.405431
   52       -0.397945
   53       -0.383800
   54       -0.376509
   55       -0.327700
   56       -0.325072
   57        1.218557
   58        1.220524
   59        1.863331
   60        1.866786
   61        1.867205
   62        1.868567
   63        2.597392
   64        2.599821
   65        7.134526
   66        7.136896
   67        7.422001
   68        7.422971
   69        7.423460
   70        7.428259
   71        7.713036
   72        7.715827
   73       10.645876
   74       10.646803
   75       11.562089
   76       11.565678
   77       11.778900
   78       11.784320
   79       11.785812
   80       11.789232
   81       12.164976
   82       12.168350
   83       12.551397
   84       12.571156
 
 -0.1355253E-19  0.1666667E+00  0.0000000E+00  0.1388889E-01
    1      -14.852357
    2      -14.717437
    3      -14.716972
    4      -14.573365
    5      -10.999577
    6      -10.896455
    7      -10.896066
    8      -10.788247
    9      -10.128327
   10      -10.120732
   11      -10.037999
   12      -10.037144
   13      -10.030080
   14      -10.028582
   15       -9.943873
   16       -9.935582
   17       -8.005880
   18       -8.000453
   19       -7.934094
   20       -7.933343
   21       -7.927174
   22       -7.926932
   23       -7.855770
   24       -7.849845
   25       -7.160715
   26       -7.086401
   27       -7.085979
   28       -7.008703
   29       -3.661478
   30       -2.815284
   31       -2.813732
   32       -2.290097
   33       -2.274472
   34       -2.259665
   35       -2.257108
   36       -2.243706
   37       -2.241764
   38       -2.226058
   39       -2.210581
   40       -1.788701
   41       -1.636693
   42       -1.611788
   43       -1.611392
   44       -1.586307
   45        0.781463
   46        0.947572
   47        0.962863
   48        0.963208
   49        0.978603
   50        1.254919
   51        1.267850
   52        1.268088
   53        1.280957
   54        1.405744
   55        1.407318
   56        1.639302
   57        1.644447
   58        2.082315
   59        2.136203
   60        2.138779
   61        2.144671
   62        2.147844
   63        2.592055
   64        2.606540
   65        6.297903
   66        6.302379
   67        6.539536
   68        6.541308
   69        6.545281
   70        6.546822
   71        6.987782
   72        7.042817
   73        7.048499
   74        7.366112
   75        7.367863
   76        7.936329
   77        9.043843
   78       11.589835
   79       11.593748
   80       11.904382
   81       12.079995
   82       12.080492
   83       12.255675
   84       12.552412
 
  0.1666667E+00  0.1666667E+00  0.0000000E+00  0.1388889E-01
    1      -14.521882
    2      -14.389605
    3      -14.389160
    4      -14.248555
    5      -11.621465
    6      -11.618544
    7      -11.513644
    8      -11.511010
    9      -11.510982
   10      -11.507746
   11      -11.397784
   12      -11.394788
   13       -9.276083
   14       -9.222852
   15       -9.221677
   16       -9.177058
   17       -8.221176
   18       -8.196003
   19       -8.192460
   20       -8.152020
   21       -6.052436
   22       -6.048948
   23       -5.987226
   24       -5.983412
   25       -5.983385
   26       -5.980415
   27       -5.916095
   28       -5.912711
   29       -3.620330
   30       -3.577496
   31       -3.575689
   32       -3.531585
   33       -3.261387
   34       -2.426187
   35       -2.424636
   36       -1.963050
   37       -1.960443
   38       -1.933403
   39       -1.931937
   40       -1.931927
   41       -1.927755
   42       -1.901752
   43       -1.898563
   44       -1.415055
   45       -0.090012
   46       -0.075599
   47       -0.071534
   48       -0.058651
   49        0.138815
   50        0.140769
   51        0.580256
   52        0.589071
   53        0.593484
   54        0.604894
   55        0.830952
   56        0.833109
   57        0.833262
   58        0.836532
   59        1.627279
   60        1.629781
   61        2.461649
   62        2.840959
   63        2.843761
   64        3.094963
   65        6.038179
   66        6.045840
   67        6.050970
   68        6.329946
   69        7.936308
   70        7.938993
   71        8.315461
   72        8.319147
   73        8.319465
   74        8.321428
   75        8.807037
   76        8.809588
   77        9.447628
   78       11.943207
   79       11.946801
   80       12.691261
   81       12.695013
   82       12.889974
   83       12.894121
   84       12.896567
 
  0.3333333E+00  0.1666667E+00  0.0000000E+00  0.1388889E-01
    1      -13.865024
    2      -13.737970
    3      -13.737561
    4      -13.602920
    5      -12.892371
    6      -12.773085
    7      -12.772674
    8      -12.646776
    9      -11.936849
   10      -11.825355
   11      -11.824850
   12      -11.707646
   13       -9.259863
   14       -9.176847
   15       -9.176532
   16       -9.091431
   17       -7.363955
   18       -7.309411
   19       -7.306510
   20       -7.249794
   21       -5.054324
   22       -5.012570
   23       -5.010632
   24       -4.964948
   25       -4.891556
   26       -4.844076
   27       -4.842318
   28       -4.794381
   29       -3.910074
   30       -3.860064
   31       -3.858416
   32       -3.807205
   33       -2.862724
   34       -2.830847
   35       -2.829507
   36       -2.795571
   37       -2.470831
   38       -1.819417
   39       -1.790672
   40       -1.787106
   41       -1.755422
   42       -1.657802
   43       -1.655937
   44       -1.323066
   45       -1.316293
   46       -1.297169
   47       -1.294396
   48       -1.267864
   49       -0.681912
   50       -0.546143
   51       -0.544507
   52       -0.425796
   53       -0.407624
   54       -0.403038
   55       -0.383660
   56       -0.197177
   57        0.370115
   58        0.525471
   59        0.526959
   60        1.371775
   61        2.753912
   62        3.249296
   63        3.251760
   64        3.713921
   65        5.693027
   66        5.903375
   67        5.907124
   68        6.213176
   69        8.744476
   70        9.033942
   71        9.036138
   72        9.343423
   73       10.229477
   74       10.255752
   75       10.526640
   76       10.528989
   77       10.891857
   78       11.448598
   79       12.489652
   80       12.520580
   81       12.530551
   82       12.645025
   83       12.773230
   84       12.785324
 
  0.5000000E+00  0.1666667E+00  0.0000000E+00  0.1388889E-01
    1      -13.866220
    2      -13.739172
    3      -13.738744
    4      -13.604109
    5      -12.890686
    6      -12.771394
    7      -12.771002
    8      -12.645098
    9      -11.938080
   10      -11.826582
   11      -11.826068
   12      -11.708873
   13       -9.257021
   14       -9.173735
   15       -9.173437
   16       -9.087989
   17       -7.359379
   18       -7.303875
   19       -7.302701
   20       -7.245140
   21       -5.062498
   22       -5.020304
   23       -5.019817
   24       -4.973676
   25       -4.900915
   26       -4.853765
   27       -4.850629
   28       -4.802975
   29       -3.913760
   30       -3.864106
   31       -3.861752
   32       -3.810928
   33       -2.851696
   34       -2.820228
   35       -2.817303
   36       -2.783910
   37       -2.472122
   38       -1.817330
   39       -1.787885
   40       -1.786218
   41       -1.753659
   42       -1.659038
   43       -1.657200
   44       -1.319577
   45       -1.314567
   46       -1.294053
   47       -1.290454
   48       -1.264252
   49       -0.683183
   50       -0.544478
   51       -0.542770
   52       -0.427668
   53       -0.408797
   54       -0.406247
   55       -0.386482
   56       -0.198437
   57        0.371774
   58        0.524013
   59        0.525553
   60        1.370028
   61        2.754901
   62        3.253194
   63        3.254852
   64        3.722507
   65        5.689528
   66        5.903915
   67        5.906129
   68        6.212720
   69        8.740677
   70        9.030584
   71        9.033402
   72        9.342279
   73       10.229830
   74       10.254156
   75       10.525276
   76       10.528099
   77       10.889300
   78       11.450968
   79       12.487107
   80       12.521117
   81       12.531127
   82       12.643655
   83       12.770566
   84       12.782638
 
 -0.3333333E+00  0.1666667E+00  0.0000000E+00  0.1388889E-01
    1      -14.522597
    2      -14.390324
    3      -14.389865
    4      -14.249264
    5      -11.623613
    6      -11.617818
    7      -11.514774
    8      -11.514282
    9      -11.508901
   10      -11.508531
   11      -11.400057
   12      -11.394225
   13       -9.265605
   14       -9.210837
   15       -9.210497
   16       -9.164264
   17       -8.221867
   18       -8.194479
   19       -8.194143
   20       -8.151502
   21       -6.060262
   22       -6.054695
   23       -5.994326
   24       -5.992025
   25       -5.988548
   26       -5.986913
   27       -5.923942
   28       -5.918649
   29       -3.633771
   30       -3.590320
   31       -3.589941
   32       -3.545129
   33       -3.262181
   34       -2.426965
   35       -2.425427
   36       -1.958504
   37       -1.945612
   38       -1.929571
   39       -1.926567
   40       -1.916359
   41       -1.913991
   42       -1.897054
   43       -1.884248
   44       -1.415843
   45       -0.094692
   46       -0.079230
   47       -0.078958
   48       -0.064331
   49        0.135956
   50        0.142007
   51        0.586334
   52        0.596662
   53        0.596874
   54        0.608312
   55        0.828085
   56        0.829721
   57        0.834663
   58        0.836755
   59        1.622850
   60        1.630563
   61        2.463591
   62        2.849619
   63        2.851250
   64        3.112108
   65        6.031829
   66        6.047597
   67        6.049388
   68        6.333118
   69        7.932915
   70        7.936234
   71        8.311483
   72        8.314752
   73        8.315091
   74        8.318119
   75        8.804144
   76        8.804796
   77        9.446556
   78       11.942047
   79       11.945636
   80       12.691608
   81       12.718337
   82       12.891274
   83       12.902152
   84       12.925488
 
 -0.1666667E+00  0.1666667E+00  0.0000000E+00  0.1388889E-01
    1      -14.852597
    2      -14.717675
    3      -14.717205
    4      -14.573603
    5      -11.005868
    6      -10.902820
    7      -10.902428
    8      -10.794694
    9      -10.119639
   10      -10.117683
   11      -10.029302
   12      -10.027748
   13      -10.027711
   14      -10.025173
   15       -9.934716
   16       -9.932556
   17       -8.003899
   18       -8.002049
   19       -7.932356
   20       -7.929860
   21       -7.929835
   22       -7.928799
   23       -7.853544
   24       -7.851828
   25       -7.167966
   26       -7.094469
   27       -7.092332
   28       -7.015843
   29       -3.661749
   30       -2.815547
   31       -2.813999
   32       -2.290790
   33       -2.288715
   34       -2.259565
   35       -2.258830
   36       -2.258818
   37       -2.254972
   38       -2.227083
   39       -2.224473
   40       -1.788967
   41       -1.619655
   42       -1.595547
   43       -1.593344
   44       -1.569085
   45        0.776046
   46        0.936374
   47        0.950200
   48        0.954907
   49        0.969712
   50        1.263896
   51        1.276499
   52        1.280654
   53        1.292012
   54        1.398861
   55        1.400735
   56        1.644516
   57        1.646315
   58        2.073130
   59        2.144864
   60        2.145810
   61        2.146014
   62        2.150201
   63        2.605062
   64        2.607640
   65        6.297527
   66        6.300624
   67        6.539942
   68        6.544879
   69        6.545121
   70        6.546407
   71        6.985221
   72        7.045450
   73        7.048024
   74        7.359641
   75        7.363302
   76        7.930524
   77        9.043471
   78       11.589404
   79       11.593319
   80       11.937265
   81       12.112626
   82       12.113721
   83       12.288382
   84       12.544329
 
  0.0000000E+00  0.3333333E+00  0.0000000E+00  0.1388889E-01
    1      -14.357433
    2      -14.226477
    3      -14.226019
    4      -14.086920
    5      -12.409551
    6      -12.294139
    7      -12.293712
    8      -12.172169
    9      -10.550942
   10      -10.546680
   11      -10.452564
   12      -10.451240
   13      -10.447998
   14      -10.446034
   15      -10.348021
   16      -10.343602
   17       -6.832615
   18       -6.823966
   19       -6.765618
   20       -6.764997
   21       -6.755999
   22       -6.755789
   23       -6.694839
   24       -6.686218
   25       -5.045208
   26       -4.983890
   27       -4.983509
   28       -4.920421
   29       -3.446922
   30       -3.433739
   31       -3.406370
   32       -3.404342
   33       -3.392688
   34       -3.391296
   35       -3.362158
   36       -3.349009
   37       -3.063010
   38       -2.233524
   39       -2.231997
   40       -1.230517
   41       -1.162851
   42       -1.138910
   43       -1.138582
   44       -1.114510
   45       -0.760893
   46       -0.706418
   47       -0.676896
   48       -0.676339
   49       -0.646772
   50       -0.017372
   51       -0.015829
   52        0.456154
   53        0.474698
   54        0.475024
   55        0.493473
   56        0.856707
   57        1.337249
   58        1.341352
   59        1.947710
   60        1.950205
   61        1.953277
   62        1.956222
   63        2.613971
   64        2.621503
   65        6.803986
   66        6.807382
   67        7.114861
   68        7.116805
   69        7.120985
   70        7.123088
   71        7.517379
   72        7.521562
   73        9.133964
   74        9.505512
   75        9.507539
   76        9.647532
   77        9.991472
   78       11.940195
   79       12.093112
   80       12.096264
   81       12.222371
   82       12.309629
   83       12.310403
   84       12.592957
 
  0.1666667E+00  0.3333333E+00  0.0000000E+00  0.1388889E-01
    1      -13.865009
    2      -13.737964
    3      -13.737537
    4      -13.602904
    5      -12.892336
    6      -12.773073
    7      -12.772612
    8      -12.646737
    9      -11.936895
   10      -11.825366
   11      -11.824930
   12      -11.707692
   13       -9.259799
   14       -9.176743
   15       -9.176496
   16       -9.091356
   17       -7.364307
   18       -7.309416
   19       -7.307359
   20       -7.250309
   21       -5.053875
   22       -5.011814
   23       -5.010628
   24       -4.964624
   25       -4.892911
   26       -4.845093
   27       -4.844075
   28       -4.795810
   29       -3.908714
   30       -3.858419
   31       -3.857376
   32       -3.805873
   33       -2.861097
   34       -2.829503
   35       -2.827617
   36       -2.793937
   37       -2.470868
   38       -1.818185
   39       -1.788842
   40       -1.787102
   41       -1.754671
   42       -1.657825
   43       -1.655973
   44       -1.324554
   45       -1.316502
   46       -1.297598
   47       -1.297169
   48       -1.269634
   49       -0.681955
   50       -0.546347
   51       -0.544824
   52       -0.426516
   53       -0.407627
   54       -0.405140
   55       -0.385409
   56       -0.196872
   57        0.369793
   58        0.525780
   59        0.527388
   60        1.372249
   61        2.754362
   62        3.250097
   63        3.251906
   64        3.714324
   65        5.692783
   66        5.903281
   67        5.905828
   68        6.212126
   69        8.743340
   70        9.033065
   71        9.034713
   72        9.342192
   73       10.230524
   74       10.255785
   75       10.527589
   76       10.529989
   77       10.892887
   78       11.448539
   79       12.489959
   80       12.520205
   81       12.530209
   82       12.645061
   83       12.773813
   84       12.785836
 
  0.3333333E+00  0.3333333E+00  0.0000000E+00  0.1388889E-01
    1      -13.056711
    2      -13.054043
    3      -13.051531
    4      -12.937583
    5      -12.934390
    6      -12.934361
    7      -12.932782
    8      -12.931482
    9      -12.928939
   10      -12.808288
   11      -12.805654
   12      -12.803066
   13       -8.044494
   14       -7.962278
   15       -7.960566
   16       -7.954012
   17       -7.951867
   18       -7.947684
   19       -7.945449
   20       -7.865902
   21       -5.910683
   22       -5.910343
   23       -5.906624
   24       -5.905774
   25       -3.149610
   26       -3.146167
   27       -3.144481
   28       -3.125269
   29       -3.120739
   30       -3.120714
   31       -3.120108
   32       -3.119805
   33       -3.114998
   34       -3.097392
   35       -3.095306
   36       -3.091582
   37       -1.789116
   38       -1.784990
   39       -1.782565
   40       -1.772267
   41       -1.769132
   42       -1.767363
   43       -1.766602
   44       -1.766591
   45       -1.761655
   46       -1.749124
   47       -1.747650
   48       -1.742733
   49       -1.505942
   50       -1.503747
   51       -1.501190
   52       -0.728588
   53       -0.725226
   54       -0.725042
   55       -0.723771
   56       -0.722527
   57       -0.719536
   58        0.201970
   59        0.204347
   60        0.207080
   61        4.000966
   62        4.583845
   63        4.592051
   64        4.598304
   65        4.601069
   66        4.619071
   67        4.620379
   68        5.286358
   69       10.750853
   70       10.754045
   71       10.758151
   72       10.971774
   73       10.976933
   74       10.977153
   75       10.978063
   76       10.978868
   77       10.981184
   78       11.205286
   79       11.211394
   80       11.213961
   81       11.260311
   82       11.262544
   83       11.269894
   84       13.482543
 
  0.5000000E+00  0.3333333E+00  0.0000000E+00  0.1388889E-01
    1      -13.866919
    2      -13.739883
    3      -13.739427
    4      -13.604804
    5      -12.894224
    6      -12.774992
    7      -12.774467
    8      -12.648622
    9      -11.933063
   10      -11.821505
   11      -11.821136
   12      -11.703869
   13       -9.249664
   14       -9.166525
   15       -9.166031
   16       -9.080768
   17       -7.367651
   18       -7.312402
   19       -7.311845
   20       -7.254532
   21       -5.060716
   22       -5.018954
   23       -5.017841
   24       -4.972122
   25       -4.899351
   26       -4.852346
   27       -4.849917
   28       -4.802477
   29       -3.920527
   30       -3.870978
   31       -3.867997
   32       -3.817210
   33       -2.857127
   34       -2.826342
   35       -2.822776
   36       -2.789868
   37       -2.472951
   38       -1.826315
   39       -1.796767
   40       -1.794492
   41       -1.762022
   42       -1.659985
   43       -1.658174
   44       -1.318560
   45       -1.309390
   46       -1.283469
   47       -1.280488
   48       -1.254074
   49       -0.684074
   50       -0.548494
   51       -0.546972
   52       -0.417787
   53       -0.398491
   54       -0.396533
   55       -0.376479
   56       -0.193138
   57        0.367439
   58        0.529339
   59        0.531175
   60        1.375823
   61        2.760331
   62        3.257939
   63        3.259874
   64        3.725243
   65        5.693737
   66        5.899914
   67        5.901869
   68        6.201469
   69        8.745227
   70        9.030597
   71        9.033320
   72        9.336085
   73       10.223998
   74       10.252929
   75       10.521381
   76       10.524462
   77       10.889656
   78       11.446335
   79       12.483219
   80       12.515367
   81       12.525516
   82       12.650393
   83       12.775159
   84       12.787349
 
 -0.3333333E+00  0.3333333E+00  0.0000000E+00  0.1388889E-01
    1      -14.358388
    2      -14.227434
    3      -14.226958
    4      -14.087865
    5      -12.413387
    6      -12.298009
    7      -12.297505
    8      -12.176005
    9      -10.543334
   10      -10.541583
   11      -10.444761
   12      -10.443277
   13      -10.443244
   14      -10.441151
   15      -10.340372
   16      -10.338540
   17       -6.831278
   18       -6.829354
   19       -6.765172
   20       -6.762385
   21       -6.762370
   22       -6.761437
   23       -6.693927
   24       -6.692116
   25       -5.055203
   26       -4.994695
   27       -4.992357
   28       -4.930100
   29       -3.445449
   30       -3.443711
   31       -3.404065
   32       -3.403955
   33       -3.403911
   34       -3.400154
   35       -3.361075
   36       -3.358903
   37       -3.064071
   38       -2.234578
   39       -2.233066
   40       -1.231597
   41       -1.146819
   42       -1.123794
   43       -1.121288
   44       -1.098201
   45       -0.764905
   46       -0.718383
   47       -0.690229
   48       -0.686099
   49       -0.657768
   50       -0.021606
   51       -0.020080
   52        0.468142
   53        0.485653
   54        0.489274
   55        0.506363
   56        0.851985
   57        1.343616
   58        1.345466
   59        1.955460
   60        1.956572
   61        1.956783
   62        1.960735
   63        2.622521
   64        2.624996
   65        6.805625
   66        6.808393
   67        7.113569
   68        7.118445
   69        7.118690
   70        7.119901
   71        7.513060
   72        7.515759
   73        9.126959
   74        9.498444
   75        9.501107
   76        9.646166
   77        9.986739
   78       11.943295
   79       12.092109
   80       12.095324
   81       12.250318
   82       12.339234
   83       12.340723
   84       12.618778
 
 -0.1666667E+00  0.3333333E+00  0.0000000E+00  0.1388889E-01
    1      -14.522585
    2      -14.390320
    3      -14.389845
    4      -14.249252
    5      -11.624025
    6      -11.617502
    7      -11.515620
    8      -11.514703
    9      -11.508842
   10      -11.507322
   11      -11.400388
   12      -11.393800
   13       -9.264918
   14       -9.210815
   15       -9.209027
   16       -9.163467
   17       -8.223666
   18       -8.197243
   19       -8.194483
   20       -8.152952
   21       -6.060810
   22       -6.053545
   23       -5.994335
   24       -5.993765
   25       -5.986923
   26       -5.985297
   27       -5.924397
   28       -5.917282
   29       -3.632790
   30       -3.590306
   31       -3.587851
   32       -3.543995
   33       -3.262211
   34       -2.426996
   35       -2.425468
   36       -1.959745
   37       -1.945562
   38       -1.929580
   39       -1.929200
   40       -1.915716
   41       -1.913990
   42       -1.898289
   43       -1.883959
   44       -1.415889
   45       -0.093088
   46       -0.079217
   47       -0.074843
   48       -0.060952
   49        0.135814