 vasp.5.3.5 31Mar14 (build Nov 02 2014 15:17:37) complex                        
  
 executed on        ion-Intel-MKL date 2016.10.19  23:18:56
 running on    6 total cores
 distrk:  each k-point on    6 cores,    1 groups
 distr:  one band on NCORES_PER_BAND=   1 cores,    6 groups


--------------------------------------------------------------------------------------------------------


 INCAR:
 POTCAR:   PAW_PBE C 08Apr2002                    

 ----------------------------------------------------------------------------- 
|                                                                             |
|           W    W    AA    RRRRR   N    N  II  N    N   GGGG   !!!           |
|           W    W   A  A   R    R  NN   N  II  NN   N  G    G  !!!           |
|           W    W  A    A  R    R  N N  N  II  N N  N  G       !!!           |
|           W WW W  AAAAAA  RRRRR   N  N N  II  N  N N  G  GGG   !            |
|           WW  WW  A    A  R   R   N   NN  II  N   NN  G    G                |
|           W    W  A    A  R    R  N    N  II  N    N   GGGG   !!!           |
|                                                                             |
|      For optimal performance we recommend to set                            |
|        NCORE= 4 - approx SQRT( number of cores)                             |
|      NCORE specifies how many cores store one orbital (NPAR=cpu/NCORE).     |
|      This setting can  greatly improve the performance of VASP for DFT.     |
|      The default, NPAR=number of cores might be grossly inefficient         |
|      on modern multi-core architectures or massively parallel machines.     |
|      Do your own testing !!!!                                               |
|      Unfortunately you need to use the default for GW and RPA calculations. |
|      (for HF NCORE is supported but not extensively tested yet)             |
|                                                                             |
 ----------------------------------------------------------------------------- 

 POTCAR:   PAW_PBE C 08Apr2002                    
   VRHFIN =C: s2p2                                                              
   LEXCH  = PE                                                                  
   EATOM  =   147.1560 eV,   10.8157 Ry                                         
                                                                                
   TITEL  = PAW_PBE C 08Apr2002                                                 
   LULTRA =        F    use ultrasoft PP ?                                      
   IUNSCR =        0    unscreen: 0-lin 1-nonlin 2-no                           
   RPACOR =     .000    partial core radius                                     
   POMASS =   12.011; ZVAL   =    4.000    mass and valenz                      
   RCORE  =    1.500    outmost cutoff radius                                   
   RWIGS  =    1.630; RWIGS  =     .863    wigner-seitz radius (au A)           
   ENMAX  =  400.000; ENMIN  =  300.000 eV                                      
   ICORE  =        2    local potential                                         
   LCOR   =        T    correct aug charges                                     
   LPAW   =        T    paw PP                                                  
   EAUG   =  644.873                                                            
   DEXC   =     .000                                                            
   RMAX   =    2.266    core radius for proj-oper                               
   RAUG   =    1.300    factor for augmentation sphere                          
   RDEP   =    1.501    radius for radial grids                                 
   RDEPT  =    1.300    core radius for aug-charge                              
   QCUT   =   -5.516; QGAM   =   11.032    optimization parameters              
                                                                                
   Description                                                                  
     l     E      TYP  RCUT    TYP  RCUT                                        
     0   .000     23  1.200                                                     
     0   .000     23  1.200                                                     
     1   .000     23  1.500                                                     
     1  2.500     23  1.500                                                     
     2   .000      7  1.500                                                     
  local pseudopotential read in
  atomic valenz-charges read in
  non local Contribution for L=           0  read in
    real space projection operators read in
  non local Contribution for L=           0  read in
    real space projection operators read in
  non local Contribution for L=           1  read in
    real space projection operators read in
  non local Contribution for L=           1  read in
    real space projection operators read in
    PAW grid and wavefunctions read in
 
   number of l-projection  operators is LMAX  =           4
   number of lm-projection operators is LMMAX =           8
 

 ----------------------------------------------------------------------------- 
|                                                                             |
|  ADVICE TO THIS USER RUNNING 'VASP/VAMP'   (HEAR YOUR MASTER'S VOICE ...):  |
|                                                                             |
|      You have a (more or less) 'large supercell' and for larger cells       |
|      it might be more efficient to use real space projection operators      |
|      So try LREAL= Auto  in the INCAR   file.                               |
|      Mind: If you want to do a very accurate calculations keep the          |
|      reciprocal projection scheme          (i.e. LREAL=.FALSE.)             |
|                                                                             |
 ----------------------------------------------------------------------------- 

 PAW_PBE C 08Apr2002                    :
 energy of atom  1       EATOM= -147.1560
 kinetic energy error for atom=    0.0016 (will be added to EATOM!!)
 
 
 POSCAR: C                                       
  positions in direct lattice
  No initial velocities read in
 exchange correlation table for  LEXCH =        8
   RHO(1)=    0.500       N(1)  =     2000
   RHO(2)=  100.500       N(2)  =     4000
 


--------------------------------------------------------------------------------------------------------


 ion  position               nearest neighbor table
   1  0.499  0.000  0.124-  19 1.42  18 1.42  20 1.43
   2  1.000  0.000  0.125-  17 1.42  20 1.42  19 1.42
   3  0.500  0.500  0.125-  20 1.42  17 1.42  18 1.42
   4  1.000  0.500  0.125-  19 1.42  18 1.42  17 1.42
   5  0.500  0.000  0.625-  22 1.42  23 1.42  24 1.42
   6  1.000  0.000  0.625-  21 1.42  24 1.42  23 1.42
   7  0.500  0.500  0.625-  24 1.42  21 1.42  22 1.42
   8  1.000  0.500  0.625-  23 1.42  22 1.42  21 1.42
   9  0.000  0.500  0.375-  27 1.42  26 1.42  28 1.42
  10  0.500  0.500  0.375-  28 1.42  25 1.42  27 1.42
  11  0.000  1.000  0.375-  25 1.42  28 1.42  26 1.42
  12  0.500  1.000  0.375-  26 1.42  27 1.42  25 1.42
  13  0.000  0.500  0.875-  31 1.42  30 1.42  32 1.42
  14  0.500  0.500  0.875-  32 1.42  29 1.42  31 1.42
  15  0.000  1.000  0.875-  29 1.42  32 1.42  30 1.42
  16  0.500  1.000  0.875-  30 1.42  31 1.42  29 1.42
  17  0.166  0.334  0.125-   2 1.42   3 1.42   4 1.42
  18  0.666  0.334  0.125-   4 1.42   1 1.42   3 1.42
  19  0.166  0.834  0.125-   1 1.42   4 1.42   2 1.42
  20  0.666  0.834  0.125-   3 1.42   2 1.42   1 1.43
  21  0.166  0.334  0.625-   6 1.42   7 1.42   8 1.42
  22  0.666  0.334  0.625-   5 1.42   8 1.42   7 1.42
  23  0.166  0.834  0.625-   8 1.42   5 1.42   6 1.42
  24  0.666  0.834  0.625-   7 1.42   6 1.42   5 1.42
  25  0.334  0.166  0.375-  11 1.42  10 1.42  12 1.42
  26  0.834  0.166  0.375-  12 1.42   9 1.42  11 1.42
  27  0.334  0.666  0.375-   9 1.42  12 1.42  10 1.42
  28  0.834  0.666  0.375-  10 1.42  11 1.42   9 1.42
  29  0.334  0.166  0.875-  15 1.42  14 1.42  16 1.42
  30  0.834  0.166  0.875-  16 1.42  13 1.42  15 1.42
  31  0.334  0.666  0.875-  13 1.42  16 1.42  14 1.42
  32  0.834  0.666  0.875-  14 1.42  15 1.42  13 1.42
 
  LATTYP: Found a base centered orthorhombic cell.
 ALAT       =     4.9295501972
 B/A-ratio  =     1.7336081796
 C/A-ratio  =     2.7444231105
  
  Lattice vectors:
  
 A1 = (   4.9328744980,  -0.0019192860,   0.0000000000)
 A2 = (  -2.4680993993,   4.2710349859,   0.0000000000)
 A3 = (   0.0000000000,   0.0000000000,  13.5287714854)


Analysis of symmetry for initial positions (statically):
=====================================================================
 Subroutine PRICEL returns:
 Original cell was already a primitive cell.
 

 Routine SETGRP: Setting up the symmetry group for a 
 base centered orthorhombic supercell.


 Subroutine GETGRP returns: Found  1 space group operations
 (whereof  1 operations were pure point group operations)
 out of a pool of  8 trial point group operations.


The static configuration has the point symmetry C_1 .


Analysis of symmetry for dynamics (positions and initial velocities):
=====================================================================
 Subroutine PRICEL returns:
 Original cell was already a primitive cell.
 

 Routine SETGRP: Setting up the symmetry group for a 
 base centered orthorhombic supercell.


 Subroutine GETGRP returns: Found  1 space group operations
 (whereof  1 operations were pure point group operations)
 out of a pool of  8 trial point group operations.


The dynamic configuration has the point symmetry C_1 .
 
 
 KPOINTS: B4C B11C-CBC                            

Automatic generation of k-mesh.
Space group operators:
 irot       det(A)        alpha          n_x          n_y          n_z        tau_x        tau_y        tau_z
    1     1.000000     0.000001     1.000000     0.000000     0.000000     0.000000     0.000000     0.000000
 
 Subroutine IBZKPT returns following result:
 ===========================================
 
 Found     76 irreducible k-points:
 
 Following reciprocal coordinates:
            Coordinates               Weight
  0.000000  0.000000  0.000000      1.000000
  0.166667 -0.000000  0.000000      2.000000
  0.333333  0.000000  0.000000      2.000000
  0.500000  0.000000  0.000000      1.000000
 -0.000000  0.166667  0.000000      2.000000
  0.166667  0.166667  0.000000      2.000000
  0.333333  0.166667  0.000000      2.000000
  0.500000  0.166667  0.000000      2.000000
 -0.333333  0.166667  0.000000      2.000000
 -0.166667  0.166667  0.000000      2.000000
  0.000000  0.333333  0.000000      2.000000
  0.166667  0.333333  0.000000      2.000000
  0.333333  0.333333  0.000000      2.000000
  0.500000  0.333333  0.000000      2.000000
 -0.333333  0.333333  0.000000      2.000000
 -0.166667  0.333333  0.000000      2.000000
  0.000000  0.500000  0.000000      1.000000
  0.166667  0.500000  0.000000      2.000000
  0.333333  0.500000  0.000000      2.000000
  0.500000  0.500000  0.000000      1.000000
  0.000000  0.000000  0.250000      2.000000
  0.166667 -0.000000  0.250000      2.000000
  0.333333  0.000000  0.250000      2.000000
  0.500000  0.000000  0.250000      2.000000
 -0.333333  0.000000  0.250000      2.000000
 -0.166667  0.000000  0.250000      2.000000
 -0.000000  0.166667  0.250000      2.000000
  0.166667  0.166667  0.250000      2.000000
  0.333333  0.166667  0.250000      2.000000
  0.500000  0.166667  0.250000      2.000000
 -0.333333  0.166667  0.250000      2.000000
 -0.166667  0.166667  0.250000      2.000000
  0.000000  0.333333  0.250000      2.000000
  0.166667  0.333333  0.250000      2.000000
  0.333333  0.333333  0.250000      2.000000
  0.500000  0.333333  0.250000      2.000000
 -0.333333  0.333333  0.250000      2.000000
 -0.166667  0.333333  0.250000      2.000000
  0.000000  0.500000  0.250000      2.000000
  0.166667  0.500000  0.250000      2.000000
  0.333333  0.500000  0.250000      2.000000
  0.500000  0.500000  0.250000      2.000000
 -0.333333  0.500000  0.250000      2.000000
 -0.166667  0.500000  0.250000      2.000000
  0.000000 -0.333333  0.250000      2.000000
  0.166667 -0.333333  0.250000      2.000000
  0.333333 -0.333333  0.250000      2.000000
  0.500000 -0.333333  0.250000      2.000000
 -0.333333 -0.333333  0.250000      2.000000
 -0.166667 -0.333333  0.250000      2.000000
  0.000000 -0.166667  0.250000      2.000000
  0.166667 -0.166667  0.250000      2.000000
  0.333333 -0.166667  0.250000      2.000000
  0.500000 -0.166667  0.250000      2.000000
 -0.333333 -0.166667  0.250000      2.000000
 -0.166667 -0.166667  0.250000      2.000000
  0.000000  0.000000  0.500000      1.000000
  0.166667 -0.000000  0.500000      2.000000
  0.333333  0.000000  0.500000      2.000000
  0.500000  0.000000  0.500000      1.000000
 -0.000000  0.166667  0.500000      2.000000
  0.166667  0.166667  0.500000      2.000000
  0.333333  0.166667  0.500000      2.000000
  0.500000  0.166667  0.500000      2.000000
 -0.333333  0.166667  0.500000      2.000000
 -0.166667  0.166667  0.500000      2.000000
  0.000000  0.333333  0.500000      2.000000
  0.166667  0.333333  0.500000      2.000000
  0.333333  0.333333  0.500000      2.000000
  0.500000  0.333333  0.500000      2.000000
 -0.333333  0.333333  0.500000      2.000000
 -0.166667  0.333333  0.500000      2.000000
  0.000000  0.500000  0.500000      1.000000
  0.166667  0.500000  0.500000      2.000000
  0.333333  0.500000  0.500000      2.000000
  0.500000  0.500000  0.500000      1.000000
 
 Following cartesian coordinates:
            Coordinates               Weight
  0.000000  0.000000  0.000000      1.000000
  0.033795  0.019529  0.000000      2.000000
  0.067589  0.039058  0.000000      2.000000
  0.101384  0.058586  0.000000      1.000000
  0.000015  0.039031  0.000000      2.000000
  0.033810  0.058560  0.000000      2.000000
  0.067604  0.078089  0.000000      2.000000
  0.101399  0.097618  0.000000      2.000000
 -0.067574 -0.000026  0.000000      2.000000
 -0.033779  0.019503  0.000000      2.000000
  0.000030  0.078063  0.000000      2.000000
  0.033825  0.097591  0.000000      2.000000
  0.067619  0.117120  0.000000      2.000000
  0.101414  0.136649  0.000000      2.000000
 -0.067559  0.039005  0.000000      2.000000
 -0.033764  0.058534  0.000000      2.000000
  0.000046  0.117094  0.000000      1.000000
  0.033840  0.136623  0.000000      2.000000
  0.067635  0.156152  0.000000      2.000000
  0.101429  0.175680  0.000000      1.000000
  0.000000  0.000000  0.018479      2.000000
  0.033795  0.019529  0.018479      2.000000
  0.067589  0.039058  0.018479      2.000000
  0.101384  0.058586  0.018479      2.000000
 -0.067589 -0.039058  0.018479      2.000000
 -0.033795 -0.019529  0.018479      2.000000
  0.000015  0.039031  0.018479      2.000000
  0.033810  0.058560  0.018479      2.000000
  0.067604  0.078089  0.018479      2.000000
  0.101399  0.097618  0.018479      2.000000
 -0.067574 -0.000026  0.018479      2.000000
 -0.033779  0.019503  0.018479      2.000000
  0.000030  0.078063  0.018479      2.000000
  0.033825  0.097591  0.018479      2.000000
  0.067619  0.117120  0.018479      2.000000
  0.101414  0.136649  0.018479      2.000000
 -0.067559  0.039005  0.018479      2.000000
 -0.033764  0.058534  0.018479      2.000000
  0.000046  0.117094  0.018479      2.000000
  0.033840  0.136623  0.018479      2.000000
  0.067635  0.156152  0.018479      2.000000
  0.101429  0.175680  0.018479      2.000000
 -0.067543  0.078036  0.018479      2.000000
 -0.033749  0.097565  0.018479      2.000000
 -0.000030 -0.078063  0.018479      2.000000
  0.033764 -0.058534  0.018479      2.000000
  0.067559 -0.039005  0.018479      2.000000
  0.101353 -0.019476  0.018479      2.000000
 -0.067619 -0.117120  0.018479      2.000000
 -0.033825 -0.097591  0.018479      2.000000
 -0.000015 -0.039031  0.018479      2.000000
  0.033779 -0.019503  0.018479      2.000000
  0.067574  0.000026  0.018479      2.000000
  0.101368  0.019555  0.018479      2.000000
 -0.067604 -0.078089  0.018479      2.000000
 -0.033810 -0.058560  0.018479      2.000000
  0.000000  0.000000  0.036958      1.000000
  0.033795  0.019529  0.036958      2.000000
  0.067589  0.039058  0.036958      2.000000
  0.101384  0.058586  0.036958      1.000000
  0.000015  0.039031  0.036958      2.000000
  0.033810  0.058560  0.036958      2.000000
  0.067604  0.078089  0.036958      2.000000
  0.101399  0.097618  0.036958      2.000000
 -0.067574 -0.000026  0.036958      2.000000
 -0.033779  0.019503  0.036958      2.000000
  0.000030  0.078063  0.036958      2.000000
  0.033825  0.097591  0.036958      2.000000
  0.067619  0.117120  0.036958      2.000000
  0.101414  0.136649  0.036958      2.000000
 -0.067559  0.039005  0.036958      2.000000
 -0.033764  0.058534  0.036958      2.000000
  0.000046  0.117094  0.036958      1.000000
  0.033840  0.136623  0.036958      2.000000
  0.067635  0.156152  0.036958      2.000000
  0.101429  0.175680  0.036958      1.000000
 
 TETIRR: Found    432 inequivalent tetrahedra from      864


--------------------------------------------------------------------------------------------------------




 Dimension of arrays:
   k-points           NKPTS =     76   k-points in BZ     NKDIM =     76   number of bands    NBANDS=     84
   number of dos      NEDOS =    301   number of ions     NIONS =     32
   non local maximal  LDIM  =      4   non local SUM 2l+1 LMDIM =      8
   total plane-waves  NPLWV = 290304
   max r-space proj   IRMAX =      1   max aug-charges    IRDMAX=  12220
   dimension x,y,z NGX =    48 NGY =   48 NGZ =  126
   dimension x,y,z NGXF=    96 NGYF=   96 NGZF=  252
   support grid    NGXF=    96 NGYF=   96 NGZF=  252
   ions per type =              32
 NGX,Y,Z   is equivalent  to a cutoff of  16.18, 16.18, 15.48 a.u.
 NGXF,Y,Z  is equivalent  to a cutoff of  32.35, 32.35, 30.97 a.u.


 I would recommend the setting:
   dimension x,y,z NGX =    46 NGY =   46 NGZ =  125
 SYSTEM =  graphite                                
 POSCAR =  C                                       

 Startparameter for this run:
   NWRITE =      2    write-flag & timer
   PREC   = accura    normal or accurate (medium, high low for compatibility)
   ISTART =      0    job   : 0-new  1-cont  2-samecut
   ICHARG =      2    charge: 1-file 2-atom 10-const
   ISPIN  =      1    spin polarized calculation?
   LNONCOLLINEAR =      F non collinear calculations
   LSORBIT =      F    spin-orbit coupling
   INIWAV =      1    electr: 0-lowe 1-rand  2-diag
   LASPH  =      F    aspherical Exc in radial PAW
   METAGGA=      F    non-selfconsistent MetaGGA calc.

 Electronic Relaxation 1
   ENCUT  =  800.0 eV  58.80 Ry    7.67 a.u.  11.38 11.38 31.20*2*pi/ulx,y,z
   ENINI  =  800.0     initial cutoff
   ENAUG  =  644.9 eV  augmentation charge cutoff
   NELM   =    200;   NELMIN=  2; NELMDL=  0     # of ELM steps 
   EDIFF  = 0.1E-07   stopping-criterion for ELM
   LREAL  =      F    real-space projection
   NLSPLINE    = F    spline interpolate recip. space projectors
   LCOMPAT=      F    compatible to vasp.4.4
   GGA_COMPAT  = T    GGA compatible to vasp.4.4-vasp.4.6
   LMAXPAW     = -100 max onsite density
   LMAXMIX     =    2 max onsite mixed and CHGCAR
   VOSKOWN=      0    Vosko Wilk Nusair interpolation
   ROPT   =    0.00000
 Ionic relaxation
   EDIFFG = 0.1E-02   stopping-criterion for IOM
   NSW    =      0    number of steps for IOM
   NBLOCK =      1;   KBLOCK =      1    inner block; outer block 
   IBRION =     -1    ionic relax: 0-MD 1-quasi-New 2-CG
   NFREE  =      0    steps in history (QN), initial steepest desc. (CG)
   ISIF   =      2    stress and relaxation
   IWAVPR =     10    prediction:  0-non 1-charg 2-wave 3-comb
   ISYM   =      2    0-nonsym 1-usesym 2-fastsym
   LCORR  =      T    Harris-Foulkes like correction to forces

   POTIM  = 0.5000    time-step for ionic-motion
   TEIN   =    0.0    initial temperature
   TEBEG  =    0.0;   TEEND  =   0.0 temperature during run
   SMASS  =  -3.00    Nose mass-parameter (am)
   estimated Nose-frequenzy (Omega)   =  0.10E-29 period in steps =****** mass=  -0.556E-27a.u.
   SCALEE = 1.0000    scale energy and forces
   NPACO  =    256;   APACO  = 16.0  distance and # of slots for P.C.
   PSTRESS=    0.0 pullay stress

  Mass of Ions in am
   POMASS =  12.01
  Ionic Valenz
   ZVAL   =   4.00
  Atomic Wigner-Seitz radii
   RWIGS  =  -1.00
  virtual crystal weights 
   VCA    =   1.00
   NELECT =     128.0000    total number of electrons
   NUPDOWN=      -1.0000    fix difference up-down

 DOS related values:
   EMIN   =  10.00;   EMAX   =-10.00  energy-range for DOS
   EFERMI =   0.00
   ISMEAR =    -5;   SIGMA  =   0.20  broadening in eV -4-tet -1-fermi 0-gaus

 Electronic relaxation 2 (details)
   IALGO  =     38    algorithm
   LDIAG  =      T    sub-space diagonalisation (order eigenvalues)
   LSUBROT=      F    optimize rotation matrix (better conditioning)
   TURBO    =      0    0=normal 1=particle mesh
   IRESTART =      0    0=no restart 2=restart with 2 vectors
   NREBOOT  =      0    no. of reboots
   NMIN     =      0    reboot dimension
   EREF     =   0.00    reference energy to select bands
   IMIX   =      4    mixing-type and parameters
     AMIX     =   0.40;   BMIX     =  1.00
     AMIX_MAG =   1.60;   BMIX_MAG =  1.00
     AMIN     =   0.10
     WC   =   100.;   INIMIX=   1;  MIXPRE=   1;  MAXMIX= -45

 Intra band minimization:
   WEIMIN = 0.0000     energy-eigenvalue tresh-hold
   EBREAK =  0.30E-10  absolut break condition
   DEPER  =   0.30     relativ break condition  

   TIME   =   0.40     timestep for ELM

  volume/ion in A,a.u.               =       8.91        60.10
  Fermi-wavevector in a.u.,A,eV,Ry     =   1.253757  2.369258 21.387103  1.571908
  Thomas-Fermi vector in A             =   2.387595
 
 Write flags
   LWAVE  =      F    write WAVECAR
   LCHARG =      F    write CHGCAR
   LVTOT  =      F    write LOCPOT, total local potential
   LVHAR  =      F    write LOCPOT, Hartree potential only
   LELF   =      F    write electronic localiz. function (ELF)
   LORBIT =      0    0 simple, 1 ext, 2 COOP (PROOUT)


 Dipole corrections
   LMONO  =      F    monopole corrections only (constant potential shift)
   LDIPOL =      F    correct potential (dipole corrections)
   IDIPOL =      0    1-x, 2-y, 3-z, 4-all directions 
   EPSILON=  1.0000000 bulk dielectric constant

 Exchange correlation treatment:
   GGA     =    PE    GGA type
   LEXCH   =     8    internal setting for exchange type
   VOSKOWN=      0    Vosko Wilk Nusair interpolation
   LHFCALC =     F    Hartree Fock is set to
   LHFONE  =     F    Hartree Fock one center treatment
   AEXX    =    0.0000 exact exchange contribution

 Linear response parameters
   LEPSILON=     F    determine dielectric tensor
   LRPA    =     F    only Hartree local field effects (RPA)
   LNABLA  =     F    use nabla operator in PAW spheres
   LVEL    =     F    velocity operator in full k-point grid
   LINTERFAST=   F  fast interpolation
   KINTER  =     0    interpolate to denser k-point grid
   CSHIFT  =0.1000    complex shift for real part using Kramers Kronig
   OMEGAMAX=  -1.0    maximum frequency
   DEG_THRESHOLD= 0.2000000E-02 threshold for treating states as degnerate
   RTIME   =    0.100 relaxation time in fs

 Orbital magnetization related:
   ORBITALMAG=     F  switch on orbital magnetization
   LCHIMAG   =     F  perturbation theory with respect to B field
   DQ        =  0.001000  dq finite difference perturbation B field



--------------------------------------------------------------------------------------------------------


 Static calculation
 charge density and potential will be updated during run
 non-spin polarized calculation
 Variant of blocked Davidson
 Davidson routine will perform the subspace rotation
 perform sub-space diagonalisation
    after iterative eigenvector-optimisation
 modified Broyden-mixing scheme, WC =      100.0
 initial mixing is a Kerker type mixing with AMIX =  0.4000 and BMIX =      1.0000
 Hartree-type preconditioning will be used
 using additional bands           20
 reciprocal scheme for non local part
 calculate Harris-corrections to forces 
   (improved forces if not selfconsistent)
 use gradient corrections 
 use of overlap-Matrix (Vanderbilt PP)
 Fermi weights with tetrahedron method with Bloechl corrections


--------------------------------------------------------------------------------------------------------


  energy-cutoff  :      800.00
  volume of cell :      284.97
      direct lattice vectors                 reciprocal lattice vectors
     4.932874498 -0.001919286  0.000000000     0.202767147  0.117172881  0.000000000
    -2.468099399  4.271034986  0.000000000     0.000091118  0.234187941  0.000000000
     0.000000000  0.000000000 13.528771485     0.000000000  0.000000000  0.073916542

  length of vectors
     4.932874871  4.932874871 13.528771485     0.234187958  0.234187958  0.073916542


 
 k-points in units of 2pi/SCALE and weight: B4C B11C-CBC                            
   0.00000000  0.00000000  0.00000000       0.007
   0.03379452  0.01952881  0.00000000       0.014
   0.06758905  0.03905763  0.00000000       0.014
   0.10138357  0.05858644  0.00000000       0.007
   0.00001519  0.03903132  0.00000000       0.014
   0.03380971  0.05856014  0.00000000       0.014
   0.06760424  0.07808895  0.00000000       0.014
   0.10139876  0.09761776  0.00000000       0.014
  -0.06757386 -0.00002630  0.00000000       0.014
  -0.03377934  0.01950251  0.00000000       0.014
   0.00003037  0.07806265  0.00000000       0.014
   0.03382490  0.09759146  0.00000000       0.014
   0.06761942  0.11712027  0.00000000       0.014
   0.10141395  0.13664909  0.00000000       0.014
  -0.06755868  0.03900502  0.00000000       0.014
  -0.03376415  0.05853383  0.00000000       0.014
   0.00004556  0.11709397  0.00000000       0.007
   0.03384008  0.13662278  0.00000000       0.014
   0.06763461  0.15615160  0.00000000       0.014
   0.10142913  0.17568041  0.00000000       0.007
   0.00000000  0.00000000  0.01847914       0.014
   0.03379452  0.01952881  0.01847914       0.014
   0.06758905  0.03905763  0.01847914       0.014
   0.10138357  0.05858644  0.01847914       0.014
  -0.06758905 -0.03905763  0.01847914       0.014
  -0.03379452 -0.01952881  0.01847914       0.014
   0.00001519  0.03903132  0.01847914       0.014
   0.03380971  0.05856014  0.01847914       0.014
   0.06760424  0.07808895  0.01847914       0.014
   0.10139876  0.09761776  0.01847914       0.014
  -0.06757386 -0.00002630  0.01847914       0.014
  -0.03377934  0.01950251  0.01847914       0.014
   0.00003037  0.07806265  0.01847914       0.014
   0.03382490  0.09759146  0.01847914       0.014
   0.06761942  0.11712027  0.01847914       0.014
   0.10141395  0.13664909  0.01847914       0.014
  -0.06755868  0.03900502  0.01847914       0.014
  -0.03376415  0.05853383  0.01847914       0.014
   0.00004556  0.11709397  0.01847914       0.014
   0.03384008  0.13662278  0.01847914       0.014
   0.06763461  0.15615160  0.01847914       0.014
   0.10142913  0.17568041  0.01847914       0.014
  -0.06754349  0.07803634  0.01847914       0.014
  -0.03374897  0.09756516  0.01847914       0.014
  -0.00003037 -0.07806265  0.01847914       0.014
   0.03376415 -0.05853383  0.01847914       0.014
   0.06755868 -0.03900502  0.01847914       0.014
   0.10135320 -0.01947621  0.01847914       0.014
  -0.06761942 -0.11712027  0.01847914       0.014
  -0.03382490 -0.09759146  0.01847914       0.014
  -0.00001519 -0.03903132  0.01847914       0.014
   0.03377934 -0.01950251  0.01847914       0.014
   0.06757386  0.00002630  0.01847914       0.014
   0.10136839  0.01955512  0.01847914       0.014
  -0.06760424 -0.07808895  0.01847914       0.014
  -0.03380971 -0.05856014  0.01847914       0.014
   0.00000000  0.00000000  0.03695827       0.007
   0.03379452  0.01952881  0.03695827       0.014
   0.06758905  0.03905763  0.03695827       0.014
   0.10138357  0.05858644  0.03695827       0.007
   0.00001519  0.03903132  0.03695827       0.014
   0.03380971  0.05856014  0.03695827       0.014
   0.06760424  0.07808895  0.03695827       0.014
   0.10139876  0.09761776  0.03695827       0.014
  -0.06757386 -0.00002630  0.03695827       0.014
  -0.03377934  0.01950251  0.03695827       0.014
   0.00003037  0.07806265  0.03695827       0.014
   0.03382490  0.09759146  0.03695827       0.014
   0.06761942  0.11712027  0.03695827       0.014
   0.10141395  0.13664909  0.03695827       0.014
  -0.06755868  0.03900502  0.03695827       0.014
  -0.03376415  0.05853383  0.03695827       0.014
   0.00004556  0.11709397  0.03695827       0.007
   0.03384008  0.13662278  0.03695827       0.014
   0.06763461  0.15615160  0.03695827       0.014
   0.10142913  0.17568041  0.03695827       0.007
 
 k-points in reciprocal lattice and weights: B4C B11C-CBC                            
   0.00000000  0.00000000  0.00000000       0.007
   0.16666667 -0.00000000  0.00000000       0.014
   0.33333333  0.00000000  0.00000000       0.014
   0.50000000  0.00000000  0.00000000       0.007
  -0.00000000  0.16666667  0.00000000       0.014
   0.16666667  0.16666667  0.00000000       0.014
   0.33333333  0.16666667  0.00000000       0.014
   0.50000000  0.16666667  0.00000000       0.014
  -0.33333333  0.16666667  0.00000000       0.014
  -0.16666667  0.16666667  0.00000000       0.014
   0.00000000  0.33333333  0.00000000       0.014
   0.16666667  0.33333333  0.00000000       0.014
   0.33333333  0.33333333  0.00000000       0.014
   0.50000000  0.33333333  0.00000000       0.014
  -0.33333333  0.33333333  0.00000000       0.014
  -0.16666667  0.33333333  0.00000000       0.014
   0.00000000  0.50000000  0.00000000       0.007
   0.16666667  0.50000000  0.00000000       0.014
   0.33333333  0.50000000  0.00000000       0.014
   0.50000000  0.50000000  0.00000000       0.007
   0.00000000  0.00000000  0.25000000       0.014
   0.16666667 -0.00000000  0.25000000       0.014
   0.33333333  0.00000000  0.25000000       0.014
   0.50000000  0.00000000  0.25000000       0.014
  -0.33333333  0.00000000  0.25000000       0.014
  -0.16666667  0.00000000  0.25000000       0.014
  -0.00000000  0.16666667  0.25000000       0.014
   0.16666667  0.16666667  0.25000000       0.014
   0.33333333  0.16666667  0.25000000       0.014
   0.50000000  0.16666667  0.25000000       0.014
  -0.33333333  0.16666667  0.25000000       0.014
  -0.16666667  0.16666667  0.25000000       0.014
   0.00000000  0.33333333  0.25000000       0.014
   0.16666667  0.33333333  0.25000000       0.014
   0.33333333  0.33333333  0.25000000       0.014
   0.50000000  0.33333333  0.25000000       0.014
  -0.33333333  0.33333333  0.25000000       0.014
  -0.16666667  0.33333333  0.25000000       0.014
   0.00000000  0.50000000  0.25000000       0.014
   0.16666667  0.50000000  0.25000000       0.014
   0.33333333  0.50000000  0.25000000       0.014
   0.50000000  0.50000000  0.25000000       0.014
  -0.33333333  0.50000000  0.25000000       0.014
  -0.16666667  0.50000000  0.25000000       0.014
   0.00000000 -0.33333333  0.25000000       0.014
   0.16666667 -0.33333333  0.25000000       0.014
   0.33333333 -0.33333333  0.25000000       0.014
   0.50000000 -0.33333333  0.25000000       0.014
  -0.33333333 -0.33333333  0.25000000       0.014
  -0.16666667 -0.33333333  0.25000000       0.014
   0.00000000 -0.16666667  0.25000000       0.014
   0.16666667 -0.16666667  0.25000000       0.014
   0.33333333 -0.16666667  0.25000000       0.014
   0.50000000 -0.16666667  0.25000000       0.014
  -0.33333333 -0.16666667  0.25000000       0.014
  -0.16666667 -0.16666667  0.25000000       0.014
   0.00000000  0.00000000  0.50000000       0.007
   0.16666667 -0.00000000  0.50000000       0.014
   0.33333333  0.00000000  0.50000000       0.014
   0.50000000  0.00000000  0.50000000       0.007
  -0.00000000  0.16666667  0.50000000       0.014
   0.16666667  0.16666667  0.50000000       0.014
   0.33333333  0.16666667  0.50000000       0.014
   0.50000000  0.16666667  0.50000000       0.014
  -0.33333333  0.16666667  0.50000000       0.014
  -0.16666667  0.16666667  0.50000000       0.014
   0.00000000  0.33333333  0.50000000       0.014
   0.16666667  0.33333333  0.50000000       0.014
   0.33333333  0.33333333  0.50000000       0.014
   0.50000000  0.33333333  0.50000000       0.014
  -0.33333333  0.33333333  0.50000000       0.014
  -0.16666667  0.33333333  0.50000000       0.014
   0.00000000  0.50000000  0.50000000       0.007
   0.16666667  0.50000000  0.50000000       0.014
   0.33333333  0.50000000  0.50000000       0.014
   0.50000000  0.50000000  0.50000000       0.007
 
 position of ions in fractional coordinates (direct lattice) 
   0.49897886  0.00032672  0.12430556
   0.99967330  0.00032672  0.12500000
   0.49967330  0.50032672  0.12500000
   0.99967330  0.50032672  0.12500000
   0.49967330  0.00032672  0.62500000
   0.99967330  0.00032672  0.62500000
   0.49967330  0.50032672  0.62500000
   0.99967330  0.50032672  0.62500000
   0.00032672  0.49967330  0.37500000
   0.50032672  0.49967330  0.37500000
   0.00032672  0.99967330  0.37500000
   0.50032672  0.99967330  0.37500000
   0.00032672  0.49967330  0.87500000
   0.50032672  0.49967330  0.87500000
   0.00032672  0.99967330  0.87500000
   0.50032672  0.99967330  0.87500000
   0.16629246  0.33370753  0.12500000
   0.66629246  0.33370753  0.12500000
   0.16629246  0.83370753  0.12500000
   0.66629246  0.83370753  0.12500000
   0.16629246  0.33370753  0.62500000
   0.66629246  0.33370753  0.62500000
   0.16629246  0.83370753  0.62500000
   0.66629246  0.83370753  0.62500000
   0.33370753  0.16629246  0.37500000
   0.83370753  0.16629246  0.37500000
   0.33370753  0.66629246  0.37500000
   0.83370753  0.66629246  0.37500000
   0.33370753  0.16629246  0.87500000
   0.83370753  0.16629246  0.87500000
   0.33370753  0.66629246  0.87500000
   0.83370753  0.66629246  0.87500000
 
 position of ions in cartesian coordinates  (Angst):
   2.46059373  0.00043774  1.68170148
   4.93045658 -0.00052323  1.69109644
   1.22996963  2.13595390  1.69109644
   3.69640688  2.13499426  1.69109644
   2.46401933  0.00043641  8.45548218
   4.93045658 -0.00052323  8.45548218
   1.22996963  2.13595390  8.45548218
   3.69640688  2.13499426  8.45548218
  -1.23163172  2.13412154  5.07328931
   1.23480553  2.13316189  5.07328931
  -2.46568142  4.26963903  5.07328931
   0.00075583  4.26867939  5.07328931
  -1.23163172  2.13412154 11.83767505
   1.23480553  2.13316189 11.83767505
  -2.46568142  4.26963903 11.83767505
   0.00075583  4.26867939 11.83767505
  -0.00332350  1.42495737  1.69109644
   2.46311374  1.42399773  1.69109644
  -1.23737320  3.56047486  1.69109644
   1.22906405  3.55951522  1.69109644
  -0.00332350  1.42495737  8.45548218
   2.46311374  1.42399773  8.45548218
  -1.23737320  3.56047486  8.45548218
   1.22906405  3.55951522  8.45548218
   1.23571103  0.70960044  5.07328931
   3.70214828  0.70864080  5.07328931
   0.00166133  2.84511794  5.07328931
   2.46809858  2.84415829  5.07328931
   1.23571103  0.70960044 11.83767505
   3.70214828  0.70864080 11.83767505
   0.00166133  2.84511794 11.83767505
   2.46809858  2.84415829 11.83767505
 


--------------------------------------------------------------------------------------------------------


 k-point  1 :   0.0000 0.0000 0.0000  plane waves:   14667
 k-point  2 :   0.1667-0.0000 0.0000  plane waves:   14662
 k-point  3 :   0.3333 0.0000 0.0000  plane waves:   14626
 k-point  4 :   0.5000 0.0000 0.0000  plane waves:   14640
 k-point  5 :  -0.0000 0.1667 0.0000  plane waves:   14662
 k-point  6 :   0.1667 0.1667 0.0000  plane waves:   14645
 k-point  7 :   0.3333 0.1667 0.0000  plane waves:   14635
 k-point  8 :   0.5000 0.1667 0.0000  plane waves:   14631
 k-point  9 :  -0.3333 0.1667 0.0000  plane waves:   14653
 k-point 10 :  -0.1667 0.1667 0.0000  plane waves:   14664
 k-point 11 :   0.0000 0.3333 0.0000  plane waves:   14626
 k-point 12 :   0.1667 0.3333 0.0000  plane waves:   14635
 k-point 13 :   0.3333 0.3333 0.0000  plane waves:   14608
 k-point 14 :   0.5000 0.3333 0.0000  plane waves:   14635
 k-point 15 :  -0.3333 0.3333 0.0000  plane waves:   14632
 k-point 16 :  -0.1667 0.3333 0.0000  plane waves:   14653
 k-point 17 :   0.0000 0.5000 0.0000  plane waves:   14640
 k-point 18 :   0.1667 0.5000 0.0000  plane waves:   14631
 k-point 19 :   0.3333 0.5000 0.0000  plane waves:   14635
 k-point 20 :   0.5000 0.5000 0.0000  plane waves:   14644
 k-point 21 :   0.0000 0.0000 0.2500  plane waves:   14650
 k-point 22 :   0.1667-0.0000 0.2500  plane waves:   14669
 k-point 23 :   0.3333 0.0000 0.2500  plane waves:   14649
 k-point 24 :   0.5000 0.0000 0.2500  plane waves:   14644
 k-point 25 :  -0.3333 0.0000 0.2500  plane waves:   14649
 k-point 26 :  -0.1667 0.0000 0.2500  plane waves:   14669
 k-point 27 :  -0.0000 0.1667 0.2500  plane waves:   14669
 k-point 28 :   0.1667 0.1667 0.2500  plane waves:   14647
 k-point 29 :   0.3333 0.1667 0.2500  plane waves:   14622
 k-point 30 :   0.5000 0.1667 0.2500  plane waves:   14623
 k-point 31 :  -0.3333 0.1667 0.2500  plane waves:   14648
 k-point 32 :  -0.1667 0.1667 0.2500  plane waves:   14669
 k-point 33 :   0.0000 0.3333 0.2500  plane waves:   14649
 k-point 34 :   0.1667 0.3333 0.2500  plane waves:   14622
 k-point 35 :   0.3333 0.3333 0.2500  plane waves:   14617
 k-point 36 :   0.5000 0.3333 0.2500  plane waves:   14619
 k-point 37 :  -0.3333 0.3333 0.2500  plane waves:   14646
 k-point 38 :  -0.1667 0.3333 0.2500  plane waves:   14648
 k-point 39 :   0.0000 0.5000 0.2500  plane waves:   14644
 k-point 40 :   0.1667 0.5000 0.2500  plane waves:   14623
 k-point 41 :   0.3333 0.5000 0.2500  plane waves:   14619
 k-point 42 :   0.5000 0.5000 0.2500  plane waves:   14634
 k-point 43 :  -0.3333 0.5000 0.2500  plane waves:   14619
 k-point 44 :  -0.1667 0.5000 0.2500  plane waves:   14623
 k-point 45 :   0.0000-0.3333 0.2500  plane waves:   14649
 k-point 46 :   0.1667-0.3333 0.2500  plane waves:   14648
 k-point 47 :   0.3333-0.3333 0.2500  plane waves:   14646
 k-point 48 :   0.5000-0.3333 0.2500  plane waves:   14619
 k-point 49 :  -0.3333-0.3333 0.2500  plane waves:   14617
 k-point 50 :  -0.1667-0.3333 0.2500  plane waves:   14622
 k-point 51 :   0.0000-0.1667 0.2500  plane waves:   14669
 k-point 52 :   0.1667-0.1667 0.2500  plane waves:   14669
 k-point 53 :   0.3333-0.1667 0.2500  plane waves:   14648
 k-point 54 :   0.5000-0.1667 0.2500  plane waves:   14623
 k-point 55 :  -0.3333-0.1667 0.2500  plane waves:   14622
 k-point 56 :  -0.1667-0.1667 0.2500  plane waves:   14647
 k-point 57 :   0.0000 0.0000 0.5000  plane waves:   14662
 k-point 58 :   0.1667-0.0000 0.5000  plane waves:   14702
 k-point 59 :   0.3333 0.0000 0.5000  plane waves:   14628
 k-point 60 :   0.5000 0.0000 0.5000  plane waves:   14640
 k-point 61 :  -0.0000 0.1667 0.5000  plane waves:   14702
 k-point 62 :   0.1667 0.1667 0.5000  plane waves:   14644
 k-point 63 :   0.3333 0.1667 0.5000  plane waves:   14630
 k-point 64 :   0.5000 0.1667 0.5000  plane waves:   14630
 k-point 65 :  -0.3333 0.1667 0.5000  plane waves:   14650
 k-point 66 :  -0.1667 0.1667 0.5000  plane waves:   14692
 k-point 67 :   0.0000 0.3333 0.5000  plane waves:   14628
 k-point 68 :   0.1667 0.3333 0.5000  plane waves:   14630
 k-point 69 :   0.3333 0.3333 0.5000  plane waves:   14620
 k-point 70 :   0.5000 0.3333 0.5000  plane waves:   14630
 k-point 71 :  -0.3333 0.3333 0.5000  plane waves:   14626
 k-point 72 :  -0.1667 0.3333 0.5000  plane waves:   14650
 k-point 73 :   0.0000 0.5000 0.5000  plane waves:   14640
 k-point 74 :   0.1667 0.5000 0.5000  plane waves:   14630
 k-point 75 :   0.3333 0.5000 0.5000  plane waves:   14630
 k-point 76 :   0.5000 0.5000 0.5000  plane waves:   14644

 maximum and minimum number of plane-waves per node :     14702    14608

 maximum number of plane-waves:     14702
 maximum index in each direction: 
   IXMAX=   11   IYMAX=   11   IZMAX=   31
   IXMIN=  -11   IYMIN=  -11   IZMIN=  -31

 NGX is ok and might be reduce to  46
 NGY is ok and might be reduce to  46
 NGZ is ok and might be reduce to 126

 serial   3D FFT for wavefunctions
 parallel 3D FFT for charge:
    minimum data exchange during FFTs selected (reduces bandwidth)


 total amount of memory used by VASP on root node   408477. kBytes
========================================================================

   base      :      30000. kBytes
   nonl-proj :      79059. kBytes
   fftplans  :      14247. kBytes
   grid      :      30326. kBytes
   one-center:         98. kBytes
   wavefun   :     254747. kBytes
 
     INWAV:  cpu time    0.00: real time    0.00
 Broyden mixing: mesh for mixing (old mesh)
   NGX = 23   NGY = 23   NGZ = 63
  (NGX  = 96   NGY  = 96   NGZ  =252)
  gives a total of  33327 points

 initial charge density was supplied:
 charge density of overlapping atoms calculated
 number of electron     128.0000000 magnetization 
 keeping initial charge density in first step


--------------------------------------------------------------------------------------------------------


 Maximum index for augmentation-charges         1972 (set IRDMAX)


--------------------------------------------------------------------------------------------------------


 First call to EWALD:  gamma=   0.269
 Maximum number of real-space cells 4x 4x 2
 Maximum number of reciprocal cells 2x 2x 5

 FEWALD executed in parallel
    FEWALD:  cpu time    0.03: real time    0.10


----------------------------------------- Iteration    1(   1)  ---------------------------------------


    POTLOK:  cpu time    1.17: real time    3.41
    SETDIJ:  cpu time    0.08: real time    0.19
     EDDAV:  cpu time  430.64: real time 1084.94
 BZINTS: Fermi energy: 17.213483;128.000000 electrons
         Band energy: 162.217927;  BLOECHL correction: -0.151571
       DOS:  cpu time    0.10: real time    0.26
    --------------------------------------------
      LOOP:  cpu time  432.00: real time 1088.82

 eigenvalue-minimisations  : 12768
 total energy-change (2. order) : 0.7100665E+03  (-0.8396208E+04)
 number of electron     128.0000000 magnetization 
 augmentation part      128.0000000 magnetization 

 Free energy of the ion-electron system (eV)
  ---------------------------------------------------
  alpha Z        PSCENC =       292.79115404
  Ewald energy   TEWEN  =     -3645.74705273
  -Hartree energ DENC   =     -1214.31336973
  -exchange      EXHF   =         0.00000000
  -V(xc)+E(xc)   XCENC  =       442.99167107
  PAW double counting   =      1210.60617908    -1247.42152856
  entropy T*S    EENTRO =         0.00000000
  eigenvalues    EBANDS =       162.21792727
  atomic energy  EATOM  =      4708.94155045
  ---------------------------------------------------
  free energy    TOTEN  =       710.06653088 eV

  energy without entropy =      710.06653088  energy(sigma->0) =      710.06653088


--------------------------------------------------------------------------------------------------------




----------------------------------------- Iteration    1(   2)  ---------------------------------------


     EDDAV:  cpu time  490.80: real time 1230.42
 BZINTS: Fermi energy:  3.894534;128.000000 electrons
         Band energy:-801.570130;  BLOECHL correction: -0.000463
       DOS:  cpu time    0.07: real time    0.13
    --------------------------------------------
      LOOP:  cpu time  490.89: real time 1230.59

 eigenvalue-minimisations  : 15840
 total energy-change (2. order) :-0.9637881E+03  (-0.9277949E+03)
 number of electron     128.0000000 magnetization 
 augmentation part      128.0000000 magnetization 

 Free energy of the ion-electron system (eV)
  ---------------------------------------------------
  alpha Z        PSCENC =       292.79115404
  Ewald energy   TEWEN  =     -3645.74705273
  -Hartree energ DENC   =     -1214.31336973
  -exchange      EXHF   =         0.00000000
  -V(xc)+E(xc)   XCENC  =       442.99167107
  PAW double counting   =      1210.60617908    -1247.42152856
  entropy T*S    EENTRO =         0.00000000
  eigenvalues    EBANDS =      -801.57012986
  atomic energy  EATOM  =      4708.94155045
  ---------------------------------------------------
  free energy    TOTEN  =      -253.72152625 eV

  energy without entropy =     -253.72152625  energy(sigma->0) =     -253.72152625


--------------------------------------------------------------------------------------------------------




----------------------------------------- Iteration    1(   3)  ---------------------------------------


     EDDAV:  cpu time  490.54: real time 1229.13
 BZINTS: Fermi energy:  3.116603;128.000000 electrons
         Band energy:-860.522974;  BLOECHL correction: -0.000201
       DOS:  cpu time    0.08: real time    0.24
    --------------------------------------------
      LOOP:  cpu time  490.64: real time 1229.46

 eigenvalue-minimisations  : 15492
 total energy-change (2. order) :-0.5895284E+02  (-0.5831001E+02)
 number of electron     128.0000000 magnetization 
 augmentation part      128.0000000 magnetization 

 Free energy of the ion-electron system (eV)
  ---------------------------------------------------
  alpha Z        PSCENC =       292.79115404
  Ewald energy   TEWEN  =     -3645.74705273
  -Hartree energ DENC   =     -1214.31336973
  -exchange      EXHF   =         0.00000000
  -V(xc)+E(xc)   XCENC  =       442.99167107
  PAW double counting   =      1210.60617908    -1247.42152856
  entropy T*S    EENTRO =         0.00000000
  eigenvalues    EBANDS =      -860.52297396
  atomic energy  EATOM  =      4708.94155045
  ---------------------------------------------------
  free energy    TOTEN  =      -312.67437034 eV

  energy without entropy =     -312.67437034  energy(sigma->0) =     -312.67437034


--------------------------------------------------------------------------------------------------------




----------------------------------------- Iteration    1(   4)  ---------------------------------------


     EDDAV:  cpu time  493.73: real time 1232.49
 BZINTS: Fermi energy:  3.095616;128.000000 electrons
         Band energy:-861.691577;  BLOECHL correction:  0.000000
       DOS:  cpu time    0.05: real time    0.11
    --------------------------------------------
      LOOP:  cpu time  493.79: real time 1232.66

 eigenvalue-minimisations  : 15924
 total energy-change (2. order) :-0.1168603E+01  (-0.1166351E+01)
 number of electron     128.0000000 magnetization 
 augmentation part      128.0000000 magnetization 

 Free energy of the ion-electron system (eV)
  ---------------------------------------------------
  alpha Z        PSCENC =       292.79115404
  Ewald energy   TEWEN  =     -3645.74705273
  -Hartree energ DENC   =     -1214.31336973
  -exchange      EXHF   =         0.00000000
  -V(xc)+E(xc)   XCENC  =       442.99167107
  PAW double counting   =      1210.60617908    -1247.42152856
  entropy T*S    EENTRO =         0.00000000
  eigenvalues    EBANDS =      -861.69157687
  atomic energy  EATOM  =      4708.94155045
  ---------------------------------------------------
  free energy    TOTEN  =      -313.84297326 eV

  energy without entropy =     -313.84297326  energy(sigma->0) =     -313.84297326


--------------------------------------------------------------------------------------------------------




----------------------------------------- Iteration    1(   5)  ---------------------------------------


     EDDAV:  cpu time  500.96: real time 1258.05
 BZINTS: Fermi energy:  3.095346;128.000000 electrons
         Band energy:-861.726785;  BLOECHL correction:  0.000000
       DOS:  cpu time    0.03: real time    0.08
    CHARGE:  cpu time    6.19: real time   15.17
    MIXING:  cpu time    0.08: real time    0.22
    --------------------------------------------
      LOOP:  cpu time  507.27: real time 1273.56

 eigenvalue-minimisations  : 16440
 total energy-change (2. order) :-0.3520828E-01  (-0.3519604E-01)
 number of electron     127.9999988 magnetization 
 augmentation part        3.3926464 magnetization 

 Broyden mixing:
  rms(total) = 0.22086E+01    rms(broyden)= 0.22086E+01
  rms(prec ) = 0.26043E+01
  weight for this iteration     100.00

 Free energy of the ion-electron system (eV)
  ---------------------------------------------------
  alpha Z        PSCENC =       292.79115404
  Ewald energy   TEWEN  =     -3645.74705273
  -Hartree energ DENC   =     -1214.31336973
  -exchange      EXHF   =         0.00000000
  -V(xc)+E(xc)   XCENC  =       442.99167107
  PAW double counting   =      1210.60617908    -1247.42152856
  entropy T*S    EENTRO =         0.00000000
  eigenvalues    EBANDS =      -861.72678515
  atomic energy  EATOM  =      4708.94155045
  ---------------------------------------------------
  free energy    TOTEN  =      -313.87818154 eV

  energy without entropy =     -313.87818154  energy(sigma->0) =     -313.87818154


--------------------------------------------------------------------------------------------------------




----------------------------------------- Iteration    1(   6)  ---------------------------------------


    POTLOK:  cpu time    1.21: real time    3.03
    SETDIJ:  cpu time    0.08: real time    0.19
     EDDAV:  cpu time  470.97: real time 1174.31
 BZINTS: Fermi energy:  3.859343;128.000000 electrons
         Band energy:-720.872463;  BLOECHL correction: -0.000000
       DOS:  cpu time    0.04: real time    0.11
    CHARGE:  cpu time    5.97: real time   15.72
    MIXING:  cpu time    0.11: real time    0.32
    --------------------------------------------
      LOOP:  cpu time  478.39: real time 1193.73

 eigenvalue-minimisations  : 14592
 total energy-change (2. order) : 0.1446175E+02  (-0.1490154E+01)
 number of electron     127.9999988 magnetization 
 augmentation part        3.2367934 magnetization 

 Broyden mixing:
  rms(total) = 0.11588E+01    rms(broyden)= 0.11588E+01
  rms(prec ) = 0.13573E+01
  weight for this iteration     100.00

 eigenvalues of (default mixing * dielectric matrix)
  average eigenvalue GAMMA=   2.0344
  2.0344

 Free energy of the ion-electron system (eV)
  ---------------------------------------------------
  alpha Z        PSCENC =       292.79115404
  Ewald energy   TEWEN  =     -3645.74705273
  -Hartree energ DENC   =     -1346.20444645
  -exchange      EXHF   =         0.00000000
  -V(xc)+E(xc)   XCENC  =       451.37333842
  PAW double counting   =      1641.98176093    -1681.68027233
  entropy T*S    EENTRO =         0.00000000
  eigenvalues    EBANDS =      -720.87246343
  atomic energy  EATOM  =      4708.94155045
  ---------------------------------------------------
  free energy    TOTEN  =      -299.41643111 eV

  energy without entropy =     -299.41643111  energy(sigma->0) =     -299.41643111


--------------------------------------------------------------------------------------------------------




----------------------------------------- Iteration    1(   7)  ---------------------------------------


    POTLOK:  cpu time    1.24: real time    3.13
    SETDIJ:  cpu time    0.12: real time    0.30
     EDDAV:  cpu time  467.21: real time 1169.64
 BZINTS: Fermi energy:  4.612894;128.000000 electrons
         Band energy:-576.909972;  BLOECHL correction:  0.000000
       DOS:  cpu time    0.05: real time    0.11
    CHARGE:  cpu time    6.26: real time   15.21
    MIXING:  cpu time    0.09: real time    0.25
    --------------------------------------------
      LOOP:  cpu time  474.98: real time 1188.68

 eigenvalue-minimisations  : 14484
 total energy-change (2. order) : 0.4592893E+01  (-0.1576113E+01)
 number of electron     127.9999989 magnetization 
 augmentation part        3.0710383 magnetization 

 Broyden mixing:
  rms(total) = 0.19545E+00    rms(broyden)= 0.19543E+00
  rms(prec ) = 0.21285E+00
  weight for this iteration     100.00

 eigenvalues of (default mixing * dielectric matrix)
  average eigenvalue GAMMA=   2.0967
  2.0967  2.0967

 Free energy of the ion-electron system (eV)
  ---------------------------------------------------
  alpha Z        PSCENC =       292.79115404
  Ewald energy   TEWEN  =     -3645.74705273
  -Hartree energ DENC   =     -1492.78771419
  -exchange      EXHF   =         0.00000000
  -V(xc)+E(xc)   XCENC  =       460.92556560
  PAW double counting   =      2180.76465911    -2222.80172804
  entropy T*S    EENTRO =         0.00000000
  eigenvalues    EBANDS =      -576.90997210
  atomic energy  EATOM  =      4708.94155045
  ---------------------------------------------------
  free energy    TOTEN  =      -294.82353787 eV

  energy without entropy =     -294.82353787  energy(sigma->0) =     -294.82353787


--------------------------------------------------------------------------------------------------------




----------------------------------------- Iteration    1(   8)  ---------------------------------------


    POTLOK:  cpu time    1.25: real time    3.36
    SETDIJ:  cpu time    0.07: real time    0.23
     EDDAV:  cpu time  471.30: real time 1185.41
 BZINTS: Fermi energy:  4.584325;128.000000 electrons
         Band energy:-579.252794;  BLOECHL correction:  0.000000
       DOS:  cpu time    0.04: real time    0.13
    CHARGE:  cpu time    6.02: real time   15.63
    MIXING:  cpu time    0.15: real time    0.34
    --------------------------------------------
      LOOP:  cpu time  478.85: real time 1205.14

 eigenvalue-minimisations  : 14892
 total energy-change (2. order) :-0.6454847E-01  (-0.5900079E-01)
 number of electron     127.9999989 magnetization 
 augmentation part        3.0641499 magnetization 

 Broyden mixing:
  rms(total) = 0.69572E-01    rms(broyden)= 0.69570E-01
  rms(prec ) = 0.10214E+00
  weight for this iteration     100.00

 eigenvalues of (default mixing * dielectric matrix)
  average eigenvalue GAMMA=   1.6715
  2.3708  2.0389  0.6050

 Free energy of the ion-electron system (eV)
  ---------------------------------------------------
  alpha Z        PSCENC =       292.79115404
  Ewald energy   TEWEN  =     -3645.74705273
  -Hartree energ DENC   =     -1491.06007061
  -exchange      EXHF   =         0.00000000
  -V(xc)+E(xc)   XCENC  =       460.83133532
  PAW double counting   =      2206.42096204    -2247.81317085
  entropy T*S    EENTRO =         0.00000000
  eigenvalues    EBANDS =      -579.25279399
  atomic energy  EATOM  =      4708.94155045
  ---------------------------------------------------
  free energy    TOTEN  =      -294.88808633 eV

  energy without entropy =     -294.88808633  energy(sigma->0) =     -294.88808633


--------------------------------------------------------------------------------------------------------




----------------------------------------- Iteration    1(   9)  ---------------------------------------


    POTLOK:  cpu time    1.31: real time    3.23
    SETDIJ:  cpu time    0.10: real time    0.25
     EDDAV:  cpu time  468.80: real time 1171.17
 BZINTS: Fermi energy:  4.591086;128.000000 electrons
         Band energy:-578.444063;  BLOECHL correction:  0.000000
       DOS:  cpu time    0.04: real time    0.10
    CHARGE:  cpu time    6.26: real time   15.71
    MIXING:  cpu time    0.07: real time    0.18
    --------------------------------------------
      LOOP:  cpu time  476.59: real time 1190.66

 eigenvalue-minimisations  : 14748
 total energy-change (2. order) :-0.4098573E-02  (-0.1296215E-01)
 number of electron     127.9999989 magnetization 
 augmentation part        3.0624776 magnetization 

 Broyden mixing:
  rms(total) = 0.46125E-01    rms(broyden)= 0.46124E-01
  rms(prec ) = 0.69506E-01
  weight for this iteration     100.00

 eigenvalues of (default mixing * dielectric matrix)
  average eigenvalue GAMMA=   1.3535
  2.3985  2.0303  0.4926  0.4926

 Free energy of the ion-electron system (eV)
  ---------------------------------------------------
  alpha Z        PSCENC =       292.79115404
  Ewald energy   TEWEN  =     -3645.74705273
  -Hartree energ DENC   =     -1492.11885183
  -exchange      EXHF   =         0.00000000
  -V(xc)+E(xc)   XCENC  =       460.91483965
  PAW double counting   =      2218.23707168    -2259.46683300
  entropy T*S    EENTRO =         0.00000000
  eigenvalues    EBANDS =      -578.44406317
  atomic energy  EATOM  =      4708.94155045
  ---------------------------------------------------
  free energy    TOTEN  =      -294.89218491 eV

  energy without entropy =     -294.89218491  energy(sigma->0) =     -294.89218491


--------------------------------------------------------------------------------------------------------




----------------------------------------- Iteration    1(  10)  ---------------------------------------


    POTLOK:  cpu time    1.21: real time    3.05
    SETDIJ:  cpu time    0.04: real time    0.08
     EDDAV:  cpu time  467.42: real time 1171.60
 BZINTS: Fermi energy:  4.591291;128.000000 electrons
         Band energy:-578.039033;  BLOECHL correction:  0.000000
       DOS:  cpu time    0.03: real time    0.11
    CHARGE:  cpu time    6.20: real time   16.06
    MIXING:  cpu time    0.13: real time    0.35
    --------------------------------------------
      LOOP:  cpu time  475.02: real time 1191.28

 eigenvalue-minimisations  : 15084
 total energy-change (2. order) : 0.6483809E-02  (-0.9638513E-03)
 number of electron     127.9999989 magnetization 
 augmentation part        3.0618517 magnetization 

 Broyden mixing:
  rms(total) = 0.29639E-01    rms(broyden)= 0.29639E-01
  rms(prec ) = 0.46336E-01
  weight for this iteration     100.00

 eigenvalues of (default mixing * dielectric matrix)
  average eigenvalue GAMMA=   1.3498
  2.4371  2.0038  0.8476  0.8476  0.6127

 Free energy of the ion-electron system (eV)
  ---------------------------------------------------
  alpha Z        PSCENC =       292.79115404
  Ewald energy   TEWEN  =     -3645.74705273
  -Hartree energ DENC   =     -1492.55942697
  -exchange      EXHF   =         0.00000000
  -V(xc)+E(xc)   XCENC  =       460.94658222
  PAW double counting   =      2219.99424130    -2261.21371626
  entropy T*S    EENTRO =         0.00000000
  eigenvalues    EBANDS =      -578.03903314
  atomic energy  EATOM  =      4708.94155045
  ---------------------------------------------------
  free energy    TOTEN  =      -294.88570110 eV

  energy without entropy =     -294.88570110  energy(sigma->0) =     -294.88570110


--------------------------------------------------------------------------------------------------------




----------------------------------------- Iteration    1(  11)  ---------------------------------------


    POTLOK:  cpu time    1.09: real time    2.95
    SETDIJ:  cpu time    0.11: real time    0.27
     EDDAV:  cpu time  584.87: real time 1457.22
 BZINTS: Fermi energy:  4.596561;128.000000 electrons
         Band energy:-577.242808;  BLOECHL correction: -0.000000
       DOS:  cpu time    0.05: real time    0.11
    CHARGE:  cpu time    5.98: real time   14.05
    MIXING:  cpu time    0.11: real time    0.28
    --------------------------------------------
      LOOP:  cpu time  592.22: real time 1474.94

 eigenvalue-minimisations  : 20652
 total energy-change (2. order) :-0.1258159E-02  (-0.7006773E-02)
 number of electron     127.9999989 magnetization 
 augmentation part        3.0611465 magnetization 

 Broyden mixing:
  rms(total) = 0.34439E-01    rms(broyden)= 0.34437E-01
  rms(prec ) = 0.53487E-01
  weight for this iteration     100.00

 eigenvalues of (default mixing * dielectric matrix)
  average eigenvalue GAMMA=   1.2652
  2.5471  1.9331  1.3563  0.5870  0.5838  0.5838

 Free energy of the ion-electron system (eV)
  ---------------------------------------------------
  alpha Z        PSCENC =       292.79115404
  Ewald energy   TEWEN  =     -3645.74705273
  -Hartree energ DENC   =     -1493.41316810
  -exchange      EXHF   =         0.00000000
  -V(xc)+E(xc)   XCENC  =       461.00658679
  PAW double counting   =      2221.80947107    -2263.03269289
  entropy T*S    EENTRO =         0.00000000
  eigenvalues    EBANDS =      -577.24280788
  atomic energy  EATOM  =      4708.94155045
  ---------------------------------------------------
  free energy    TOTEN  =      -294.88695926 eV

  energy without entropy =     -294.88695926  energy(sigma->0) =     -294.88695926


--------------------------------------------------------------------------------------------------------




----------------------------------------- Iteration    1(  12)  ---------------------------------------


    POTLOK:  cpu time    1.17: real time    2.97
    SETDIJ:  cpu time    0.07: real time    0.17
     EDDAV:  cpu time  483.82: real time 1219.80
 BZINTS: Fermi energy:  4.596955;128.000000 electrons
         Band energy:-576.634941;  BLOECHL correction:  0.000000
       DOS:  cpu time    0.04: real time    0.08
    CHARGE:  cpu time    6.25: real time   16.28
    MIXING:  cpu time    0.16: real time    0.43
    --------------------------------------------
      LOOP:  cpu time  491.52: real time 1239.77

 eigenvalue-minimisations  : 15864
 total energy-change (2. order) : 0.1789988E-02  (-0.2803913E-02)
 number of electron     127.9999989 magnetization 
 augmentation part        3.0606582 magnetization 

 Broyden mixing:
  rms(total) = 0.86283E-02    rms(broyden)= 0.86266E-02
  rms(prec ) = 0.14012E-01
  weight for this iteration     100.00

 eigenvalues of (default mixing * dielectric matrix)
  average eigenvalue GAMMA=   1.2232
  2.5635  1.9093  1.7084  0.6210  0.6210  0.5695  0.5695

 Free energy of the ion-electron system (eV)
  ---------------------------------------------------
  alpha Z        PSCENC =       292.79115404
  Ewald energy   TEWEN  =     -3645.74705273
  -Hartree energ DENC   =     -1494.06561222
  -exchange      EXHF   =         0.00000000
  -V(xc)+E(xc)   XCENC  =       461.05259175
  PAW double counting   =      2223.68357382    -2264.90643336
  entropy T*S    EENTRO =         0.00000000
  eigenvalues    EBANDS =      -576.63494102
  atomic energy  EATOM  =      4708.94155045
  ---------------------------------------------------
  free energy    TOTEN  =      -294.88516927 eV

  energy without entropy =     -294.88516927  energy(sigma->0) =     -294.88516927


--------------------------------------------------------------------------------------------------------




----------------------------------------- Iteration    1(  13)  ---------------------------------------


    POTLOK:  cpu time    1.11: real time    3.07
    SETDIJ:  cpu time    0.05: real time    0.13
     EDDAV:  cpu time  468.08: real time 1166.33
 BZINTS: Fermi energy:  4.599086;128.000000 electrons
         Band energy:-576.499349;  BLOECHL correction:  0.000000
       DOS:  cpu time    0.04: real time    0.12
    CHARGE:  cpu time    6.22: real time   15.61
    MIXING:  cpu time    0.07: real time    0.24
    --------------------------------------------
      LOOP:  cpu time  475.59: real time 1185.55

 eigenvalue-minimisations  : 14712
 total energy-change (2. order) :-0.3641392E-03  (-0.6165837E-03)
 number of electron     127.9999989 magnetization 
 augmentation part        3.0604148 magnetization 

 Broyden mixing:
  rms(total) = 0.11139E-01    rms(broyden)= 0.11139E-01
  rms(prec ) = 0.20121E-01
  weight for this iteration     100.00

 eigenvalues of (default mixing * dielectric matrix)
  average eigenvalue GAMMA=   1.2038
  2.7126  2.1772  2.0054  0.5763  0.5763  0.7586  0.6157  0.2080

 Free energy of the ion-electron system (eV)
  ---------------------------------------------------
  alpha Z        PSCENC =       292.79115404
  Ewald energy   TEWEN  =     -3645.74705273
  -Hartree energ DENC   =     -1494.21298835
  -exchange      EXHF   =         0.00000000
  -V(xc)+E(xc)   XCENC  =       461.06350191
  PAW double counting   =      2223.51919746    -2264.74154742
  entropy T*S    EENTRO =         0.00000000
  eigenvalues    EBANDS =      -576.49934878
  atomic energy  EATOM  =      4708.94155045
  ---------------------------------------------------
  free energy    TOTEN  =      -294.88553341 eV

  energy without entropy =     -294.88553341  energy(sigma->0) =     -294.88553341


--------------------------------------------------------------------------------------------------------




----------------------------------------- Iteration    1(  14)  ---------------------------------------


    POTLOK:  cpu time    1.27: real time    3.24
    SETDIJ:  cpu time    0.06: real time    0.19
     EDDAV:  cpu time  466.13: real time 1170.90
 BZINTS: Fermi energy:  4.600669;128.000000 electrons
         Band energy:-576.242555;  BLOECHL correction:  0.000000
       DOS:  cpu time    0.05: real time    0.15
    CHARGE:  cpu time    6.40: real time   15.20
    MIXING:  cpu time    0.12: real time    0.36
    --------------------------------------------
      LOOP:  cpu time  474.03: real time 1190.06

 eigenvalue-minimisations  : 14676
 total energy-change (2. order) : 0.3319653E-04  (-0.1478932E-03)
 number of electron     127.9999989 magnetization 
 augmentation part        3.0602655 magnetization 

 Broyden mixing:
  rms(total) = 0.41233E-02    rms(broyden)= 0.41231E-02
  rms(prec ) = 0.67902E-02
  weight for this iteration     100.00

 eigenvalues of (default mixing * dielectric matrix)
  average eigenvalue GAMMA=   1.1985
  2.8662  2.3186  1.9799  0.8402  0.8402  0.6014  0.6014  0.5317  0.2065

 Free energy of the ion-electron system (eV)
  ---------------------------------------------------
  alpha Z        PSCENC =       292.79115404
  Ewald energy   TEWEN  =     -3645.74705273
  -Hartree energ DENC   =     -1494.49351606
  -exchange      EXHF   =         0.00000000
  -V(xc)+E(xc)   XCENC  =       461.08450427
  PAW double counting   =      2223.26966956    -2264.48925436
  entropy T*S    EENTRO =         0.00000000
  eigenvalues    EBANDS =      -576.24255538
  atomic energy  EATOM  =      4708.94155045
  ---------------------------------------------------
  free energy    TOTEN  =      -294.88550021 eV

  energy without entropy =     -294.88550021  energy(sigma->0) =     -294.88550021


--------------------------------------------------------------------------------------------------------




----------------------------------------- Iteration    1(  15)  ---------------------------------------


    POTLOK:  cpu time    1.17: real time    3.32
    SETDIJ:  cpu time    0.04: real time    0.14
     EDDAV:  cpu time  491.80: real time 1233.65
 BZINTS: Fermi energy:  4.601253;128.000000 electrons
         Band energy:-576.175715;  BLOECHL correction: -0.000000
       DOS:  cpu time    0.04: real time    0.11
    CHARGE:  cpu time    6.46: real time   16.21
    MIXING:  cpu time    0.13: real time    0.38
    --------------------------------------------
      LOOP:  cpu time  499.67: real time 1253.87

 eigenvalue-minimisations  : 16440
 total energy-change (2. order) :-0.2623364E-03  (-0.2379867E-03)
 number of electron     127.9999989 magnetization 
 augmentation part        3.0602531 magnetization 

 Broyden mixing:
  rms(total) = 0.10743E-01    rms(broyden)= 0.10743E-01
  rms(prec ) = 0.20261E-01
  weight for this iteration     100.00

 eigenvalues of (default mixing * dielectric matrix)
  average eigenvalue GAMMA=   1.1395
  2.8827  2.4218  1.9545  0.8199  0.7237  0.7237  0.5847  0.5847  0.4984  0.2011

 Free energy of the ion-electron system (eV)
  ---------------------------------------------------
  alpha Z        PSCENC =       292.79115404
  Ewald energy   TEWEN  =     -3645.74705273
  -Hartree energ DENC   =     -1494.56715851
  -exchange      EXHF   =         0.00000000
  -V(xc)+E(xc)   XCENC  =       461.08995642
  PAW double counting   =      2223.08138944    -2264.29988617
  entropy T*S    EENTRO =         0.00000000
  eigenvalues    EBANDS =      -576.17571549
  atomic energy  EATOM  =      4708.94155045
  ---------------------------------------------------
  free energy    TOTEN  =      -294.88576255 eV

  energy without entropy =     -294.88576255  energy(sigma->0) =     -294.88576255


--------------------------------------------------------------------------------------------------------




----------------------------------------- Iteration    1(  16)  ---------------------------------------


    POTLOK:  cpu time    1.13: real time    3.14
    SETDIJ:  cpu time    0.08: real time    0.23
     EDDAV:  cpu time  519.75: real time 1304.09
 BZINTS: Fermi energy:  4.601324;128.000000 electrons
         Band energy:-576.185483;  BLOECHL correction:  0.000000
       DOS:  cpu time    0.04: real time    0.09
    CHARGE:  cpu time    5.94: real time   15.27
    MIXING:  cpu time    0.24: real time    0.49
    --------------------------------------------
      LOOP:  cpu time  527.19: real time 1323.35

 eigenvalue-minimisations  : 17628
 total energy-change (2. order) :-0.7673136E-04  (-0.2334833E-03)
 number of electron     127.9999989 magnetization 
 augmentation part        3.0602342 magnetization 

 Broyden mixing:
  rms(total) = 0.10912E-01    rms(broyden)= 0.10912E-01
  rms(prec ) = 0.18916E-01
  weight for this iteration     100.00

 eigenvalues of (default mixing * dielectric matrix)
  average eigenvalue GAMMA=   1.1336
  2.8839  2.4865  1.8687  1.2338  1.0321  0.5867  0.5867  0.6524  0.6524  0.2814
  0.2048

 Free energy of the ion-electron system (eV)
  ---------------------------------------------------
  alpha Z        PSCENC =       292.79115404
  Ewald energy   TEWEN  =     -3645.74705273
  -Hartree energ DENC   =     -1494.55700409
  -exchange      EXHF   =         0.00000000
  -V(xc)+E(xc)   XCENC  =       461.08931368
  PAW double counting   =      2222.90470633    -2264.12302361
  entropy T*S    EENTRO =         0.00000000
  eigenvalues    EBANDS =      -576.18548335
  atomic energy  EATOM  =      4708.94155045
  ---------------------------------------------------
  free energy    TOTEN  =      -294.88583928 eV

  energy without entropy =     -294.88583928  energy(sigma->0) =     -294.88583928


--------------------------------------------------------------------------------------------------------




----------------------------------------- Iteration    1(  17)  ---------------------------------------


    POTLOK:  cpu time    1.39: real time    3.20
    SETDIJ:  cpu time    0.08: real time    0.20
     EDDAV:  cpu time  587.76: real time 1472.56
 BZINTS: Fermi energy:  4.601163;128.000000 electrons
         Band energy:-576.230015;  BLOECHL correction:  0.000000
       DOS:  cpu time    0.05: real time    0.09
    CHARGE:  cpu time    5.93: real time   15.51
    MIXING:  cpu time    0.19: real time    0.42
    --------------------------------------------
      LOOP:  cpu time  595.41: real time 1492.04

 eigenvalue-minimisations  : 21336
 total energy-change (2. order) : 0.2568953E-03  (-0.2486875E-03)
 number of electron     127.9999989 magnetization 
 augmentation part        3.0602725 magnetization 

 Broyden mixing:
  rms(total) = 0.64856E-02    rms(broyden)= 0.64852E-02
  rms(prec ) = 0.11927E-01
  weight for this iteration     100.00

 eigenvalues of (default mixing * dielectric matrix)
  average eigenvalue GAMMA=   1.0405
  2.8760  2.5004  1.8806  1.1653  0.8915  0.5906  0.5906  0.6222  0.4381  0.4381
  0.2911  0.2017

 Free energy of the ion-electron system (eV)
  ---------------------------------------------------
  alpha Z        PSCENC =       292.79115404
  Ewald energy   TEWEN  =     -3645.74705273
  -Hartree energ DENC   =     -1494.51084666
  -exchange      EXHF   =         0.00000000
  -V(xc)+E(xc)   XCENC  =       461.08606361
  PAW double counting   =      2222.67721480    -2263.89365094
  entropy T*S    EENTRO =         0.00000000
  eigenvalues    EBANDS =      -576.23001497
  atomic energy  EATOM  =      4708.94155045
  ---------------------------------------------------
  free energy    TOTEN  =      -294.88558238 eV

  energy without entropy =     -294.88558238  energy(sigma->0) =     -294.88558238


--------------------------------------------------------------------------------------------------------




----------------------------------------- Iteration    1(  18)  ---------------------------------------


    POTLOK:  cpu time    1.20: real time    3.58
    SETDIJ:  cpu time    0.03: real time    0.08
     EDDAV:  cpu time  462.37: real time 1154.91
 BZINTS: Fermi energy:  4.601045;128.000000 electrons
         Band energy:-576.230139;  BLOECHL correction:  0.000000
       DOS:  cpu time    0.05: real time    0.11
    CHARGE:  cpu time    6.52: real time   15.26
    MIXING:  cpu time    0.19: real time    0.44
    --------------------------------------------
      LOOP:  cpu time  470.36: real time 1174.41

 eigenvalue-minimisations  : 14544
 total energy-change (2. order) : 0.2729560E-04  (-0.1860461E-04)
 number of electron     127.9999989 magnetization 
 augmentation part        3.0602941 magnetization 

 Broyden mixing:
  rms(total) = 0.44753E-02    rms(broyden)= 0.44752E-02
  rms(prec ) = 0.78015E-02
  weight for this iteration     100.00

 eigenvalues of (default mixing * dielectric matrix)
  average eigenvalue GAMMA=   1.0233
  2.8884  2.4945  1.8854  1.0877  0.8261  0.8261  0.6092  0.5823  0.5823  0.5131
  0.5131  0.2919  0.2022

 Free energy of the ion-electron system (eV)
  ---------------------------------------------------
  alpha Z        PSCENC =       292.79115404
  Ewald energy   TEWEN  =     -3645.74705273
  -Hartree energ DENC   =     -1494.51068807
  -exchange      EXHF   =         0.00000000
  -V(xc)+E(xc)   XCENC  =       461.08610839
  PAW double counting   =      2222.68005329    -2263.89654132
  entropy T*S    EENTRO =         0.00000000
  eigenvalues    EBANDS =      -576.23013915
  atomic energy  EATOM  =      4708.94155045
  ---------------------------------------------------
  free energy    TOTEN  =      -294.88555509 eV

  energy without entropy =     -294.88555509  energy(sigma->0) =     -294.88555509


--------------------------------------------------------------------------------------------------------




----------------------------------------- Iteration    1(  19)  ---------------------------------------


    POTLOK:  cpu time    1.30: real time    3.20
    SETDIJ:  cpu time    0.05: real time    0.11
     EDDAV:  cpu time  481.48: real time 1211.20
 BZINTS: Fermi energy:  4.601021;128.000000 electrons
         Band energy:-576.223596;  BLOECHL correction:  0.000000
       DOS:  cpu time    0.04: real time    0.10
    CHARGE:  cpu time    6.84: real time   16.23
    MIXING:  cpu time    0.18: real time    0.55
    --------------------------------------------
      LOOP:  cpu time  489.91: real time 1231.41

 eigenvalue-minimisations  : 15588
 total energy-change (2. order) : 0.1489477E-04  (-0.5495108E-05)
 number of electron     127.9999989 magnetization 
 augmentation part        3.0602883 magnetization 

 Broyden mixing:
  rms(total) = 0.35067E-02    rms(broyden)= 0.35067E-02
  rms(prec ) = 0.64148E-02
  weight for this iteration     100.00

 eigenvalues of (default mixing * dielectric matrix)
  average eigenvalue GAMMA=   1.0264
  2.8947  2.4933  1.8812  1.2105  0.6529  0.6529  0.8975  0.5842  0.5842  0.6864
  0.6864  0.6444  0.2996  0.2020

 Free energy of the ion-electron system (eV)
  ---------------------------------------------------
  alpha Z        PSCENC =       292.79115404
  Ewald energy   TEWEN  =     -3645.74705273
  -Hartree energ DENC   =     -1494.51754514
  -exchange      EXHF   =         0.00000000
  -V(xc)+E(xc)   XCENC  =       461.08653735
  PAW double counting   =      2222.68273187    -2263.89931960
  entropy T*S    EENTRO =         0.00000000
  eigenvalues    EBANDS =      -576.22359644
  atomic energy  EATOM  =      4708.94155045
  ---------------------------------------------------
  free energy    TOTEN  =      -294.88554019 eV

  energy without entropy =     -294.88554019  energy(sigma->0) =     -294.88554019


--------------------------------------------------------------------------------------------------------




----------------------------------------- Iteration    1(  20)  ---------------------------------------


    POTLOK:  cpu time    1.53: real time    3.26
    SETDIJ:  cpu time    0.11: real time    0.23
     EDDAV:  cpu time  534.03: real time 1336.10
 BZINTS: Fermi energy:  4.601037;128.000000 electrons
         Band energy:-576.214945;  BLOECHL correction: -0.000000
       DOS:  cpu time    0.06: real time    0.11
    CHARGE:  cpu time    7.02: real time   15.49
    MIXING:  cpu time    0.11: real time    0.33
    --------------------------------------------
      LOOP:  cpu time  542.88: real time 1355.56

 eigenvalue-minimisations  : 18228
 total energy-change (2. order) : 0.1391194E-04  (-0.9558133E-05)
 number of electron     127.9999989 magnetization 
 augmentation part        3.0602831 magnetization 

 Broyden mixing:
  rms(total) = 0.83418E-03    rms(broyden)= 0.83401E-03
  rms(prec ) = 0.15364E-02
  weight for this iteration     100.00

 eigenvalues of (default mixing * dielectric matrix)
  average eigenvalue GAMMA=   1.0896
  2.9523  2.5189  1.9889  1.9889  0.6810  0.6810  0.9242  0.9242  0.5825  0.5825
  0.6657  0.6757  0.6757  0.3006  0.2020

 Free energy of the ion-electron system (eV)
  ---------------------------------------------------
  alpha Z        PSCENC =       292.79115404
  Ewald energy   TEWEN  =     -3645.74705273
  -Hartree energ DENC   =     -1494.52657092
  -exchange      EXHF   =         0.00000000
  -V(xc)+E(xc)   XCENC  =       461.08707006
  PAW double counting   =      2222.68355364    -2263.90028577
  entropy T*S    EENTRO =         0.00000000
  eigenvalues    EBANDS =      -576.21494505
  atomic energy  EATOM  =      4708.94155045
  ---------------------------------------------------
  free energy    TOTEN  =      -294.88552628 eV

  energy without entropy =     -294.88552628  energy(sigma->0) =     -294.88552628


--------------------------------------------------------------------------------------------------------




----------------------------------------- Iteration    1(  21)  ---------------------------------------


    POTLOK:  cpu time    1.28: real time    3.40
    SETDIJ:  cpu time    0.07: real time    0.19
     EDDAV:  cpu time  469.71: real time 1179.32
 BZINTS: Fermi energy:  4.601047;128.000000 electrons
         Band energy:-576.208412;  BLOECHL correction: -0.000000
       DOS:  cpu time    0.04: real time    0.11
    CHARGE:  cpu time    6.00: real time   14.89
    MIXING:  cpu time    0.21: real time    0.48
    --------------------------------------------
      LOOP:  cpu time  477.31: real time 1198.41

 eigenvalue-minimisations  : 14988
 total energy-change (2. order) :-0.5475678E-05  (-0.3796841E-05)
 number of electron     127.9999989 magnetization 
 augmentation part        3.0602821 magnetization 

 Broyden mixing:
  rms(total) = 0.22440E-02    rms(broyden)= 0.22440E-02
  rms(prec ) = 0.41133E-02
  weight for this iteration     100.00

 eigenvalues of (default mixing * dielectric matrix)
  average eigenvalue GAMMA=   1.1204
  3.1072  2.6286  2.3425  1.9117  0.6585  0.6585  1.0644  1.0644  0.9044  0.5825
  0.5825  0.7016  0.6079  0.6079  0.3011  0.2021

 Free energy of the ion-electron system (eV)
  ---------------------------------------------------
  alpha Z        PSCENC =       292.79115404
  Ewald energy   TEWEN  =     -3645.74705273
  -Hartree energ DENC   =     -1494.53337633
  -exchange      EXHF   =         0.00000000
  -V(xc)+E(xc)   XCENC  =       461.08739075
[...]
     79      12.0926      0.00000
     80      12.0965      0.00000
     81      12.5435      0.00000
     82      12.5454      0.00000
     83      12.8312      0.00000
     84      12.8329      0.00000

 k-point    75 :       0.3333    0.5000    0.5000
  band No.  band energies     occupation 
      1     -13.8305      2.00000
      2     -13.8302      2.00000
      3     -13.6453      2.00000
      4     -13.6450      2.00000
      5     -12.8600      2.00000
      6     -12.8598      2.00000
      7     -12.6865      2.00000
      8     -12.6862      2.00000
      9     -11.9010      2.00000
     10     -11.9008      2.00000
     11     -11.7390      2.00000
     12     -11.7388      2.00000
     13      -9.2256      2.00000
     14      -9.2250      2.00000
     15      -9.1061      2.00000
     16      -9.1055      2.00000
     17      -7.3538      2.00000
     18      -7.3513      2.00000
     19      -7.2735      2.00000
     20      -7.2712      2.00000
     21      -5.0492      2.00000
     22      -5.0469      2.00000
     23      -4.9865      2.00000
     24      -4.9840      2.00000
     25      -4.8852      2.00000
     26      -4.8839      2.00000
     27      -4.8169      2.00000
     28      -4.8155      2.00000
     29      -3.9070      2.00000
     30      -3.9050      2.00000
     31      -3.8341      2.00000
     32      -3.8320      2.00000
     33      -2.8493      2.00000
     34      -2.8476      2.00000
     35      -2.8021      2.00000
     36      -2.8003      2.00000
     37      -2.2479      2.00000
     38      -2.2469      2.00000
     39      -1.8180      2.00000
     40      -1.8144      2.00000
     41      -1.7723      2.00000
     42      -1.7679      2.00000
     43      -1.3022      2.00000
     44      -1.2997      2.00000
     45      -1.2632      2.00000
     46      -1.2609      2.00000
     47      -1.1042      2.00000
     48      -1.1031      2.00000
     49      -0.9943      2.00000
     50      -0.9930      2.00000
     51      -0.4157      2.00000
     52      -0.4108      2.00000
     53      -0.3854      2.00000
     54      -0.3817      2.00000
     55       0.0085      2.00000
     56       0.0097      2.00000
     57       0.0786      2.00000
     58       0.0798      2.00000
     59       1.1106      2.00000
     60       1.1119      2.00000
     61       2.9059      2.00000
     62       2.9082      2.00000
     63       3.5961      2.00000
     64       3.5989      2.00000
     65       5.7404      0.00000
     66       5.7438      0.00000
     67       6.1007      0.00000
     68       6.1042      0.00000
     69       8.8262      0.00000
     70       8.8280      0.00000
     71       9.2445      0.00000
     72       9.2468      0.00000
     73      10.2964      0.00000
     74      10.2991      0.00000
     75      10.7759      0.00000
     76      10.7771      0.00000
     77      10.9276      0.00000
     78      10.9294      0.00000
     79      12.0894      0.00000
     80      12.0933      0.00000
     81      12.5402      0.00000
     82      12.5425      0.00000
     83      12.8294      0.00000
     84      12.8314      0.00000

 k-point    76 :       0.5000    0.5000    0.5000
  band No.  band energies     occupation 
      1     -13.5081      2.00000
      2     -13.5055      2.00000
      3     -13.5054      2.00000
      4     -13.5026      2.00000
      5     -13.3268      2.00000
      6     -13.3241      2.00000
      7     -13.3241      2.00000
      8     -13.3211      2.00000
      9     -10.6643      2.00000
     10     -10.6626      2.00000
     11     -10.6626      2.00000
     12     -10.6609      2.00000
     13     -10.5181      2.00000
     14     -10.5164      2.00000
     15     -10.5164      2.00000
     16     -10.5146      2.00000
     17      -5.9193      2.00000
     18      -5.9149      2.00000
     19      -5.9146      2.00000
     20      -5.9146      2.00000
     21      -5.8691      2.00000
     22      -5.8654      2.00000
     23      -5.8651      2.00000
     24      -5.8651      2.00000
     25      -4.3264      2.00000
     26      -4.3264      2.00000
     27      -4.3250      2.00000
     28      -4.3227      2.00000
     29      -4.2896      2.00000
     30      -4.2896      2.00000
     31      -4.2882      2.00000
     32      -4.2850      2.00000
     33      -2.8235      2.00000
     34      -2.8231      2.00000
     35      -2.8231      2.00000
     36      -2.8179      2.00000
     37      -2.7579      2.00000
     38      -2.7576      2.00000
     39      -2.7575      2.00000
     40      -2.7512      2.00000
     41      -1.8652      2.00000
     42      -1.8625      2.00000
     43      -1.8624      2.00000
     44      -1.8602      2.00000
     45      -0.6348      2.00000
     46      -0.6317      2.00000
     47      -0.6316      2.00000
     48      -0.6292      2.00000
     49      -0.4146      2.00000
     50      -0.4047      2.00000
     51      -0.4047      2.00000
     52      -0.4032      2.00000
     53      -0.3796      2.00000
     54      -0.3734      2.00000
     55      -0.3734      2.00000
     56      -0.3717      2.00000
     57       1.4065      2.00000
     58       1.4076      2.00000
     59       1.4077      2.00000
     60       1.4109      2.00000
     61       2.3777      2.00000
     62       2.3788      2.00000
     63       2.3790      2.00000
     64       2.3829      2.00000
     65       7.2178      0.00000
     66       7.2224      0.00000
     67       7.2226      0.00000
     68       7.2235      0.00000
     69       7.6151      0.00000
     70       7.6203      0.00000
     71       7.6206      0.00000
     72       7.6213      0.00000
     73      11.2244      0.00000
     74      11.2315      0.00000
     75      11.2327      0.00000
     76      11.2392      0.00000
     77      11.7010      0.00000
     78      11.7084      0.00000
     79      11.7094      0.00000
     80      11.7193      0.00000
     81      12.0433      0.00000
     82      12.0449      0.00000
     83      12.0456      0.00000
     84      12.0506      0.00000


--------------------------------------------------------------------------------------------------------


 soft charge-density along one line, spin component           1
         0         1         2         3         4         5         6         7         8         9
 total charge-density along one line
 
 pseudopotential strength for first ion, spin component:           1
  9.777   0.005  -0.000   0.000  -0.000   0.000  -0.000   0.000
  0.005  -0.002   0.000  -0.000  -0.000   0.000  -0.000   0.000
 -0.000   0.000  -3.949  -0.000  -0.000  -0.015  -0.000  -0.000
  0.000  -0.000  -0.000  -3.943   0.000  -0.000  -0.012   0.000
 -0.000  -0.000  -0.000   0.000  -3.949  -0.000   0.000  -0.015
  0.000   0.000  -0.015  -0.000  -0.000  -0.764  -0.000  -0.000
 -0.000  -0.000  -0.000  -0.012   0.000  -0.000  -0.763   0.000
  0.000   0.000  -0.000   0.000  -0.015  -0.000   0.000  -0.764
 total augmentation occupancy for first ion, spin component:           1
  1.469  -1.121   0.000  -0.001  -0.003   0.000   0.001  -0.001
 -1.121   1.059  -0.000  -0.007   0.003  -0.000  -0.002   0.001
  0.000  -0.000   1.222  -0.000   0.003   0.228   0.000   0.001
 -0.001  -0.007  -0.000   0.927  -0.000   0.000   0.105  -0.000
 -0.003   0.003   0.003  -0.000   1.221   0.001  -0.000   0.228
  0.000  -0.000   0.228   0.000   0.001   0.048   0.000   0.000
  0.001  -0.002   0.000   0.105  -0.000   0.000   0.013  -0.000
 -0.001   0.001   0.001  -0.000   0.228   0.000  -0.000   0.048


------------------------ aborting loop because EDIFF is reached ----------------------------------------


    CHARGE:  cpu time    6.10: real time   14.58
    FORLOC:  cpu time    0.11: real time    0.24
    FORNL :  cpu time   33.88: real time   86.28
    STRESS:  cpu time   61.11: real time  151.79
    FORHAR:  cpu time    0.37: real time    0.98
    MIXING:  cpu time    0.23: real time    0.63
    OFIELD:  cpu time    0.00: real time    0.00

 ---------------------------------------------------------------------------------------------

         DFTD3 V3.0 Rev 1        
 IVDW         = 12
 DF pbe       
 parameters
 VDW_S6       =    1.0000
 VDW_S8       =    0.7875
 VDW_A1       =    0.4289
 VDW_A2       =    4.4407
 k1-k3        =   16.0000    1.3333   -4.0000
 VDW_RADIUS   =   50.2022 A
 VDW_CNRADIUS =   21.1671 A
 Edisp (eV)   -4.95427

 E6    (eV) :    -3.5519
 E8    (eV) :    -1.4024
 % E8        : 28.31
    FORVDW:  cpu time    0.24: real time    0.65

  FORCE on cell =-STRESS in cart. coord.  units (eV):
  Direction    XX          YY          ZZ          XY          YZ          ZX
  --------------------------------------------------------------------------------------
  Alpha Z   292.79115   292.79115   292.79115
  Ewald     657.80586   657.32985 -4960.90189     0.33672     0.00060    -0.00923
  Hartree  1314.11283  1314.12241 -1133.69073     0.11304     0.00028    -0.00228
  E(xc)    -467.59898  -467.60571  -484.81985    -0.00289     0.00005    -0.00012
  Local   -3595.04706 -3594.68472  4202.42420    -0.40006    -0.00005     0.00778
  n-local  -111.71288  -111.82598  -102.44991    -0.09301     0.00075    -0.00169
  augment   -12.36425   -12.36332   -11.33427    -0.00038    -0.00001     0.00006
  Kinetic  1922.25889  1923.02340  2203.21167     0.53101    -0.01041     0.02423
  Fock        0.00000     0.00000     0.00000     0.00000     0.00000     0.00000
  vdW        -0.76913    -0.75936    -5.93808     0.00811    -0.00000    -0.00001
  -------------------------------------------------------------------------------------
  Total      -0.52357     0.02771    -0.70771     0.49255    -0.00879     0.01873
  in kB      -2.94367     0.15580    -3.97896     2.76928    -0.04940     0.10529
  external pressure =       -2.26 kB  Pullay stress =        0.00 kB


 VOLUME and BASIS-vectors are now :
 -----------------------------------------------------------------------------
  energy-cutoff  :      800.00
  volume of cell :      284.97
      direct lattice vectors                 reciprocal lattice vectors
     4.932874498 -0.001919286  0.000000000     0.202767147  0.117172881  0.000000000
    -2.468099399  4.271034986  0.000000000     0.000091118  0.234187941  0.000000000
     0.000000000  0.000000000 13.528771485     0.000000000  0.000000000  0.073916542

  length of vectors
     4.932874871  4.932874871 13.528771485     0.234187958  0.234187958  0.073916542


 FORCES acting on ions
    electron-ion (+dipol)            ewald-force                    non-local-force                 convergence-correction
 -----------------------------------------------------------------------------------------------
   -.867E+00 0.644E-01 0.174E+01   0.970E+00 -.591E-01 -.177E+01   0.882E-01 0.303E-02 0.171E+00   -.197E-05 0.379E-05 0.430E-03
   0.781E-01 0.664E-01 -.387E+00   -.109E+00 -.619E-01 0.369E+00   -.244E-01 0.294E-02 0.204E-01   -.240E-05 0.379E-05 0.429E-03
   -.946E-01 -.334E-01 -.387E+00   0.885E-01 0.523E-01 0.369E+00   -.138E-01 0.899E-02 0.204E-01   -.208E-05 0.362E-05 0.429E-03
   -.951E-01 0.167E+00 -.388E+00   0.888E-01 -.176E+00 0.369E+00   -.137E-01 -.332E-02 0.205E-01   -.226E-05 0.308E-05 0.429E-03
   -.114E+00 0.670E-01 0.958E-01   0.108E+00 -.620E-01 -.960E-01   -.466E-02 0.300E-02 -.367E-02   -.165E-04 0.222E-05 -.365E-03
   -.114E+00 0.670E-01 0.951E-01   0.107E+00 -.620E-01 -.953E-01   -.464E-02 0.300E-02 -.370E-02   -.164E-04 0.212E-05 -.365E-03
   -.114E+00 0.669E-01 0.951E-01   0.107E+00 -.620E-01 -.953E-01   -.465E-02 0.299E-02 -.370E-02   -.164E-04 0.209E-05 -.365E-03
   -.114E+00 0.670E-01 0.951E-01   0.107E+00 -.621E-01 -.953E-01   -.465E-02 0.300E-02 -.370E-02   -.164E-04 0.206E-05 -.365E-03
   0.116E+00 -.643E-01 0.828E-01   -.108E+00 0.581E-01 -.824E-01   0.506E-02 -.324E-02 0.377E-02   -.518E-05 0.528E-05 0.183E-03
   0.116E+00 -.717E-01 0.825E-01   -.108E+00 0.658E-01 -.823E-01   0.516E-02 -.339E-02 0.403E-02   -.529E-05 0.523E-05 0.183E-03
   0.122E+00 -.681E-01 0.825E-01   -.114E+00 0.620E-01 -.823E-01   0.524E-02 -.341E-02 0.390E-02   -.530E-05 0.498E-05 0.183E-03
   0.109E+00 -.681E-01 0.137E+00   -.100E+00 0.621E-01 -.137E+00   0.502E-02 -.334E-02 0.351E-02   -.518E-05 0.497E-05 0.183E-03
   0.116E+00 -.619E-01 0.828E-01   -.107E+00 0.580E-01 -.822E-01   0.521E-02 -.259E-02 0.393E-02   -.446E-05 0.594E-06 -.247E-03
   0.116E+00 -.699E-01 0.830E-01   -.108E+00 0.661E-01 -.822E-01   0.508E-02 -.274E-02 0.367E-02   -.474E-05 0.698E-06 -.247E-03
   0.123E+00 -.657E-01 0.829E-01   -.115E+00 0.620E-01 -.822E-01   0.527E-02 -.256E-02 0.381E-02   -.470E-05 0.576E-06 -.247E-03
   0.108E+00 -.657E-01 0.138E+00   -.995E-01 0.619E-01 -.137E+00   0.506E-02 -.263E-02 0.360E-02   -.457E-05 0.557E-06 -.247E-03
   0.195E+00 -.658E-01 -.325E+00   -.183E+00 0.619E-01 0.322E+00   0.495E-02 -.250E-02 -.990E-02   0.205E-05 -.391E-05 0.429E-03
   -.115E+00 -.589E-01 -.848E+00   0.124E+00 0.542E-01 0.879E+00   -.196E-01 -.216E-02 -.792E-01   0.315E-05 -.370E-05 0.428E-03
   0.441E+00 0.256E+00 -.852E+00   -.484E+00 -.290E+00 0.884E+00   -.127E-01 0.148E-02 -.795E-01   0.272E-05 -.358E-05 0.428E-03
   0.451E+00 -.391E+00 -.843E+00   -.495E+00 0.418E+00 0.874E+00   -.117E-01 -.700E-02 -.789E-01   0.288E-05 -.346E-05 0.428E-03
   0.113E+00 -.659E-01 0.952E-01   -.107E+00 0.618E-01 -.952E-01   0.394E-02 -.257E-02 0.985E-03   0.171E-04 -.272E-05 -.366E-03
   0.112E+00 -.659E-01 0.955E-01   -.107E+00 0.618E-01 -.955E-01   0.395E-02 -.257E-02 0.978E-03   0.171E-04 -.285E-05 -.366E-03
   0.112E+00 -.659E-01 0.955E-01   -.107E+00 0.618E-01 -.955E-01   0.394E-02 -.257E-02 0.977E-03   0.171E-04 -.250E-05 -.366E-03
   0.112E+00 -.659E-01 0.955E-01   -.107E+00 0.618E-01 -.955E-01   0.394E-02 -.256E-02 0.976E-03   0.171E-04 -.252E-05 -.366E-03
   -.133E+00 0.761E-01 0.944E-01   0.126E+00 -.708E-01 -.942E-01   -.455E-02 0.290E-02 -.141E-02   0.509E-05 -.496E-05 0.183E-03
   -.946E-01 0.802E-01 0.108E+00   0.871E-01 -.751E-01 -.108E+00   -.458E-02 0.300E-02 -.108E-02   0.499E-05 -.500E-05 0.183E-03
   -.118E+00 0.448E-01 0.101E+00   0.110E+00 -.392E-01 -.101E+00   -.466E-02 0.297E-02 -.126E-02   0.497E-05 -.468E-05 0.183E-03
   -.111E+00 0.672E-01 0.775E-01   0.104E+00 -.618E-01 -.773E-01   -.444E-02 0.296E-02 -.778E-03   0.510E-05 -.470E-05 0.183E-03
   -.939E-01 0.513E-01 0.109E+00   0.869E-01 -.480E-01 -.109E+00   -.431E-02 0.216E-02 -.115E-02   0.382E-05 -.521E-06 -.246E-03
   -.133E+00 0.558E-01 0.945E-01   0.126E+00 -.527E-01 -.938E-01   -.431E-02 0.227E-02 -.144E-02   0.354E-05 -.441E-06 -.246E-03
   -.117E+00 0.872E-01 0.102E+00   0.111E+00 -.846E-01 -.101E+00   -.440E-02 0.222E-02 -.126E-02   0.358E-05 -.145E-06 -.246E-03
   -.110E+00 0.647E-01 0.778E-01   0.104E+00 -.617E-01 -.772E-01   -.418E-02 0.221E-02 -.800E-03   0.370E-05 -.150E-06 -.246E-03
 -----------------------------------------------------------------------------------------------
   -.322E-04 0.159E-04 0.476E-02   -.310E-13 0.104E-13 0.121E-12   0.174E-04 -.195E-04 -.477E-02   0.900E-07 -.181E-06 -.502E-05
 
 
 POSITION                                       TOTAL-FORCE (eV/Angst)
 -----------------------------------------------------------------------------------
      2.46059      0.00044      1.68170         0.193082      0.008413      0.132066
      4.93046     -0.00052      1.69110        -0.056659      0.007473      0.002831
      1.22997      2.13595      1.69110        -0.020218      0.028526      0.002900
      3.69641      2.13499      1.69110        -0.020325     -0.013589      0.002850
      2.46402      0.00044      8.45548        -0.011602      0.007995     -0.004221
      4.93046     -0.00052      8.45548        -0.011632      0.007995     -0.004250
      1.22997      2.13595      8.45548        -0.011620      0.008001     -0.004250
      3.69641      2.13499      8.45548        -0.011620      0.007988     -0.004250
     -1.23163      2.13412      5.07329         0.013421     -0.009448      0.004355
      1.23481      2.13316      5.07329         0.013587     -0.009364      0.004414
     -2.46568      4.26964      5.07329         0.013434     -0.009551      0.004382
      0.00076      4.26868      5.07329         0.013586     -0.009440      0.003708
     -1.23163      2.13412     11.83768         0.013617     -0.006564      0.004344
      1.23481      2.13316     11.83768         0.013441     -0.006490      0.004279
     -2.46568      4.26964     11.83768         0.013466     -0.006362      0.004314
      0.00076      4.26868     11.83768         0.013605     -0.006452      0.003805
     -0.00332      1.42496      1.69110         0.017064     -0.006420     -0.011846
      2.46311      1.42400      1.69110        -0.010087     -0.006907     -0.046977
     -1.23737      3.56047      1.69110        -0.055628     -0.032676     -0.046564
      1.22906      3.55952      1.69110        -0.055114      0.019534     -0.047311
     -0.00332      1.42496      8.45548         0.009530     -0.006720      0.000620
      2.46311      1.42400      8.45548         0.009529     -0.006721      0.000605
     -1.23737      3.56047      8.45548         0.009528     -0.006721      0.000604
      1.22906      3.55952      8.45548         0.009528     -0.006719      0.000602
      1.23571      0.70960      5.07329        -0.011704      0.008237     -0.001018
      3.70215      0.70864      5.07329        -0.012137      0.008144     -0.001052
      0.00166      2.84512      5.07329        -0.011837      0.008552     -0.001046
      2.46810      2.84416      5.07329        -0.011999      0.008316     -0.000371
      1.23571      0.70960     11.83768        -0.011333      0.005452     -0.001095
      3.70215      0.70864     11.83768        -0.010790      0.005352     -0.001025
      0.00166      2.84512     11.83768        -0.010975      0.004923     -0.001029
      2.46810      2.84416     11.83768        -0.011135      0.005242     -0.000373
 -----------------------------------------------------------------------------------
    total drift:                               -0.000015     -0.000004     -0.000019


--------------------------------------------------------------------------------------------------------



  FREE ENERGIE OF THE ION-ELECTRON SYSTEM (eV)
  ---------------------------------------------------
  free  energy   TOTEN  =      -299.83979929 eV

  energy  without entropy=     -299.83979929  energy(sigma->0) =     -299.83979929
 


--------------------------------------------------------------------------------------------------------


    POTLOK:  cpu time    1.36: real time    3.71


--------------------------------------------------------------------------------------------------------


     LOOP+:  cpu time14627.69: real time36655.48
    4ORBIT:  cpu time    0.00: real time    0.00
 BZINTS: Fermi energy:  4.600387;128.000000 electrons
         Band energy:-576.197738;  BLOECHL correction:  0.000000

 total amount of memory used by VASP on root node   408477. kBytes
========================================================================

   base      :      30000. kBytes
   nonl-proj :      79059. kBytes
   fftplans  :      14247. kBytes
   grid      :      30326. kBytes
   one-center:         98. kBytes
   wavefun   :     254747. kBytes
 
  
  
 General timing and accounting informations for this job:
 ========================================================
  
                  Total CPU time used (sec):    14785.759
                            User time (sec):     6463.927
                          System time (sec):     8321.832
                         Elapsed time (sec):    37049.819
  
                   Maximum memory used (kb):      500332.
                   Average memory used (kb):           0.
  
                          Minor page faults:     58660563
                          Major page faults:            0
                 Voluntary context switches:         1149
