   4   4   0   0
  0.6984475E+01  0.2466437E-09  0.2466437E-09  0.5305401E-09  0.5000000E-15
  1.000000000000000E-004
  CAR 
 graphite                                
     22.00991866    -15.18545750  301      6.90805516      1.00000000
    -15.185  0.0000E+00  0.0000E+00
    -15.061  0.0000E+00  0.0000E+00
    -14.937  0.0000E+00  0.0000E+00
    -14.814  0.0000E+00  0.0000E+00
    -14.690  0.0000E+00  0.0000E+00
    -14.566  0.0000E+00  0.0000E+00
    -14.442  0.0000E+00  0.0000E+00
    -14.318  0.0000E+00  0.0000E+00
    -14.194  0.0000E+00  0.0000E+00
    -14.070  0.0000E+00  0.0000E+00
    -13.946  0.0000E+00  0.0000E+00
    -13.822  0.0000E+00  0.0000E+00
    -13.698  0.0000E+00  0.0000E+00
    -13.574  0.0000E+00  0.0000E+00
    -13.450  0.0000E+00  0.0000E+00
    -13.326  0.0000E+00  0.0000E+00
    -13.202  0.0000E+00  0.0000E+00
    -13.078  0.5134E-03  0.2880E-04
    -12.954  0.8420E-03  0.1112E-03
    -12.830  0.1038E-02  0.2278E-03
    -12.706  0.1252E-02  0.3698E-03
    -12.582  0.1431E-02  0.5373E-03
    -12.458  0.1593E-02  0.7247E-03
    -12.334  0.1775E-02  0.9334E-03
    -12.210  0.1951E-02  0.1165E-02
    -12.086  0.2119E-02  0.1417E-02
    -11.962  0.2309E-02  0.1691E-02
    -11.838  0.2569E-02  0.1994E-02
    -11.714  0.3060E-02  0.2336E-02
    -11.590  0.3090E-02  0.2718E-02
    -11.466  0.3068E-02  0.3101E-02
    -11.342  0.3103E-02  0.3484E-02
    -11.218  0.3097E-02  0.3869E-02
    -11.094  0.3110E-02  0.4253E-02
    -10.970  0.3120E-02  0.4640E-02
    -10.846  0.3105E-02  0.5026E-02
    -10.722  0.3116E-02  0.5412E-02
    -10.598  0.3134E-02  0.5799E-02
    -10.474  0.3151E-02  0.6189E-02
    -10.350  0.3143E-02  0.6579E-02
    -10.226  0.3146E-02  0.6969E-02
    -10.102  0.3158E-02  0.7359E-02
     -9.978  0.3168E-02  0.7752E-02
     -9.854  0.3176E-02  0.8145E-02
     -9.730  0.3182E-02  0.8539E-02
     -9.606  0.3197E-02  0.8934E-02
     -9.482  0.3207E-02  0.9331E-02
     -9.358  0.3218E-02  0.9730E-02
     -9.234  0.3229E-02  0.1013E-01
     -9.110  0.3235E-02  0.1053E-01
     -8.986  0.3250E-02  0.1093E-01
     -8.862  0.3272E-02  0.1134E-01
     -8.738  0.3296E-02  0.1174E-01
     -8.614  0.3318E-02  0.1215E-01
     -8.490  0.3340E-02  0.1257E-01
     -8.366  0.3369E-02  0.1298E-01
     -8.242  0.3419E-02  0.1340E-01
     -8.118  0.3492E-02  0.1383E-01
     -7.994  0.3582E-02  0.1427E-01
     -7.870  0.3957E-02  0.1473E-01
     -7.746  0.4006E-02  0.1523E-01
     -7.622  0.3891E-02  0.1572E-01
     -7.498  0.4273E-02  0.1622E-01
     -7.374  0.3952E-02  0.1672E-01
     -7.250  0.3999E-02  0.1721E-01
     -7.126  0.4122E-02  0.1772E-01
     -7.002  0.3010E-02  0.1818E-01
     -6.878  0.2361E-02  0.1850E-01
     -6.755  0.2396E-02  0.1880E-01
     -6.631  0.2111E-02  0.1908E-01
     -6.507  0.1638E-02  0.1931E-01
     -6.383  0.1230E-02  0.1949E-01
     -6.259  0.1044E-02  0.1963E-01
     -6.135  0.2329E-02  0.1978E-01
     -6.011  0.2342E-02  0.2010E-01
     -5.887  0.2665E-02  0.2041E-01
     -5.763  0.3055E-02  0.2077E-01
     -5.639  0.3223E-02  0.2115E-01
     -5.515  0.3503E-02  0.2157E-01
     -5.391  0.4379E-02  0.2205E-01
     -5.267  0.4854E-02  0.2266E-01
     -5.143  0.4668E-02  0.2325E-01
     -5.019  0.4246E-02  0.2380E-01
     -4.895  0.4326E-02  0.2433E-01
     -4.771  0.3603E-02  0.2484E-01
     -4.647  0.3460E-02  0.2527E-01
     -4.523  0.3324E-02  0.2570E-01
     -4.399  0.3210E-02  0.2610E-01
     -4.275  0.3100E-02  0.2649E-01
     -4.151  0.3005E-02  0.2687E-01
     -4.027  0.2948E-02  0.2724E-01
     -3.903  0.2874E-02  0.2760E-01
     -3.779  0.2782E-02  0.2795E-01
     -3.655  0.2710E-02  0.2829E-01
     -3.531  0.2645E-02  0.2862E-01
     -3.407  0.2817E-02  0.2896E-01
     -3.283  0.3532E-02  0.2935E-01
     -3.159  0.3556E-02  0.2981E-01
     -3.035  0.3582E-02  0.3025E-01
     -2.911  0.3646E-02  0.3070E-01
     -2.787  0.3818E-02  0.3116E-01
     -2.663  0.3995E-02  0.3165E-01
     -2.539  0.4094E-02  0.3215E-01
     -2.415  0.4208E-02  0.3266E-01
     -2.291  0.4352E-02  0.3319E-01
     -2.167  0.4488E-02  0.3374E-01
     -2.043  0.4551E-02  0.3430E-01
     -1.919  0.4608E-02  0.3487E-01
     -1.795  0.4710E-02  0.3545E-01
     -1.671  0.4804E-02  0.3604E-01
     -1.547  0.4901E-02  0.3664E-01
     -1.423  0.5088E-02  0.3726E-01
     -1.299  0.5478E-02  0.3791E-01
     -1.175  0.5746E-02  0.3861E-01
     -1.051  0.5848E-02  0.3933E-01
     -0.927  0.5572E-02  0.4004E-01
     -0.803  0.5372E-02  0.4071E-01
     -0.679  0.5297E-02  0.4138E-01
     -0.555  0.5222E-02  0.4203E-01
     -0.431  0.5305E-02  0.4268E-01
     -0.307  0.6077E-02  0.4338E-01
     -0.183  0.6515E-02  0.4418E-01
     -0.059  0.7104E-02  0.4504E-01
      0.065  0.7034E-02  0.4591E-01
      0.189  0.7216E-02  0.4680E-01
      0.313  0.7967E-02  0.4773E-01
      0.437  0.8645E-02  0.4876E-01
      0.561  0.9111E-02  0.4988E-01
      0.685  0.9479E-02  0.5102E-01
      0.809  0.8793E-02  0.5216E-01
      0.933  0.7760E-02  0.5319E-01
      1.057  0.7902E-02  0.5414E-01
      1.181  0.6801E-02  0.5515E-01
      1.304  0.6451E-02  0.5597E-01
      1.428  0.6536E-02  0.5677E-01
      1.552  0.6539E-02  0.5761E-01
      1.676  0.6303E-02  0.5840E-01
      1.800  0.6253E-02  0.5918E-01
      1.924  0.6178E-02  0.5996E-01
      2.048  0.5977E-02  0.6071E-01
      2.172  0.5801E-02  0.6144E-01
      2.296  0.6172E-02  0.6217E-01
      2.420  0.5922E-02  0.6293E-01
      2.544  0.5976E-02  0.6366E-01
      2.668  0.6076E-02  0.6442E-01
      2.792  0.5797E-02  0.6515E-01
      2.916  0.5781E-02  0.6587E-01
      3.040  0.5936E-02  0.6659E-01
      3.164  0.6466E-02  0.6736E-01
      3.288  0.6353E-02  0.6818E-01
      3.412  0.5922E-02  0.6893E-01
      3.536  0.5834E-02  0.6966E-01
      3.660  0.5657E-02  0.7037E-01
      3.784  0.5557E-02  0.7107E-01
      3.908  0.5266E-02  0.7176E-01
      4.032  0.4254E-02  0.7235E-01
      4.156  0.3128E-02  0.7280E-01
      4.280  0.3104E-02  0.7318E-01
      4.404  0.3126E-02  0.7357E-01
      4.528  0.3135E-02  0.7396E-01
      4.652  0.3126E-02  0.7435E-01
      4.776  0.3150E-02  0.7473E-01
      4.900  0.3154E-02  0.7513E-01
      5.024  0.3555E-02  0.7553E-01
      5.148  0.4900E-02  0.7605E-01
      5.272  0.4407E-02  0.7664E-01
      5.396  0.4172E-02  0.7716E-01
      5.520  0.3659E-02  0.7766E-01
      5.644  0.3054E-02  0.7807E-01
      5.768  0.2454E-02  0.7841E-01
      5.892  0.2118E-02  0.7870E-01
      6.016  0.1795E-02  0.7894E-01
      6.140  0.1624E-02  0.7915E-01
      6.264  0.1502E-02  0.7934E-01
      6.388  0.1270E-02  0.7951E-01
      6.512  0.1380E-02  0.7967E-01
      6.636  0.1349E-02  0.7986E-01
      6.760  0.4500E-03  0.7997E-01
      6.884  0.1122E-03  0.8000E-01
      7.008  0.9341E-04  0.8001E-01
      7.132  0.1933E-03  0.8003E-01
      7.256  0.3064E-03  0.8006E-01
      7.380  0.4226E-03  0.8010E-01
      7.504  0.6240E-03  0.8017E-01
      7.628  0.6732E-03  0.8025E-01
      7.752  0.7475E-03  0.8033E-01
      7.876  0.8588E-03  0.8043E-01
      8.000  0.9816E-03  0.8055E-01
      8.124  0.1084E-02  0.8068E-01
      8.248  0.1289E-02  0.8082E-01
      8.372  0.1857E-02  0.8102E-01
      8.496  0.2189E-02  0.8126E-01
      8.620  0.3410E-02  0.8159E-01
      8.744  0.4311E-02  0.8207E-01
      8.868  0.4713E-02  0.8264E-01
      8.992  0.4464E-02  0.8320E-01
      9.116  0.5107E-02  0.8381E-01
      9.240  0.4125E-02  0.8438E-01
      9.363  0.3592E-02  0.8485E-01
      9.487  0.3599E-02  0.8529E-01
      9.611  0.3369E-02  0.8572E-01
      9.735  0.3454E-02  0.8614E-01
      9.859  0.3126E-02  0.8655E-01
      9.983  0.2980E-02  0.8693E-01
     10.107  0.2948E-02  0.8730E-01
     10.231  0.3006E-02  0.8767E-01
     10.355  0.2757E-02  0.8803E-01
     10.479  0.2651E-02  0.8836E-01
     10.603  0.2555E-02  0.8868E-01
     10.727  0.2464E-02  0.8900E-01
     10.851  0.2379E-02  0.8930E-01
     10.975  0.2326E-02  0.8959E-01
     11.099  0.2270E-02  0.8987E-01
     11.223  0.2220E-02  0.9015E-01
     11.347  0.2173E-02  0.9042E-01
     11.471  0.2129E-02  0.9069E-01
     11.595  0.2084E-02  0.9095E-01
     11.719  0.2040E-02  0.9121E-01
     11.843  0.1995E-02  0.9146E-01
     11.967  0.1964E-02  0.9170E-01
     12.091  0.1935E-02  0.9194E-01
     12.215  0.1904E-02  0.9218E-01
     12.339  0.1871E-02  0.9242E-01
     12.463  0.1838E-02  0.9265E-01
     12.587  0.1808E-02  0.9287E-01
     12.711  0.1779E-02  0.9309E-01
     12.835  0.1752E-02  0.9331E-01
     12.959  0.1724E-02  0.9353E-01
     13.083  0.1705E-02  0.9374E-01
     13.207  0.1688E-02  0.9395E-01
     13.331  0.1673E-02  0.9416E-01
     13.455  0.1663E-02  0.9437E-01
     13.579  0.1701E-02  0.9457E-01
     13.703  0.2177E-02  0.9481E-01
     13.827  0.2693E-02  0.9511E-01
     13.951  0.3090E-02  0.9548E-01
     14.075  0.3313E-02  0.9587E-01
     14.199  0.3504E-02  0.9630E-01
     14.323  0.3738E-02  0.9674E-01
     14.447  0.4031E-02  0.9723E-01
     14.571  0.4356E-02  0.9775E-01
     14.695  0.4704E-02  0.9831E-01
     14.819  0.5317E-02  0.9892E-01
     14.943  0.6186E-02  0.9963E-01
     15.067  0.6941E-02  0.1004E+00
     15.191  0.8047E-02  0.1014E+00
     15.315  0.1205E-01  0.1026E+00
     15.439  0.1109E-01  0.1040E+00
     15.563  0.8984E-02  0.1053E+00
     15.687  0.7172E-02  0.1063E+00
     15.811  0.7544E-02  0.1072E+00
     15.935  0.7114E-02  0.1081E+00
     16.059  0.7097E-02  0.1090E+00
     16.183  0.7820E-02  0.1100E+00
     16.307  0.7670E-02  0.1109E+00
     16.431  0.6667E-02  0.1118E+00
     16.555  0.6350E-02  0.1126E+00
     16.679  0.5948E-02  0.1134E+00
     16.803  0.4742E-02  0.1140E+00
     16.927  0.3690E-02  0.1146E+00
     17.051  0.2961E-02  0.1150E+00
     17.175  0.2847E-02  0.1153E+00
     17.299  0.2800E-02  0.1157E+00
     17.422  0.2980E-02  0.1160E+00
     17.546  0.4257E-02  0.1165E+00
     17.670  0.4022E-02  0.1170E+00
     17.794  0.3964E-02  0.1175E+00
     17.918  0.3670E-02  0.1180E+00
     18.042  0.2609E-02  0.1184E+00
     18.166  0.2032E-02  0.1187E+00
     18.290  0.1681E-02  0.1189E+00
     18.414  0.1450E-02  0.1191E+00
     18.538  0.1183E-02  0.1192E+00
     18.662  0.1045E-02  0.1194E+00
     18.786  0.9193E-03  0.1195E+00
     18.910  0.1211E-02  0.1196E+00
     19.034  0.7729E-03  0.1198E+00
     19.158  0.4822E-03  0.1198E+00
     19.282  0.3612E-03  0.1199E+00
     19.406  0.2700E-03  0.1199E+00
     19.530  0.2058E-03  0.1200E+00
     19.654  0.1420E-03  0.1200E+00
     19.778  0.9216E-04  0.1200E+00
     19.902  0.5484E-04  0.1200E+00
     20.026  0.0000E+00  0.1200E+00
     20.150  0.0000E+00  0.1200E+00
     20.274  0.0000E+00  0.1200E+00
     20.398  0.0000E+00  0.1200E+00
     20.522  0.0000E+00  0.1200E+00
     20.646  0.0000E+00  0.1200E+00
     20.770  0.0000E+00  0.1200E+00
     20.894  0.0000E+00  0.1200E+00
     21.018  0.0000E+00  0.1200E+00
     21.142  0.0000E+00  0.1200E+00
     21.266  0.0000E+00  0.1200E+00
     21.390  0.0000E+00  0.1200E+00
     21.514  0.0000E+00  0.1200E+00
     21.638  0.0000E+00  0.1200E+00
     21.762  0.0000E+00  0.1200E+00
     21.886  0.0000E+00  0.1200E+00
     22.010  0.0000E+00  0.1200E+00
