   4   4   0   0
  0.8381369E+01  0.2466437E-09  0.2466437E-09  0.6366481E-09  0.5000000E-15
  1.000000000000000E-004
  CAR 
 graphite                                
     19.11355124    -16.54532799  301      5.13540679      1.00000000
    -16.545  0.0000E+00  0.0000E+00
    -16.426  0.0000E+00  0.0000E+00
    -16.308  0.0000E+00  0.0000E+00
    -16.189  0.0000E+00  0.0000E+00
    -16.070  0.0000E+00  0.0000E+00
    -15.951  0.0000E+00  0.0000E+00
    -15.832  0.0000E+00  0.0000E+00
    -15.713  0.0000E+00  0.0000E+00
    -15.594  0.0000E+00  0.0000E+00
    -15.476  0.0000E+00  0.0000E+00
    -15.357  0.0000E+00  0.0000E+00
    -15.238  0.0000E+00  0.0000E+00
    -15.119  0.0000E+00  0.0000E+00
    -15.000  0.0000E+00  0.0000E+00
    -14.881  0.0000E+00  0.0000E+00
    -14.762  0.0000E+00  0.0000E+00
    -14.644  0.0000E+00  0.0000E+00
    -14.525  0.1120E-03  0.7965E-06
    -14.406  0.1052E-02  0.8500E-04
    -14.287  0.1685E-02  0.2492E-03
    -14.168  0.2197E-02  0.4768E-03
    -14.049  0.3218E-02  0.7956E-03
    -13.930  0.3104E-02  0.1162E-02
    -13.811  0.3035E-02  0.1527E-02
    -13.693  0.3120E-02  0.1893E-02
    -13.574  0.3078E-02  0.2264E-02
    -13.455  0.3078E-02  0.2629E-02
    -13.336  0.3107E-02  0.2997E-02
    -13.217  0.3108E-02  0.3367E-02
    -13.098  0.3111E-02  0.3736E-02
    -12.979  0.3111E-02  0.4106E-02
    -12.861  0.3125E-02  0.4477E-02
    -12.742  0.3115E-02  0.4848E-02
    -12.623  0.3127E-02  0.5219E-02
    -12.504  0.3148E-02  0.5593E-02
    -12.385  0.3151E-02  0.5967E-02
    -12.266  0.3154E-02  0.6341E-02
    -12.147  0.3145E-02  0.6716E-02
    -12.029  0.3154E-02  0.7090E-02
    -11.910  0.3176E-02  0.7466E-02
    -11.791  0.3193E-02  0.7845E-02
    -11.672  0.3196E-02  0.8225E-02
    -11.553  0.3200E-02  0.8605E-02
    -11.434  0.3193E-02  0.8985E-02
    -11.315  0.3205E-02  0.9365E-02
    -11.196  0.3226E-02  0.9747E-02
    -11.078  0.3251E-02  0.1013E-01
    -10.959  0.3261E-02  0.1052E-01
    -10.840  0.3270E-02  0.1091E-01
    -10.721  0.3275E-02  0.1130E-01
    -10.602  0.3285E-02  0.1169E-01
    -10.483  0.3306E-02  0.1208E-01
    -10.364  0.3335E-02  0.1247E-01
    -10.246  0.3369E-02  0.1287E-01
    -10.127  0.3402E-02  0.1327E-01
    -10.008  0.3438E-02  0.1368E-01
     -9.889  0.3486E-02  0.1409E-01
     -9.770  0.3554E-02  0.1451E-01
     -9.651  0.3683E-02  0.1494E-01
     -9.532  0.3857E-02  0.1539E-01
     -9.414  0.4473E-02  0.1586E-01
     -9.295  0.4862E-02  0.1643E-01
     -9.176  0.4932E-02  0.1700E-01
     -9.057  0.3673E-02  0.1752E-01
     -8.938  0.3392E-02  0.1799E-01
     -8.819  0.3450E-02  0.1838E-01
     -8.700  0.2125E-02  0.1867E-01
     -8.582  0.1866E-02  0.1891E-01
     -8.463  0.1607E-02  0.1912E-01
     -8.344  0.1742E-02  0.1930E-01
     -8.225  0.1557E-02  0.1951E-01
     -8.106  0.1222E-02  0.1968E-01
     -7.987  0.1083E-02  0.1980E-01
     -7.868  0.1984E-02  0.1997E-01
     -7.749  0.3223E-02  0.2032E-01
     -7.631  0.3360E-02  0.2072E-01
     -7.512  0.2815E-02  0.2108E-01
     -7.393  0.4213E-02  0.2148E-01
     -7.274  0.4823E-02  0.2199E-01
     -7.155  0.4526E-02  0.2250E-01
     -7.036  0.5303E-02  0.2309E-01
     -6.917  0.4826E-02  0.2371E-01
     -6.799  0.3854E-02  0.2422E-01
     -6.680  0.3694E-02  0.2467E-01
     -6.561  0.3550E-02  0.2510E-01
     -6.442  0.3409E-02  0.2551E-01
     -6.323  0.3266E-02  0.2591E-01
     -6.204  0.3124E-02  0.2629E-01
     -6.085  0.3007E-02  0.2665E-01
     -5.967  0.2960E-02  0.2701E-01
     -5.848  0.2924E-02  0.2736E-01
     -5.729  0.2888E-02  0.2770E-01
     -5.610  0.2851E-02  0.2804E-01
     -5.491  0.2713E-02  0.2837E-01
     -5.372  0.2572E-02  0.2869E-01
     -5.253  0.2925E-02  0.2901E-01
     -5.134  0.3368E-02  0.2939E-01
     -5.016  0.3810E-02  0.2981E-01
     -4.897  0.3819E-02  0.3027E-01
     -4.778  0.3717E-02  0.3072E-01
     -4.659  0.3660E-02  0.3116E-01
     -4.540  0.3603E-02  0.3159E-01
     -4.421  0.3616E-02  0.3202E-01
     -4.302  0.3718E-02  0.3245E-01
     -4.184  0.3814E-02  0.3290E-01
     -4.065  0.3897E-02  0.3336E-01
     -3.946  0.3939E-02  0.3383E-01
     -3.827  0.3953E-02  0.3429E-01
     -3.708  0.3916E-02  0.3476E-01
     -3.589  0.3919E-02  0.3523E-01
     -3.470  0.4379E-02  0.3572E-01
     -3.352  0.4560E-02  0.3625E-01
     -3.233  0.4760E-02  0.3681E-01
     -3.114  0.4891E-02  0.3738E-01
     -2.995  0.5100E-02  0.3797E-01
     -2.876  0.5341E-02  0.3859E-01
     -2.757  0.5533E-02  0.3924E-01
     -2.638  0.5713E-02  0.3991E-01
     -2.520  0.5910E-02  0.4060E-01
     -2.401  0.6105E-02  0.4131E-01
     -2.282  0.6810E-02  0.4208E-01
     -2.163  0.6612E-02  0.4288E-01
     -2.044  0.6605E-02  0.4366E-01
     -1.925  0.6808E-02  0.4446E-01
     -1.806  0.6788E-02  0.4526E-01
     -1.687  0.6910E-02  0.4608E-01
     -1.569  0.7699E-02  0.4692E-01
     -1.450  0.8869E-02  0.4788E-01
     -1.331  0.1103E-01  0.4907E-01
     -1.212  0.1196E-01  0.5047E-01
     -1.093  0.9790E-02  0.5176E-01
     -0.974  0.9080E-02  0.5289E-01
     -0.855  0.8494E-02  0.5392E-01
     -0.737  0.8020E-02  0.5491E-01
     -0.618  0.7575E-02  0.5584E-01
     -0.499  0.6248E-02  0.5663E-01
     -0.380  0.6536E-02  0.5738E-01
     -0.261  0.7153E-02  0.5819E-01
     -0.142  0.7673E-02  0.5905E-01
     -0.023  0.6999E-02  0.5991E-01
      0.095  0.6104E-02  0.6069E-01
      0.214  0.5796E-02  0.6139E-01
      0.333  0.5950E-02  0.6208E-01
      0.452  0.6815E-02  0.6283E-01
      0.571  0.7177E-02  0.6373E-01
      0.690  0.6173E-02  0.6449E-01
      0.809  0.5987E-02  0.6521E-01
      0.928  0.5845E-02  0.6592E-01
      1.046  0.5746E-02  0.6660E-01
      1.165  0.5847E-02  0.6729E-01
      1.284  0.5841E-02  0.6799E-01
      1.403  0.5731E-02  0.6868E-01
      1.522  0.5603E-02  0.6935E-01
      1.641  0.5624E-02  0.7001E-01
      1.760  0.5740E-02  0.7069E-01
      1.878  0.5837E-02  0.7137E-01
      1.997  0.5600E-02  0.7206E-01
      2.116  0.4982E-02  0.7273E-01
      2.235  0.4106E-02  0.7326E-01
      2.354  0.3999E-02  0.7374E-01
      2.473  0.3951E-02  0.7421E-01
      2.592  0.4061E-02  0.7468E-01
      2.710  0.4033E-02  0.7517E-01
      2.829  0.4059E-02  0.7565E-01
      2.948  0.4160E-02  0.7614E-01
      3.067  0.4423E-02  0.7664E-01
      3.186  0.4100E-02  0.7718E-01
      3.305  0.3379E-02  0.7762E-01
      3.424  0.2741E-02  0.7797E-01
      3.543  0.2484E-02  0.7828E-01
      3.661  0.2173E-02  0.7856E-01
      3.780  0.1927E-02  0.7880E-01
      3.899  0.1747E-02  0.7902E-01
      4.018  0.1530E-02  0.7922E-01
      4.137  0.1233E-02  0.7938E-01
      4.256  0.1069E-02  0.7952E-01
      4.375  0.9018E-03  0.7963E-01
      4.493  0.7581E-03  0.7973E-01
      4.612  0.6347E-03  0.7982E-01
      4.731  0.5815E-03  0.7989E-01
      4.850  0.4001E-03  0.7995E-01
      4.969  0.2236E-03  0.7998E-01
      5.088  0.5131E-04  0.8000E-01
      5.207  0.5028E-04  0.8000E-01
      5.325  0.1445E-03  0.8001E-01
      5.444  0.2449E-03  0.8004E-01
      5.563  0.3524E-03  0.8007E-01
      5.682  0.4703E-03  0.8012E-01
      5.801  0.5857E-03  0.8018E-01
      5.920  0.7396E-03  0.8026E-01
      6.039  0.9526E-03  0.8036E-01
      6.157  0.1220E-02  0.8049E-01
      6.276  0.1494E-02  0.8065E-01
      6.395  0.1830E-02  0.8085E-01
      6.514  0.3116E-02  0.8112E-01
      6.633  0.4611E-02  0.8151E-01
      6.752  0.6064E-02  0.8213E-01
      6.871  0.4741E-02  0.8273E-01
      6.990  0.4198E-02  0.8325E-01
      7.108  0.4116E-02  0.8375E-01
      7.227  0.4169E-02  0.8424E-01
      7.346  0.3801E-02  0.8470E-01
      7.465  0.3773E-02  0.8515E-01
      7.584  0.3785E-02  0.8560E-01
      7.703  0.3282E-02  0.8601E-01
      7.822  0.3089E-02  0.8639E-01
      7.940  0.2931E-02  0.8675E-01
      8.059  0.2808E-02  0.8709E-01
      8.178  0.2708E-02  0.8742E-01
      8.297  0.2617E-02  0.8773E-01
      8.416  0.2541E-02  0.8804E-01
      8.535  0.2477E-02  0.8834E-01
      8.654  0.2411E-02  0.8863E-01
      8.772  0.2348E-02  0.8891E-01
      8.891  0.2293E-02  0.8919E-01
      9.010  0.2242E-02  0.8946E-01
      9.129  0.2194E-02  0.8972E-01
      9.248  0.2147E-02  0.8998E-01
      9.367  0.2102E-02  0.9023E-01
      9.486  0.2060E-02  0.9048E-01
      9.605  0.2029E-02  0.9072E-01
      9.723  0.1996E-02  0.9096E-01
      9.842  0.1963E-02  0.9120E-01
      9.961  0.1921E-02  0.9143E-01
     10.080  0.2035E-02  0.9166E-01
     10.199  0.2167E-02  0.9191E-01
     10.318  0.2205E-02  0.9217E-01
     10.437  0.2230E-02  0.9243E-01
     10.555  0.2269E-02  0.9270E-01
     10.674  0.2307E-02  0.9297E-01
     10.793  0.2340E-02  0.9325E-01
     10.912  0.2376E-02  0.9353E-01
     11.031  0.2438E-02  0.9382E-01
     11.150  0.2499E-02  0.9411E-01
     11.269  0.2601E-02  0.9441E-01
     11.387  0.2727E-02  0.9473E-01
     11.506  0.2809E-02  0.9506E-01
     11.625  0.2820E-02  0.9539E-01
     11.744  0.2650E-02  0.9572E-01
     11.863  0.2421E-02  0.9602E-01
     11.982  0.2330E-02  0.9630E-01
     12.101  0.2128E-02  0.9657E-01
     12.220  0.2020E-02  0.9681E-01
     12.338  0.2418E-02  0.9706E-01
     12.457  0.3609E-02  0.9742E-01
     12.576  0.5229E-02  0.9794E-01
     12.695  0.6734E-02  0.9867E-01
     12.814  0.7014E-02  0.9948E-01
     12.933  0.8026E-02  0.1004E+00
     13.052  0.9381E-02  0.1014E+00
     13.170  0.9148E-02  0.1025E+00
     13.289  0.8276E-02  0.1036E+00
     13.408  0.8670E-02  0.1046E+00
     13.527  0.1385E-01  0.1058E+00
     13.646  0.1386E-01  0.1074E+00
     13.765  0.9780E-02  0.1089E+00
     13.884  0.8037E-02  0.1099E+00
     14.002  0.6105E-02  0.1108E+00
     14.121  0.5486E-02  0.1115E+00
     14.240  0.5674E-02  0.1121E+00
     14.359  0.4566E-02  0.1127E+00
     14.478  0.4627E-02  0.1132E+00
     14.597  0.4715E-02  0.1138E+00
     14.716  0.4374E-02  0.1144E+00
     14.834  0.3002E-02  0.1148E+00
     14.953  0.2825E-02  0.1151E+00
     15.072  0.2867E-02  0.1155E+00
     15.191  0.3400E-02  0.1158E+00
     15.310  0.2844E-02  0.1162E+00
     15.429  0.3339E-02  0.1166E+00
     15.548  0.3901E-02  0.1170E+00
     15.667  0.4821E-02  0.1175E+00
     15.785  0.4440E-02  0.1181E+00
     15.904  0.3154E-02  0.1185E+00
     16.023  0.2624E-02  0.1189E+00
     16.142  0.2549E-02  0.1192E+00
     16.261  0.1984E-02  0.1194E+00
     16.380  0.1315E-02  0.1196E+00
     16.499  0.1005E-02  0.1198E+00
     16.617  0.7320E-03  0.1199E+00
     16.736  0.4160E-03  0.1199E+00
     16.855  0.1975E-03  0.1200E+00
     16.974  0.5209E-04  0.1200E+00
     17.093  0.6617E-06  0.1200E+00
     17.212  0.0000E+00  0.1200E+00
     17.331  0.0000E+00  0.1200E+00
     17.449  0.0000E+00  0.1200E+00
     17.568  0.0000E+00  0.1200E+00
     17.687  0.0000E+00  0.1200E+00
     17.806  0.0000E+00  0.1200E+00
     17.925  0.0000E+00  0.1200E+00
     18.044  0.0000E+00  0.1200E+00
     18.163  0.0000E+00  0.1200E+00
     18.282  0.0000E+00  0.1200E+00
     18.400  0.0000E+00  0.1200E+00
     18.519  0.0000E+00  0.1200E+00
     18.638  0.0000E+00  0.1200E+00
     18.757  0.0000E+00  0.1200E+00
     18.876  0.0000E+00  0.1200E+00
     18.995  0.0000E+00  0.1200E+00
     19.114  0.0000E+00  0.1200E+00
