    4    4  200    1
  0.8381369E+01  0.2466437E-09  0.2466437E-09  0.6366481E-09  0.5000000E-15
  1.000000000000000E-004
  CAR 
 graphite                                
     16    455     12
 
  0.0000000E+00  0.0000000E+00  0.0000000E+00  0.3858025E-03
    1      -14.545328
    2      -14.100150
    3       -3.591015
    4       -1.045829
    5        2.150524
    6        2.167031
    7        2.182551
    8        2.198055
    9        9.953761
   10       13.478029
   11       13.482315
   12       13.559774
 
  0.5555556E-01  0.0000000E+00  0.0000000E+00  0.1543210E-02
    1      -14.471355
    2      -14.027995
    3       -3.501072
    4       -0.963207
    5        1.858271
    6        1.901625
    7        1.994149
    8        2.034265
    9       10.040001
   10       13.509598
   11       13.608817
   12       13.800789
 
  0.1111111E+00  0.0000000E+00  0.0000000E+00  0.1543210E-02
    1      -14.249759
    2      -13.811995
    3       -3.232391
    4       -0.716574
    5        1.026017
    6        1.096247
    7        1.570416
    8        1.625449
    9       10.299626
   10       13.515055
   11       13.678161
   12       14.690852
 
  0.1666667E+00  0.1387779E-16  0.0000000E+00  0.1543210E-02
    1      -13.881697
    2      -13.453190
    3       -2.787333
    4       -0.310193
    5       -0.166450
    6       -0.063274
    7        1.004419
    8        1.071565
    9       10.732846
   10       13.397694
   11       13.662749
   12       14.242204
 
  0.2222222E+00  0.0000000E+00  0.0000000E+00  0.1543210E-02
    1      -13.369159
    2      -12.953381
    3       -2.170890
    4       -1.560220
    5       -1.421799
    6        0.247120
    7        0.405036
    8        0.481217
    9       11.335502
   10       12.783209
   11       13.173285
   12       13.544556
 
  0.2777778E+00  0.0000000E+00  0.0000000E+00  0.1543210E-02
    1      -12.715142
    2      -12.315648
    3       -3.039829
    4       -2.866288
    5       -1.391846
    6       -0.151841
    7       -0.069689
    8        0.938775
    9       11.167449
   10       12.087780
   11       12.148879
   12       12.916578
 
  0.3333333E+00  0.0000000E+00  0.0000000E+00  0.1543210E-02
    1      -11.924797
    2      -11.545079
    3       -4.527233
    4       -4.319669
    5       -0.619199
    6       -0.532911
    7       -0.466877
    8        1.729299
    9        9.531077
   10       10.721410
   11       12.597004
   12       12.928883
 
  0.3888889E+00  0.0000000E+00  0.0000000E+00  0.1543210E-02
    1      -11.007722
    2      -10.652159
    3       -5.966731
    4       -5.728945
    5       -0.968764
    6       -0.879804
    7        0.568159
    8        2.529841
    9        8.036110
   10        9.335029
   11       12.432141
   12       12.953493
 
  0.4444444E+00  0.0000000E+00  0.0000000E+00  0.1543210E-02
    1       -9.990477
    2       -9.671167
    3       -7.294787
    4       -7.040678
    5       -1.184262
    6       -1.093482
    7        1.613807
    8        3.090201
    9        6.980106
   10        8.125557
   11       12.310085
   12       12.872461
 
  0.5000000E+00  0.0000000E+00  0.0000000E+00  0.7716049E-03
    1       -9.175503
    2       -9.005442
    3       -8.079361
    4       -7.953245
    5       -1.256633
    6       -1.165588
    7        2.234331
    8        3.132581
    9        6.710422
   10        7.507428
   11       12.267806
   12       12.841645
 
  0.5555556E-01  0.5555556E-01  0.0000000E+00  0.7716049E-03
    1      -14.323473
    2      -13.883853
    3       -3.321757
    4       -0.798453
    5        1.328595
    6        1.370367
    7        1.681929
    8        1.717007
    9       10.213350
   10       13.610393
   11       13.731030
   12       14.304035
 
  0.1111111E+00  0.5555556E-01  0.0000000E+00  0.1543210E-02
    1      -14.028536
    2      -13.596317
    3       -2.964660
    4       -0.471696
    5        0.367792
    6        0.438675
    7        1.133034
    8        1.185459
    9       10.561222
   10       13.685278
   11       13.878571
   12       14.736906
 
  0.1666667E+00  0.5555556E-01  0.0000000E+00  0.1543210E-02
    1      -13.588109
    2      -13.166904
    3       -2.433575
    4       -0.887024
    5       -0.775741
    6        0.010829
    7        0.503609
    8        0.575108
    9       11.082311
   10       13.430751
   11       13.576550
   12       13.884290
 
  0.2222222E+00  0.5555556E-01  0.0000000E+00  0.1543210E-02
    1      -13.004706
    2      -12.598016
    3       -2.299687
    4       -2.149229
    5       -1.735056
    6       -0.103967
    7       -0.020076
    8        0.637186
    9       11.769642
   10       11.916583
   11       12.733946
   12       13.352221
 
  0.2777778E+00  0.5555556E-01  0.0000000E+00  0.1543210E-02
    1      -12.282250
    2      -11.893623
    3       -3.769031
    4       -3.582145
    5       -0.880999
    6       -0.633096
    7       -0.541588
    8        1.383793
    9       10.303608
   10       11.346299
   11       12.587302
   12       13.117628
 
  0.3333333E+00  0.5555556E-01  0.0000000E+00  0.1543210E-02
    1      -11.427717
    2      -11.061114
    3       -5.225220
    4       -5.004584
    5       -1.050983
    6       -0.954738
    7        0.104881
    8        2.196887
    9        8.733137
   10        9.951569
   11       12.835914
   12       13.289103
 
  0.3888889E+00  0.5555556E-01  0.0000000E+00  0.1543210E-02
    1      -10.455938
    2      -10.116987
    3       -6.611827
    4       -6.364360
    5       -1.338504
    6       -1.239338
    7        1.165913
    8        2.928274
    9        7.414895
   10        8.645741
   11       12.685456
   12       13.238153
 
  0.4444444E+00  0.5555556E-01  0.0000000E+00  0.1543210E-02
    1       -9.436035
    2       -9.164028
    3       -7.801065
    4       -7.572997
    5       -1.485099
    6       -1.384356
    7        2.108225
    8        3.218877
    9        6.754436
   10        7.641487
   11       12.602354
   12       13.181212
 
  0.5000000E+00  0.5555556E-01  0.0000000E+00  0.1543210E-02
    1       -9.437525
    2       -9.165300
    3       -7.799615
    4       -7.571245
    5       -1.485509
    6       -1.384749
    7        2.107390
    8        3.218960
    9        6.753949
   10        7.642735
   11       12.602823
   12       13.181688
 
 -0.4444444E+00  0.5555556E-01  0.0000000E+00  0.1543210E-02
    1      -10.457525
    2      -10.118558
    3       -6.609642
    4       -6.362097
    5       -1.339707
    6       -1.240489
    7        1.164646
    8        2.927610
    9        7.414827
   10        8.647704
   11       12.686851
   12       13.239515
 
 -0.3888889E+00  0.5555556E-01  0.0000000E+00  0.1543210E-02
    1      -11.429116
    2      -11.062510
    3       -5.222846
    4       -5.002119
    5       -1.052874
    6       -0.956553
    7        0.103624
    8        2.195907
    9        8.733099
   10        9.953603
   11       12.838125
   12       13.290337
 
 -0.3333333E+00  0.5555556E-01  0.0000000E+00  0.1543210E-02
    1      -12.283439
    2      -11.894806
    3       -3.766673
    4       -3.579700
    5       -0.882135
    6       -0.635440
    7       -0.543845
    8        1.382762
    9       10.303018
   10       11.348235
   11       12.586042
   12       13.120345
 
 -0.2777778E+00  0.5555556E-01  0.0000000E+00  0.1543210E-02
    1      -13.005678
    2      -12.598982
    3       -2.297720
    4       -2.147183
    5       -1.736023
    6       -0.106218
    7       -0.022299
    8        0.636268
    9       11.768295
   10       11.915027
   11       12.735715
   12       13.355821
 
 -0.2222222E+00  0.5555556E-01  0.0000000E+00  0.1543210E-02
    1      -13.588863
    2      -13.167653
    3       -2.434348
    4       -0.886354
    5       -0.775080
    6        0.010081
    7        0.502675
    8        0.573972
    9       11.081220
   10       13.428139
   11       13.580205
   12       13.888868
 
 -0.1666667E+00  0.5555556E-01  0.0000000E+00  0.1543210E-02
    1      -14.029069
    2      -13.596860
    3       -2.965221
    4       -0.472245
    5        0.364908
    6        0.435781
    7        1.136026
    8        1.187703
    9       10.560414
   10       13.688251
   11       13.882938
   12       14.724125
 
 -0.1111111E+00  0.5555556E-01  0.0000000E+00  0.1543210E-02
    1      -14.323799
    2      -13.884193
    3       -3.322138
    4       -0.798787
    5        1.318284
    6        1.361156
    7        1.691752
    8        1.726485
    9       10.212842
   10       13.611770
   11       13.734272
   12       14.318003
 
 -0.5555556E-01  0.5555556E-01  0.0000000E+00  0.7716049E-03
    1      -14.471462
    2      -14.028102
    3       -3.501187
    4       -0.963318
    5        1.845917
    6        1.889940
    7        2.006429
    8        2.046087
    9       10.039827
   10       13.509040
   11       13.609328
   12       13.800824
 
  0.1111111E+00  0.1111111E+00  0.0000000E+00  0.7716049E-03
    1      -13.661256
    2      -13.238226
    3       -2.521457
    4       -0.531568
    5       -0.468146
    6       -0.068403
    7        0.432859
    8        0.478801
    9       10.999038
   10       13.686832
   11       14.096098
   12       14.300481
 
  0.1666667E+00  0.1111111E+00  0.0000000E+00  0.1543210E-02
    1      -13.149988
    2      -12.739698
    3       -1.907588
    4       -1.688779
    5       -1.588155
    6       -0.320192
    7       -0.250452
    8        0.484831
    9       11.609643
   10       12.396249
   11       13.023908
   12       14.236458
 
  0.2222222E+00  0.1111111E+00  0.0000000E+00  0.1543210E-02
    1      -12.498091
    2      -12.104072
    3       -3.027625
    4       -2.877149
    5       -1.131917
    6       -0.975249
    7       -0.879586
    8        1.171960
    9       10.929319
   10       11.735064
   11       12.384788
   12       14.085618
 
  0.2777778E+00  0.1111111E+00  0.0000000E+00  0.1543210E-02
    1      -11.710988
    2      -11.336972
    3       -4.434607
    4       -4.241710
    5       -1.493545
    6       -1.382758
    7       -0.210587
    8        1.959945
    9        9.400098
   10       10.407094
   11       13.295551
   12       13.879582
 
  0.3333333E+00  0.1111111E+00  0.0000000E+00  0.1543210E-02
    1      -10.798785
    2      -10.448895
    3       -5.826682
    4       -5.599232
    5       -1.868325
    6       -1.749562
    7        0.821977
    8        2.765859
    9        7.967654
   10        9.103267
   11       13.639662
   12       14.142274
 
  0.3888889E+00  0.1111111E+00  0.0000000E+00  0.1543210E-02
    1       -9.789257
    2       -9.475835
    3       -7.125926
    4       -6.879805
    5       -2.095482
    6       -1.972590
    7        1.870557
    8        3.344578
    9        6.938190
   10        7.935136
   11       13.524163
   12       14.127716
 
  0.4444444E+00  0.1111111E+00  0.0000000E+00  0.1543210E-02
    1       -8.986049
    2       -8.818737
    3       -7.894799
    4       -7.774239
    5       -2.172155
    6       -2.047946
    7        2.500458
    8        3.390288
    9        6.707253
   10        7.294965
   11       13.482173
   12       14.101248
 
  0.5000000E+00  0.1111111E+00  0.0000000E+00  0.1543210E-02
    1       -9.792513
    2       -9.478999
    3       -7.121979
    4       -6.875608
    5       -2.096904
    6       -1.973946
    7        1.868239
    8        3.343993
    9        6.937035
   10        7.939035
   11       13.525780
   12       14.129320
 
 -0.4444444E+00  0.1111111E+00  0.0000000E+00  0.1543210E-02
    1      -10.801779
    2      -10.451870
    3       -5.822097
    4       -5.594526
    5       -1.871021
    6       -1.752113
    7        0.819434
    8        2.764015
    9        7.967109
   10        9.107606
   11       13.642795
   12       14.143277
 
 -0.3888889E+00  0.1111111E+00  0.0000000E+00  0.1543210E-02
    1      -11.713581
    2      -11.339554
    3       -4.430045
    4       -4.236937
    5       -1.497115
    6       -1.386172
    7       -0.212975
    8        1.957823
    9        9.398731
   10       10.411408
   11       13.292409
   12       13.883777
 
 -0.3333333E+00  0.1111111E+00  0.0000000E+00  0.1543210E-02
    1      -12.500252
    2      -12.106221
    3       -3.023878
    4       -2.873173
    5       -1.134013
    6       -0.978638
    7       -0.882902
    8        1.169972
    9       10.926116
   10       11.739212
   11       12.381812
   12       14.091841
 
 -0.2777778E+00  0.1111111E+00  0.0000000E+00  0.1543210E-02
    1      -13.151713
    2      -12.741412
    3       -1.909322
    4       -1.687975
    5       -1.587021
    6       -0.320983
    7       -0.251384
    8        0.483142
    9       11.607224
   10       12.390846
   11       13.027636
   12       14.244632
 
 -0.2222222E+00  0.1111111E+00  0.0000000E+00  0.1543210E-02
    1      -13.662548
    2      -13.239507
    3       -2.522786
    4       -0.537471
    5       -0.472533
    6       -0.069715
    7        0.437873
    8        0.484188
    9       10.997186
   10       13.679452
   11       14.108792
   12       14.314464
 
 -0.1666667E+00  0.1111111E+00  0.0000000E+00  0.1543210E-02
    1      -14.029402
    2      -13.597183
    3       -2.965565
    4       -0.472605
    5        0.355716
    6        0.427878
    7        1.144614
    8        1.197147
    9       10.559951
   10       13.698615
   11       13.891994
   12       14.711657
 
 -0.1111111E+00  0.1111111E+00  0.0000000E+00  0.7716049E-03
    1      -14.250188
    2      -13.812429
    3       -3.232885
    4       -0.717025
    5        1.012842
    6        1.083617
    7        1.583832
    8        1.638533
    9       10.298975
   10       13.524286
   11       13.687119
   12       14.695072
 
  0.1666667E+00  0.1666667E+00  0.0000000E+00  0.7716049E-03
    1      -12.570213
    2      -12.174456
    3       -2.604207
    4       -2.518650
    5       -1.235810
    6       -1.216011
    7       -1.173256
    8        1.100640
    9       11.193395
   10       11.849917
   11       12.307696
   12       15.032601
 
  0.2222222E+00  0.1666667E+00  0.0000000E+00  0.1543210E-02
    1      -11.853495
    2      -11.475715
    3       -3.739647
    4       -3.608087
    5       -2.016680
    6       -1.921432
    7       -0.370175
    8        1.837283
    9        9.857759
   10       10.618090
   11       13.165461
   12       15.191685
 
  0.2777778E+00  0.1666667E+00  0.0000000E+00  0.1543210E-02
    1      -11.007485
    2      -10.651685
    3       -5.021694
    4       -4.833914
    5       -2.567633
    6       -2.440063
    7        0.607776
    8        2.649294
    9        8.477097
   10        9.388489
   11       14.161955
   12       15.030857
 
  0.3333333E+00  0.1666667E+00  0.0000000E+00  0.1543210E-02
    1      -10.048439
    2       -9.720653
    3       -6.315780
    4       -6.089761
    5       -2.913847
    6       -2.770673
    7        1.666864
    8        3.407175
    9        7.248710
   10        8.210308
   11       14.828273
   12       15.289741
 
  0.3888889E+00  0.1666667E+00  0.0000000E+00  0.1543210E-02
    1       -9.047499
    2       -8.785713
    3       -7.454066
    4       -7.241751
    5       -3.082638
    6       -2.933386
    7        2.627210
    8        3.733874
    9        6.647594
   10        7.215697
   11       14.754526
   12       15.472919
 
  0.4444444E+00  0.1666667E+00  0.0000000E+00  0.1543210E-02
    1       -9.051950
    2       -8.789540
    3       -7.449812
    4       -7.236462
    5       -3.083538
    6       -2.934226
    7        2.624671
    8        3.734183
    9        6.643508
   10        7.221716
   11       14.755483
   12       15.473793
 
  0.5000000E+00  0.1666667E+00  0.0000000E+00  0.1543210E-02
    1      -10.053194
    2       -9.725381
    3       -6.309461
    4       -6.083060
    5       -2.916388
    6       -2.773048
    7        1.663152
    8        3.404971
    9        7.246320
   10        8.217493
   11       14.830882
   12       15.273006
 
 -0.4444444E+00  0.1666667E+00  0.0000000E+00  0.1543210E-02
    1      -11.011688
    2      -10.655882
    3       -5.015383
    4       -4.827169
    5       -2.571142
    6       -2.443368
    7        0.604107
    8        2.646039
    9        8.474068
   10        9.395827
   11       14.156210
   12       15.035429
 
 -0.3888889E+00  0.1666667E+00  0.0000000E+00  0.1543210E-02
    1      -11.857047
    2      -11.479265
    3       -3.735327
    4       -3.603055
    5       -2.019135
    6       -1.923685
    7       -0.373504
    8        1.834084
    9        9.852297
   10       10.625257
   11       13.160559
   12       15.199767
 
 -0.3333333E+00  0.1666667E+00  0.0000000E+00  0.1543210E-02
    1      -12.573098
    2      -12.177312
    3       -2.605928
    4       -2.518392
    5       -1.233966
    6       -1.218756
    7       -1.170198
    8        1.097814
    9       11.185401
   10       11.855934
   11       12.303715
   12       15.052225
 
 -0.2777778E+00  0.1666667E+00  0.0000000E+00  0.1543210E-02
    1      -13.152248
    2      -12.741945
    3       -1.909867
    4       -1.696792
    5       -1.594413
    6       -0.312142
    7       -0.241558
    8        0.482539
    9       11.606547
   10       12.387157
   11       13.027345
   12       14.263046
 
 -0.2222222E+00  0.1666667E+00  0.0000000E+00  0.1543210E-02
    1      -13.589719
    2      -13.168504
    3       -2.435235
    4       -0.898881
    5       -0.786775
    6        0.009151
    7        0.516385
    8        0.587901
    9       11.080081
   10       13.422106
   11       13.600110
   12       13.912939
 
 -0.1666667E+00  0.1666667E+00  0.0000000E+00  0.7716049E-03
    1      -13.882660
    2      -13.454149
    3       -2.788340
    4       -0.311214
    5       -0.179928
    6       -0.076234
    7        1.018997
    8        1.085909
    9       10.731485
   10       13.416254
   11       13.680356
   12       14.234958
 
  0.2222222E+00  0.2222222E+00  0.0000000E+00  0.7716049E-03
    1      -11.077379
    2      -10.719765
    3       -4.531066
    4       -4.424113
    5       -2.975446
    6       -2.895692
    7        0.535246
    8        2.607306
    9        8.704026
   10        9.467324
   11       14.092690
   12       16.302962
 
  0.2777778E+00  0.2222222E+00  0.0000000E+00  0.1543210E-02
    1      -10.181853
    2       -9.848752
    3       -5.557523
    4       -5.397310
    5       -3.656281
    6       -3.535849
    7        1.554903
    8        3.422602
    9        7.514624
   10        8.349815
   11       15.138330
   12       16.337256
 
  0.3333333E+00  0.2222222E+00  0.0000000E+00  0.1543210E-02
    1       -9.197175
    2       -8.900473
    3       -6.691477
    4       -6.483867
    5       -4.017054
    6       -3.862387
    7        2.611051
    8        4.079586
    9        6.545645
   10        7.311310
   11       16.116609
   12       16.327725
 
  0.3888889E+00  0.2222222E+00  0.0000000E+00  0.1543210E-02
    1       -8.419061
    2       -8.259923
    3       -7.400898
    4       -7.312651
    5       -4.127954
    6       -3.963830
    7        3.285690
    8        4.143638
    9        6.467238
   10        6.550193
   11       16.120598
   12       17.076233
 
  0.4444444E+00  0.2222222E+00  0.0000000E+00  0.1543210E-02
    1       -9.203710
    2       -8.906896
    3       -6.684107
    4       -6.475571
    5       -4.018756
    6       -3.863878
    7        2.606580
    8        4.078010
    9        6.539473
   10        7.321924
   11       16.115060
   12       16.319584
 
  0.5000000E+00  0.2222222E+00  0.0000000E+00  0.1543210E-02
    1      -10.187865
    2       -9.854783
    3       -5.550609
    4       -5.389331
    5       -3.658316
    6       -3.537493
    7        1.550093
    8        3.418354
    9        7.509298
   10        8.360453
   11       15.129684
   12       16.340695
 
 -0.4444444E+00  0.2222222E+00  0.0000000E+00  0.1543210E-02
    1      -11.082566
    2      -10.724964
    3       -4.529162
    4       -4.419677
    5       -2.974747
    6       -2.893401
    7        0.530691
    8        2.602707
    9        8.696713
   10        9.477054
   11       14.085549
   12       16.324279
 
 -0.3888889E+00  0.2222222E+00  0.0000000E+00  0.1543210E-02
    1      -11.857816
    2      -11.480030
    3       -3.743755
    4       -3.610083
    5       -2.010399
    6       -1.913836
    7       -0.374211
    8        1.833077
    9        9.848832
   10       10.624975
   11       13.159690
   12       15.226866
 
 -0.3333333E+00  0.2222222E+00  0.0000000E+00  0.1543210E-02
    1      -12.501538
    2      -12.107508
    3       -3.035850
    4       -2.884301
    5       -1.135280
    6       -0.964395
    7       -0.868316
    8        1.168430
    9       10.919712
   10       11.738018
   11       12.380326
   12       14.118908
 
 -0.2777778E+00  0.2222222E+00  0.0000000E+00  0.1543210E-02
    1      -13.007284
    2      -12.600583
    3       -2.310885
    4       -2.159825
    5       -1.737648
    6       -0.089953
    7       -0.006089
    8        0.634465
    9       11.766387
   10       11.906862
   11       12.733752
   12       13.381729
 
 -0.2222222E+00  0.2222222E+00  0.0000000E+00  0.7716049E-03
    1      -13.370875
    2      -12.955086
    3       -2.172647
    4       -1.573359
    5       -1.434488
    6        0.245275
    7        0.420773
    8        0.496767
    9       11.333295
   10       12.774316
   11       13.198518
   12       13.563698
 
  0.2777778E+00  0.2777778E+00  0.0000000E+00  0.7716049E-03
    1       -9.254231
    2       -8.951252
    3       -6.174399
    4       -6.047881
    5       -4.515402
    6       -4.427785
    7        2.593494
    8        4.218117
    9        6.507019
   10        7.363492
   11       16.171804
   12       17.084124
 
  0.3333333E+00  0.2777778E+00  0.0000000E+00  0.1543210E-02
    1       -8.293360
    2       -8.049513
    3       -6.995331
    4       -6.844807
    5       -4.965240
    6       -4.843686
    7        3.598780
    8        4.716702
    9        5.775443
   10        6.519946
   11       16.734723
   12       16.808335
 
  0.3888889E+00  0.2777778E+00  0.0000000E+00  0.1543210E-02
    1       -8.301140
    2       -8.056618
    3       -6.989262
    4       -6.835637
    5       -4.965539
    6       -4.843667
    7        3.594732
    8        4.717734
    9        5.766638
   10        6.530285
   11       16.777186
   12       16.806882
 
  0.4444444E+00  0.2777778E+00  0.0000000E+00  0.1543210E-02
    1       -9.262260
    2       -8.959396
    3       -6.169549
    4       -6.040059
    5       -4.514439
    6       -4.424979
    7        2.588072
    8        4.212490
    9        6.500882
   10        7.375955
   11       16.159798
   12       17.113551
 
  0.5000000E+00  0.2777778E+00  0.0000000E+00  0.1543210E-02
    1      -10.188908
    2       -9.855891
    3       -5.557883
    4       -5.395387
    5       -3.650458
    6       -3.528464
    7        1.549402
    8        3.416081
    9        7.507619
   10        8.360289
   11       15.128707
   12       16.375224
 
 -0.4444444E+00  0.2777778E+00  0.0000000E+00  0.1543210E-02
    1      -11.013452
    2      -10.657689
    3       -5.026049
    4       -4.837118
    5       -2.557616
    6       -2.429464
    7        0.602646
    8        2.643202
    9        8.469323
   10        9.394724
   11       14.154640
   12       15.068508
 
 -0.3888889E+00  0.2777778E+00  0.0000000E+00  0.1543210E-02
    1      -11.715854
    2      -11.341846
    3       -4.442097
    4       -4.248537
    5       -1.480606
    6       -1.369661
    7       -0.215059
    8        1.954782
    9        9.391579
   10       10.408844
   11       13.291187
   12       13.914408
 
 -0.3333333E+00  0.2777778E+00  0.0000000E+00  0.1543210E-02
    1      -12.286018
    2      -11.897389
    3       -3.779158
    4       -3.591808
    5       -0.884627
    6       -0.617852
    7       -0.526399
    8        1.379680
    9       10.294337
   10       11.344758
   11       12.585115
   12       13.149247
 
 -0.2777778E+00  0.2777778E+00  0.0000000E+00  0.7716049E-03
    1      -12.717822
    2      -12.318325
    3       -3.052069
    4       -2.878039
    5       -1.394509
    6       -0.135036
    7       -0.053073
    8        0.935796
    9       11.157975
   10       12.085360
   11       12.146021
   12       12.945663
 
  0.3333333E+00  0.3333333E+00  0.0000000E+00  0.7716049E-03
    1       -7.546344
    2       -7.399020
    3       -7.396410
    4       -7.252803
    5       -5.344179
    6       -5.342774
    7        4.302143
    8        5.102624
    9        5.114249
   10        6.122479
   11       16.527869
   12       16.557062
 
  0.3888889E+00  0.3333333E+00  0.0000000E+00  0.1543210E-02
    1       -8.303625
    2       -8.060744
    3       -6.991021
    4       -6.838419
    5       -4.960236
    6       -4.836993
    7        3.595503
    8        4.705203
    9        5.773667
   10        6.531708
   11       16.708098
   12       16.877848
 
  0.4444444E+00  0.3333333E+00  0.0000000E+00  0.1543210E-02
    1       -9.206456
    2       -8.910208
    3       -6.691432
    4       -6.482894
    5       -4.007511
    6       -3.852166
    7        2.605965
    8        4.068932
    9        6.541377
   10        7.321546
   11       16.134254
   12       16.335629
 
  0.5000000E+00  0.3333333E+00  0.0000000E+00  0.1543210E-02
    1      -10.056363
    2       -9.728795
    3       -6.319109
    4       -6.092532
    5       -2.901450
    6       -2.758055
    7        1.661293
    8        3.397953
    9        7.243934
   10        8.215308
   11       14.863037
   12       15.280659
 
 -0.4444444E+00  0.3333333E+00  0.0000000E+00  0.1543210E-02
    1      -10.805338
    2      -10.455554
    3       -5.832855
    4       -5.604998
    5       -1.853775
    6       -1.734982
    7        0.816668
    8        2.758158
    9        7.961715
   10        9.103635
   11       13.674412
   12       14.168074
 
 -0.3888889E+00  0.3333333E+00  0.0000000E+00  0.1543210E-02
    1      -11.432924
    2      -11.066366
    3       -5.233906
    4       -5.012935
    5       -1.034628
    6       -0.938467
    7        0.100279
    8        2.190725
    9        8.725720
   10        9.948741
   11       12.868125
   12       13.315445
 
 -0.3333333E+00  0.3333333E+00  0.0000000E+00  0.7716049E-03
    1      -11.928682
    2      -11.548980
    3       -4.538121
    4       -4.330235
    5       -0.601589
    6       -0.515460
    7       -0.470503
    8        1.724675
    9        9.522494
   10       10.717200
   11       12.623204
   12       12.945439
 
  0.3888889E+00  0.3888889E+00  0.0000000E+00  0.7716049E-03
    1       -8.427778
    2       -8.272245
    3       -7.399570
    4       -7.313451
    5       -4.116641
    6       -3.952182
    7        3.286775
    8        4.124988
    9        6.467477
   10        6.557769
   11       16.156978
   12       17.107908
 
  0.4444444E+00  0.3888889E+00  0.0000000E+00  0.1543210E-02
    1       -9.057855
    2       -8.797435
    3       -7.454771
    4       -7.242876
    5       -3.068695
    6       -2.919388
    7        2.624564
    8        3.717790
    9        6.648876
   10        7.217650
   11       14.791820
   12       15.510774
 
  0.5000000E+00  0.3888889E+00  0.0000000E+00  0.1543210E-02
    1       -9.797958
    2       -9.485086
    3       -7.129949
    4       -6.883854
    5       -2.079681
    6       -1.956840
    7        1.865895
    8        3.331810
    9        6.937539
   10        7.933283
   11       13.560400
   12       14.164050
 
 -0.4444444E+00  0.3888889E+00  0.0000000E+00  0.1543210E-02
    1      -10.462929
    2      -10.124225
    3       -6.618606
    4       -6.370993
    5       -1.321218
    6       -1.222171
    7        1.160970
    8        2.918381
    9        7.411525
   10        8.641370
   11       12.719969
   12       13.272451
 
 -0.3888889E+00  0.3888889E+00  0.0000000E+00  0.7716049E-03
    1      -11.013094
    2      -10.657646
    3       -5.975857
    4       -5.737859
    5       -0.950541
    6       -0.861733
    7        0.563790
    8        2.522435
    9        8.030281
   10        9.329559
   11       12.464749
   12       12.985497
 
  0.4444444E+00  0.4444444E+00  0.0000000E+00  0.7716049E-03
    1       -8.995750
    2       -8.832221
    3       -7.895327
    4       -7.777415
    5       -2.155451
    6       -2.031339
    7        2.501025
    8        3.370045
    9        6.715112
   10        7.286410
   11       13.517985
   12       14.137394
 
  0.5000000E+00  0.4444444E+00  0.0000000E+00  0.1543210E-02
    1       -9.445587
    2       -9.175192
    3       -7.804188
    4       -7.577078
    5       -1.467159
    6       -1.366538
    7        2.106063
    8        3.201489
    9        6.758984
   10        7.633098
   11       12.637149
   12       13.216081
 
 -0.4444444E+00  0.4444444E+00  0.0000000E+00  0.7716049E-03
    1       -9.997875
    2       -9.679169
    3       -7.301295
    4       -7.047387
    5       -1.165670
    6       -1.075032
    7        1.610045
    8        3.077083
    9        6.980432
   10        8.117910
   11       12.343912
   12       12.906245
 
  0.5000000E+00  0.5000000E+00  0.0000000E+00  0.3858025E-03
    1       -9.185527
    2       -9.019308
    3       -8.080313
    4       -7.956915
    5       -1.237914
    6       -1.147014
    7        2.234664
    8        3.111867
    9        6.718172
   10        7.495500
   11       12.301973
   12       12.875834
 