 running on    6 total cores
 distrk:  each k-point on    6 cores,    1 groups
 distr:  one band on    3 cores,    2 groups
 using from now: INCAR     
 vasp.5.3.5 31Mar14 (build Nov 02 2014 15:17:37) complex                        
  
 POSCAR found type information on POSCAR  C 
 POSCAR found :  1 types and       4 ions
 scaLAPACK will be used
 LDA part: xc-table for Pade appr. of Perdew
 POSCAR, INCAR and KPOINTS ok, starting setup
 WARNING: small aliasing (wrap around) errors must be expected
 FFT: planning ...
 WAVECAR not read
 WARNING: random wavefunctions but no delay for mixing, default for NELMDL
 entering main loop
       N       E                     dE             d eps       ncg     rms          rms(c)
DAV:   1     0.525812151595E+02    0.52581E+02   -0.90779E+03 10936   0.139E+03
DAV:   2    -0.352362289246E+02   -0.87817E+02   -0.81023E+02 15308   0.241E+02
DAV:   3    -0.390553466187E+02   -0.38191E+01   -0.37904E+01 14020   0.507E+01
DAV:   4    -0.391014572319E+02   -0.46111E-01   -0.46048E-01 13416   0.642E+00
DAV:   5    -0.391024171520E+02   -0.95992E-03   -0.95926E-03 13556   0.893E-01    0.780E+00
DAV:   6    -0.373276279767E+02    0.17748E+01   -0.17570E+00 12532   0.933E+00    0.409E+00
DAV:   7    -0.367717506622E+02    0.55588E+00   -0.17864E+00 13008   0.952E+00    0.673E-01
DAV:   8    -0.367786809194E+02   -0.69303E-02   -0.44484E-02 12652   0.145E+00    0.841E-02
DAV:   9    -0.367788583083E+02   -0.17739E-03   -0.10001E-03 13760   0.273E-01    0.371E-02
DAV:  10    -0.367789554144E+02   -0.97106E-04   -0.10457E-04 13436   0.926E-02    0.528E-03
DAV:  11    -0.367789563459E+02   -0.93154E-06   -0.30605E-06 13556   0.150E-02
   1 F= -.37444102E+02 E0= -.37444102E+02  d E =-.374441E+02
 curvature:   0.00 expect dE= 0.000E+00 dE for cont linesearch  0.000E+00
 trial: gam= 0.00000 g(F)=  0.236E-04 g(S)=  0.000E+00 ort = 0.000E+00 (trialstep = 0.100E+01)
 search vector abs. value=  0.236E-04
 reached required accuracy - stopping structural energy minimisation
