mesh: [     9,     9,     4 ]
nqpoint: 50     
natom:   4      
reciprocal_lattice:
- [   0.40532700,   0.23401531,   0.00000000 ] # a*
- [  -0.00000030,   0.46803114,   0.00000000 ] # b*
- [   0.00000000,   0.00000000,   0.18723365 ] # c*
phonon:
- q-position: [    0.0000000,    0.0000000,    0.1250000 ]
  weight: 2    
  band:
  - # 1
    frequency:   -33.3269145349
  - # 2
    frequency:   -33.3263936871
  - # 3
    frequency:   -30.9322921896
  - # 4
    frequency:   -30.9322588774
  - # 5
    frequency:     0.6961773551
  - # 6
    frequency:     0.6962255463
  - # 7
    frequency:     2.2528719618
  - # 8
    frequency:     2.8132786608
  - # 9
    frequency:     2.8135639286
  - # 10
    frequency:    10.6411022791
  - # 11
    frequency:    18.9669560418
  - # 12
    frequency:    19.1953571241

- q-position: [    0.1111111,    0.0000000,    0.1250000 ]
  weight: 8    
  band:
  - # 1
    frequency:   -31.9452286352
  - # 2
    frequency:   -31.9267002998
  - # 3
    frequency:   -29.7226705793
  - # 4
    frequency:   -29.6406775541
  - # 5
    frequency:     2.1984880579
  - # 6
    frequency:     4.6969953317
  - # 7
    frequency:     4.9245732915
  - # 8
    frequency:     5.9562292586
  - # 9
    frequency:     6.5986235922
  - # 10
    frequency:    11.1665770576
  - # 11
    frequency:    18.8039484074
  - # 12
    frequency:    19.0420035906

- q-position: [    0.2222222,    0.0000000,    0.1250000 ]
  weight: 8    
  band:
  - # 1
    frequency:   -27.9967141466
  - # 2
    frequency:   -27.9879498099
  - # 3
    frequency:   -26.2744768139
  - # 4
    frequency:   -26.0262466861
  - # 5
    frequency:     3.8452672221
  - # 6
    frequency:     7.0894270493
  - # 7
    frequency:     8.2489916891
  - # 8
    frequency:    10.9963620718
  - # 9
    frequency:    11.3840625019
  - # 10
    frequency:    12.4448736517
  - # 11
    frequency:    18.3557192592
  - # 12
    frequency:    18.5726064117

- q-position: [    0.3333333,    0.0000000,    0.1250000 ]
  weight: 8    
  band:
  - # 1
    frequency:   -22.4681571939
  - # 2
    frequency:   -21.9726720831
  - # 3
    frequency:   -21.0906462055
  - # 4
    frequency:   -20.9934137473
  - # 5
    frequency:     1.4153004109
  - # 6
    frequency:     6.8752094075
  - # 7
    frequency:    11.3631134356
  - # 8
    frequency:    13.8951785461
  - # 9
    frequency:    14.4926318267
  - # 10
    frequency:    14.7140038011
  - # 11
    frequency:    17.6524886959
  - # 12
    frequency:    17.8444835206

- q-position: [    0.4444444,    0.0000000,    0.1250000 ]
  weight: 8    
  band:
  - # 1
    frequency:   -17.6279046412
  - # 2
    frequency:   -16.7008996216
  - # 3
    frequency:   -15.0034127204
  - # 4
    frequency:   -14.4723503755
  - # 5
    frequency:    -8.2512799137
  - # 6
    frequency:    -5.4386859908
  - # 7
    frequency:    13.6434476763
  - # 8
    frequency:    14.9325079078
  - # 9
    frequency:    16.1370093806
  - # 10
    frequency:    16.1767922062
  - # 11
    frequency:    16.7292064936
  - # 12
    frequency:    17.1526807395

- q-position: [    0.1111111,    0.1111111,    0.1250000 ]
  weight: 4    
  band:
  - # 1
    frequency:   -29.2646802356
  - # 2
    frequency:   -29.2532464638
  - # 3
    frequency:   -27.3427004822
  - # 4
    frequency:   -27.2471574485
  - # 5
    frequency:     4.4568699036
  - # 6
    frequency:     6.3778200196
  - # 7
    frequency:     7.2733278200
  - # 8
    frequency:     9.5221797107
  - # 9
    frequency:    10.3280425455
  - # 10
    frequency:    12.0850423240
  - # 11
    frequency:    18.5240851741
  - # 12
    frequency:    18.7091011907

- q-position: [    0.2222222,    0.1111111,    0.1250000 ]
  weight: 8    
  band:
  - # 1
    frequency:   -24.5333064307
  - # 2
    frequency:   -24.2204258718
  - # 3
    frequency:   -23.0257685548
  - # 4
    frequency:   -22.8429219391
  - # 5
    frequency:     4.9258596114
  - # 6
    frequency:     7.8205102985
  - # 7
    frequency:    10.2801503491
  - # 8
    frequency:    13.0039339282
  - # 9
    frequency:    13.4362132457
  - # 10
    frequency:    13.7788957860
  - # 11
    frequency:    17.9730364956
  - # 12
    frequency:    18.0969429724

- q-position: [    0.3333333,    0.1111111,    0.1250000 ]
  weight: 8    
  band:
  - # 1
    frequency:   -19.1614192199
  - # 2
    frequency:   -18.2293452568
  - # 3
    frequency:   -17.3780186275
  - # 4
    frequency:   -16.9825170014
  - # 5
    frequency:    -3.0654022818
  - # 6
    frequency:     5.9615713697
  - # 7
    frequency:    12.8491772150
  - # 8
    frequency:    14.6918200120
  - # 9
    frequency:    15.1202367849
  - # 10
    frequency:    15.7718588478
  - # 11
    frequency:    17.1264023218
  - # 12
    frequency:    17.3687186611

- q-position: [    0.4444444,    0.1111111,    0.1250000 ]
  weight: 8    
  band:
  - # 1
    frequency:   -16.3626197552
  - # 2
    frequency:   -15.7993777375
  - # 3
    frequency:   -11.3123790953
  - # 4
    frequency:    -9.6237800979
  - # 5
    frequency:    -9.2577179163
  - # 6
    frequency:    -8.7887328195
  - # 7
    frequency:    14.3013544409
  - # 8
    frequency:    15.1510061026
  - # 9
    frequency:    15.6915655064
  - # 10
    frequency:    16.3422880702
  - # 11
    frequency:    16.4849990316
  - # 12
    frequency:    16.8996277649

- q-position: [   -0.4444444,    0.1111111,    0.1250000 ]
  weight: 8    
  band:
  - # 1
    frequency:   -19.1716475240
  - # 2
    frequency:   -18.2682985668
  - # 3
    frequency:   -17.2709622751
  - # 4
    frequency:   -17.0263556762
  - # 5
    frequency:    -1.9863760166
  - # 6
    frequency:     5.4978536694
  - # 7
    frequency:    12.9552170743
  - # 8
    frequency:    14.6000069586
  - # 9
    frequency:    15.1034491526
  - # 10
    frequency:    15.7698718457
  - # 11
    frequency:    17.1221797489
  - # 12
    frequency:    17.3718236568

- q-position: [   -0.3333333,    0.1111111,    0.1250000 ]
  weight: 8    
  band:
  - # 1
    frequency:   -24.5736760532
  - # 2
    frequency:   -24.2141024587
  - # 3
    frequency:   -23.0573078109
  - # 4
    frequency:   -22.7722840580
  - # 5
    frequency:     5.1919707225
  - # 6
    frequency:     7.6771588945
  - # 7
    frequency:    10.4052654035
  - # 8
    frequency:    13.0185300008
  - # 9
    frequency:    13.3470157712
  - # 10
    frequency:    13.7444347301
  - # 11
    frequency:    17.9019834836
  - # 12
    frequency:    18.1611338393

- q-position: [   -0.2222222,    0.1111111,    0.1250000 ]
  weight: 8    
  band:
  - # 1
    frequency:   -29.3281040925
  - # 2
    frequency:   -29.2470631348
  - # 3
    frequency:   -27.3314020851
  - # 4
    frequency:   -27.1986609916
  - # 5
    frequency:     4.5660061778
  - # 6
    frequency:     6.3284795113
  - # 7
    frequency:     7.3998610357
  - # 8
    frequency:     9.3587534388
  - # 9
    frequency:    10.4602877743
  - # 10
    frequency:    12.0175223909
  - # 11
    frequency:    18.4456613056
  - # 12
    frequency:    18.7816697081

- q-position: [   -0.1111111,    0.1111111,    0.1250000 ]
  weight: 4    
  band:
  - # 1
    frequency:   -31.9812414409
  - # 2
    frequency:   -31.9166140461
  - # 3
    frequency:   -29.6834786673
  - # 4
    frequency:   -29.6530747136
  - # 5
    frequency:     3.3153083460
  - # 6
    frequency:     4.2330867258
  - # 7
    frequency:     4.7793589002
  - # 8
    frequency:     5.2760182476
  - # 9
    frequency:     7.1611555127
  - # 10
    frequency:    11.1403409992
  - # 11
    frequency:    18.7680032355
  - # 12
    frequency:    19.0757190801

- q-position: [    0.2222222,    0.2222222,    0.1250000 ]
  weight: 4    
  band:
  - # 1
    frequency:   -19.8719027196
  - # 2
    frequency:   -18.9275556003
  - # 3
    frequency:   -18.2251712596
  - # 4
    frequency:   -17.5747160778
  - # 5
    frequency:     5.4325455608
  - # 6
    frequency:     8.0369099361
  - # 7
    frequency:    12.5105439754
  - # 8
    frequency:    14.4104105509
  - # 9
    frequency:    14.5769522742
  - # 10
    frequency:    15.2402635061
  - # 11
    frequency:    17.3742971595
  - # 12
    frequency:    17.3869671277

- q-position: [    0.3333333,    0.2222222,    0.1250000 ]
  weight: 8    
  band:
  - # 1
    frequency:   -15.9005453500
  - # 2
    frequency:   -15.6296053284
  - # 3
    frequency:   -10.9117844013
  - # 4
    frequency:   -10.5360497848
  - # 5
    frequency:    -1.8959782992
  - # 6
    frequency:     5.1325224384
  - # 7
    frequency:    14.3538638161
  - # 8
    frequency:    14.6698218555
  - # 9
    frequency:    15.4480701952
  - # 10
    frequency:    15.4958816004
  - # 11
    frequency:    16.4904136118
  - # 12
    frequency:    16.7395673628

- q-position: [   -0.5555556,    0.2222222,    0.1250000 ]
  weight: 8    
  band:
  - # 1
    frequency:   -15.9237347739
  - # 2
    frequency:   -15.6409447722
  - # 3
    frequency:   -11.0683802241
  - # 4
    frequency:   -10.2378574821
  - # 5
    frequency:     1.9073503506
  - # 6
    frequency:     4.3567477232
  - # 7
    frequency:    14.4744886560
  - # 8
    frequency:    14.5631909166
  - # 9
    frequency:    15.2980188416
  - # 10
    frequency:    15.5611332813
  - # 11
    frequency:    16.5341890996
  - # 12
    frequency:    16.7166026939

- q-position: [   -0.4444444,    0.2222222,    0.1250000 ]
  weight: 8    
  band:
  - # 1
    frequency:   -19.8758410554
  - # 2
    frequency:   -19.0482611924
  - # 3
    frequency:   -18.1374804162
  - # 4
    frequency:   -17.5132570138
  - # 5
    frequency:     6.1949776377
  - # 6
    frequency:     7.5577805611
  - # 7
    frequency:    12.6821818052
  - # 8
    frequency:    14.2724089988
  - # 9
    frequency:    14.4301936047
  - # 10
    frequency:    15.3066935871
  - # 11
    frequency:    17.2630620850
  - # 12
    frequency:    17.4922174022

- q-position: [   -0.3333333,    0.2222222,    0.1250000 ]
  weight: 8    
  band:
  - # 1
    frequency:   -24.5992128643
  - # 2
    frequency:   -24.2769366168
  - # 3
    frequency:   -22.9919397237
  - # 4
    frequency:   -22.7489775950
  - # 5
    frequency:     5.8859197556
  - # 6
    frequency:     7.1605657220
  - # 7
    frequency:    10.4561681146
  - # 8
    frequency:    12.7551788856
  - # 9
    frequency:    13.3099232255
  - # 10
    frequency:    13.9949754720
  - # 11
    frequency:    17.8265348223
  - # 12
    frequency:    18.2338063171

- q-position: [   -0.2222222,    0.2222222,    0.1250000 ]
  weight: 4    
  band:
  - # 1
    frequency:   -28.1346275299
  - # 2
    frequency:   -27.9464676476
  - # 3
    frequency:   -26.1150753946
  - # 4
    frequency:   -26.0875077559
  - # 5
    frequency:     5.1002565784
  - # 6
    frequency:     6.2338495811
  - # 7
    frequency:     8.3736620307
  - # 8
    frequency:    10.3869788968
  - # 9
    frequency:    11.9590269835
  - # 10
    frequency:    12.3685160558
  - # 11
    frequency:    18.2473994098
  - # 12
    frequency:    18.6745591872

- q-position: [    0.3333333,    0.3333333,    0.1250000 ]
  weight: 4    
  band:
  - # 1
    frequency:   -14.7503263382
  - # 2
    frequency:   -14.2904026313
  - # 3
    frequency:    -4.4445425293
  - # 4
    frequency:    -2.7786262897
  - # 5
    frequency:     1.8124996508
  - # 6
    frequency:     2.6353113841
  - # 7
    frequency:    13.9919497364
  - # 8
    frequency:    14.3615712622
  - # 9
    frequency:    15.4688386243
  - # 10
    frequency:    15.7857872396
  - # 11
    frequency:    16.0434705831
  - # 12
    frequency:    16.1011577704

- q-position: [   -0.5555556,    0.3333333,    0.1250000 ]
  weight: 8    
  band:
  - # 1
    frequency:   -16.0677158308
  - # 2
    frequency:   -15.4858728610
  - # 3
    frequency:   -10.9655090455
  - # 4
    frequency:   -10.3530871661
  - # 5
    frequency:     1.9988218569
  - # 6
    frequency:     4.2814286586
  - # 7
    frequency:    14.4560253311
  - # 8
    frequency:    14.7852628135
  - # 9
    frequency:    15.3154802318
  - # 10
    frequency:    15.3742090037
  - # 11
    frequency:    16.5512487018
  - # 12
    frequency:    16.6822043904

- q-position: [   -0.4444444,    0.3333333,    0.1250000 ]
  weight: 8    
  band:
  - # 1
    frequency:   -19.0920338287
  - # 2
    frequency:   -18.4145456623
  - # 3
    frequency:   -17.6016478999
  - # 4
    frequency:   -16.6197901318
  - # 5
    frequency:     1.6184728505
  - # 6
    frequency:     4.8327055607
  - # 7
    frequency:    12.9930367340
  - # 8
    frequency:    14.5667816738
  - # 9
    frequency:    15.0661168309
  - # 10
    frequency:    15.8192905068
  - # 11
    frequency:    17.0389657673
  - # 12
    frequency:    17.4528182598

- q-position: [   -0.3333333,    0.3333333,    0.1250000 ]
  weight: 4    
  band:
  - # 1
    frequency:   -22.3311803979
  - # 2
    frequency:   -22.3268156557
  - # 3
    frequency:   -21.1535852442
  - # 4
    frequency:   -20.7106339457
  - # 5
    frequency:     3.7392001196
  - # 6
    frequency:     5.9207177600
  - # 7
    frequency:    11.4884357565
  - # 8
    frequency:    13.7961897828
  - # 9
    frequency:    14.0850209891
  - # 10
    frequency:    15.1239315219
  - # 11
    frequency:    17.5008306357
  - # 12
    frequency:    17.9900606557

- q-position: [   -0.5555556,    0.4444444,    0.1250000 ]
  weight: 4    
  band:
  - # 1
    frequency:   -16.4624189295
  - # 2
    frequency:   -15.6904973516
  - # 3
    frequency:   -11.2361534597
  - # 4
    frequency:    -9.4443908268
  - # 5
    frequency:    -9.4016077132
  - # 6
    frequency:    -8.9350377981
  - # 7
    frequency:    14.2952880336
  - # 8
    frequency:    15.1663470037
  - # 9
    frequency:    15.9819648776
  - # 10
    frequency:    16.0563437745
  - # 11
    frequency:    16.5014240054
  - # 12
    frequency:    16.8744123674

- q-position: [   -0.4444444,    0.4444444,    0.1250000 ]
  weight: 4    
  band:
  - # 1
    frequency:   -17.5479439571
  - # 2
    frequency:   -16.7916375910
  - # 3
    frequency:   -15.3801298308
  - # 4
    frequency:   -14.0633198633
  - # 5
    frequency:    -7.8248875150
  - # 6
    frequency:    -6.0574146270
  - # 7
    frequency:    13.6900659704
  - # 8
    frequency:    14.8874894632
  - # 9
    frequency:    15.9868773054
  - # 10
    frequency:    16.3308888372
  - # 11
    frequency:    16.6919867867
  - # 12
    frequency:    17.1906597734

- q-position: [    0.0000000,    0.0000000,    0.3750000 ]
  weight: 2    
  band:
  - # 1
    frequency:   -32.7632556159
  - # 2
    frequency:   -32.7628423978
  - # 3
    frequency:   -31.7756196620
  - # 4
    frequency:   -31.7754066409
  - # 5
    frequency:     1.7023728213
  - # 6
    frequency:     1.7025749243
  - # 7
    frequency:     2.4438644175
  - # 8
    frequency:     2.4441329679
  - # 9
    frequency:     6.3100592430
  - # 10
    frequency:     9.2041300774
  - # 11
    frequency:    19.0769407717
  - # 12
    frequency:    19.1739117539

- q-position: [    0.1111111,    0.0000000,    0.3750000 ]
  weight: 8    
  band:
  - # 1
    frequency:   -31.4217436691
  - # 2
    frequency:   -31.3863823733
  - # 3
    frequency:   -30.5048724231
  - # 4
    frequency:   -30.4434379900
  - # 5
    frequency:     3.2736006616
  - # 6
    frequency:     4.3282063489
  - # 7
    frequency:     6.1724608441
  - # 8
    frequency:     6.4378724106
  - # 9
    frequency:     7.4144886884
  - # 10
    frequency:     9.8749962278
  - # 11
    frequency:    18.9109967444
  - # 12
    frequency:    19.0114097015

- q-position: [    0.2222222,    0.0000000,    0.3750000 ]
  weight: 8    
  band:
  - # 1
    frequency:   -27.5850181674
  - # 2
    frequency:   -27.5238641914
  - # 3
    frequency:   -26.8775301044
  - # 4
    frequency:   -26.7108423243
  - # 5
    frequency:     5.0353343321
  - # 6
    frequency:     6.3275273509
  - # 7
    frequency:     9.7737349509
  - # 8
    frequency:    11.1257695987
  - # 9
    frequency:    11.2831590313
  - # 10
    frequency:    11.4704776222
  - # 11
    frequency:    18.4420561467
  - # 12
    frequency:    18.5326686744

- q-position: [    0.3333333,    0.0000000,    0.3750000 ]
  weight: 8    
  band:
  - # 1
    frequency:   -22.1016579004
  - # 2
    frequency:   -21.7708500373
  - # 3
    frequency:   -21.4924324976
  - # 4
    frequency:   -21.4062200931
  - # 5
    frequency:     3.9128117479
  - # 6
    frequency:     5.8338643312
  - # 7
    frequency:    12.2059159368
  - # 8
    frequency:    13.2452578229
  - # 9
    frequency:    14.5657327961
  - # 10
    frequency:    14.6578609839
  - # 11
    frequency:    17.7160354717
  - # 12
    frequency:    17.7951358190

- q-position: [    0.4444444,    0.0000000,    0.3750000 ]
  weight: 8    
  band:
  - # 1
    frequency:   -17.3801918999
  - # 2
    frequency:   -16.9966452038
  - # 3
    frequency:   -14.8472268889
  - # 4
    frequency:   -14.6278228549
  - # 5
    frequency:    -7.5843834508
  - # 6
    frequency:    -6.4515020223
  - # 7
    frequency:    14.0560497047
  - # 8
    frequency:    14.5941084001
  - # 9
    frequency:    16.1495400839
  - # 10
    frequency:    16.1661353814
  - # 11
    frequency:    16.8396703534
  - # 12
    frequency:    17.0212286500

- q-position: [    0.1111111,    0.1111111,    0.3750000 ]
  weight: 4    
  band:
  - # 1
    frequency:   -28.8108263492
  - # 2
    frequency:   -28.7768224461
  - # 3
    frequency:   -28.0176798991
  - # 4
    frequency:   -27.9489985064
  - # 5
    frequency:     5.1687341907
  - # 6
    frequency:     5.9585358880
  - # 7
    frequency:     9.0795038493
  - # 8
    frequency:     9.7437253435
  - # 9
    frequency:    10.0883799552
  - # 10
    frequency:    11.0054167631
  - # 11
    frequency:    18.6043468906
  - # 12
    frequency:    18.6823425602

- q-position: [    0.2222222,    0.1111111,    0.3750000 ]
  weight: 8    
  band:
  - # 1
    frequency:   -24.1592222639
  - # 2
    frequency:   -23.9046853442
  - # 3
    frequency:   -23.5296137614
  - # 4
    frequency:   -23.3362294064
  - # 5
    frequency:     5.9629187754
  - # 6
    frequency:     7.1358381070
  - # 7
    frequency:    11.3592399802
  - # 8
    frequency:    12.6476627691
  - # 9
    frequency:    13.2331948012
  - # 10
    frequency:    13.5550129892
  - # 11
    frequency:    18.0201223784
  - # 12
    frequency:    18.0714572309

- q-position: [    0.3333333,    0.1111111,    0.3750000 ]
  weight: 8    
  band:
  - # 1
    frequency:   -18.9070314294
  - # 2
    frequency:   -18.5155594181
  - # 3
    frequency:   -17.3087055636
  - # 4
    frequency:   -17.1424908854
  - # 5
    frequency:     1.9167147197
  - # 6
    frequency:     4.7217958486
  - # 7
    frequency:    13.4380095847
  - # 8
    frequency:    14.1973276764
  - # 9
    frequency:    15.3147513749
  - # 10
    frequency:    15.5850351922
  - # 11
    frequency:    17.1956008330
  - # 12
    frequency:    17.2968133501

- q-position: [    0.4444444,    0.1111111,    0.3750000 ]
  weight: 8    
  band:
  - # 1
    frequency:   -16.1929849803
  - # 2
    frequency:   -15.9568210134
  - # 3
    frequency:   -10.7062776125
  - # 4
    frequency:    -9.7154660829
  - # 5
    frequency:    -9.4764347939
  - # 6
    frequency:    -9.2909609848
  - # 7
    frequency:    14.5797910021
  - # 8
    frequency:    14.9470885008
  - # 9
    frequency:    15.8887098717
  - # 10
    frequency:    16.1579137982
  - # 11
    frequency:    16.5720181849
  - # 12
    frequency:    16.7593989986

- q-position: [   -0.4444444,    0.1111111,    0.3750000 ]
  weight: 8    
  band:
  - # 1
    frequency:   -18.9088313633
  - # 2
    frequency:   -18.5203645876
  - # 3
    frequency:   -17.2762921971
  - # 4
    frequency:   -17.1647670297
  - # 5
    frequency:     2.4242328131
  - # 6
    frequency:     4.4728074630
  - # 7
    frequency:    13.4795865174
  - # 8
    frequency:    14.1590673856
  - # 9
    frequency:    15.3109094923
  - # 10
    frequency:    15.5867859376
  - # 11
    frequency:    17.1937991569
  - # 12
    frequency:    17.2985061246

- q-position: [   -0.3333333,    0.1111111,    0.3750000 ]
  weight: 8    
  band:
  - # 1
    frequency:   -24.1706669996
  - # 2
    frequency:   -23.9080379678
  - # 3
    frequency:   -23.5305595818
  - # 4
    frequency:   -23.3191348951
  - # 5
    frequency:     6.0479877980
  - # 6
    frequency:     7.0580971246
  - # 7
    frequency:    11.4073058720
  - # 8
    frequency:    12.6096555595
  - # 9
    frequency:    13.2422571504
  - # 10
    frequency:    13.5432598489
  - # 11
    frequency:    17.9917825489
  - # 12
    frequency:    18.0989661587

- q-position: [   -0.2222222,    0.1111111,    0.3750000 ]
  weight: 8    
  band:
  - # 1
    frequency:   -28.8300921858
  - # 2
    frequency:   -28.7814638359
  - # 3
    frequency:   -28.0101086448
  - # 4
    frequency:   -27.9320335114
  - # 5
    frequency:     5.2039120390
  - # 6
    frequency:     5.9188605530
  - # 7
    frequency:     9.1214364739
  - # 8
    frequency:     9.6900462541
  - # 9
    frequency:    10.1397956707
  - # 10
    frequency:    10.9763869313
  - # 11
    frequency:    18.5731341859
  - # 12
    frequency:    18.7128228377

- q-position: [   -0.1111111,    0.1111111,    0.3750000 ]
  weight: 4    
  band:
  - # 1
    frequency:   -31.4371245673
  - # 2
    frequency:   -31.3818272110
  - # 3
    frequency:   -30.4893003877
  - # 4
    frequency:   -30.4479856618
  - # 5
    frequency:     3.6392323062
  - # 6
    frequency:     4.0155237450
  - # 7
    frequency:     5.9096217245
  - # 8
    frequency:     6.6819759313
  - # 9
    frequency:     7.4348106679
  - # 10
    frequency:     9.8630431551
  - # 11
    frequency:    18.8967122147
  - # 12
    frequency:    19.0254108020

- q-position: [    0.2222222,    0.2222222,    0.3750000 ]
  weight: 4    
  band:
  - # 1
    frequency:   -19.6202203494
  - # 2
    frequency:   -19.2230438740
  - # 3
    frequency:   -18.0879829322
  - # 4
    frequency:   -17.8132763101
  - # 5
    frequency:     6.3557081396
  - # 6
    frequency:     7.4235695211
  - # 7
    frequency:    13.1708357033
  - # 8
    frequency:    14.0164523485
  - # 9
    frequency:    14.6442076255
  - # 10
    frequency:    14.9880385305
  - # 11
    frequency:    17.3770598260
  - # 12
    frequency:    17.3835016353

- q-position: [    0.3333333,    0.2222222,    0.3750000 ]
  weight: 8    
  band:
  - # 1
    frequency:   -15.8024153486
  - # 2
    frequency:   -15.6877611489
  - # 3
    frequency:   -10.7984550595
  - # 4
    frequency:   -10.6419652457
  - # 5
    frequency:     2.1816736824
  - # 6
    frequency:     4.1525937644
  - # 7
    frequency:    14.6794177422
  - # 8
    frequency:    14.8923323416
  - # 9
    frequency:    15.1547133874
  - # 10
    frequency:    15.2566724004
  - # 11
    frequency:    16.5532294032
  - # 12
    frequency:    16.6623123522

- q-position: [   -0.5555556,    0.2222222,    0.3750000 ]
  weight: 8    
  band:
  - # 1
    frequency:   -15.8073264217
  - # 2
    frequency:   -15.6884721930
  - # 3
    frequency:   -10.8794629968
  - # 4
    frequency:   -10.5326639218
  - # 5
    frequency:     2.7851763078
  - # 6
    frequency:     3.7508295617
  - # 7
    frequency:    14.7055669514
  - # 8
    frequency:    14.8978235698
  - # 9
    frequency:    15.0656156304
  - # 10
    frequency:    15.3049224456
  - # 11
    frequency:    16.5655602250
  - # 12
    frequency:    16.6523132454

- q-position: [   -0.4444444,    0.2222222,    0.3750000 ]
  weight: 8    
  band:
  - # 1
    frequency:   -19.6146440241
  - # 2
    frequency:   -19.2469631546
  - # 3
    frequency:   -18.0770524301
  - # 4
    frequency:   -17.8002370235
  - # 5
    frequency:     6.6247868383
  - # 6
    frequency:     7.1860173314
  - # 7
    frequency:    13.2374006478
  - # 8
    frequency:    13.9581346855
  - # 9
    frequency:    14.5963201208
  - # 10
    frequency:    15.0246525878
  - # 11
    frequency:    17.3322911607
  - # 12
    frequency:    17.4274154894

- q-position: [   -0.3333333,    0.2222222,    0.3750000 ]
  weight: 8    
  band:
  - # 1
    frequency:   -24.1830506248
  - # 2
    frequency:   -23.9330125350
  - # 3
    frequency:   -23.5069293764
  - # 4
    frequency:   -23.3052904643
  - # 5
    frequency:     6.3034465292
  - # 6
    frequency:     6.8267315519
  - # 7
    frequency:    11.4274667681
  - # 8
    frequency:    12.5943081989
  - # 9
    frequency:    13.1343739618
  - # 10
    frequency:    13.6485719147
  - # 11
    frequency:    17.9609058178
  - # 12
    frequency:    18.1293810402

- q-position: [   -0.2222222,    0.2222222,    0.3750000 ]
  weight: 4    
  band:
  - # 1
    frequency:   -27.6469564564
  - # 2
    frequency:   -27.5019947743
  - # 3
    frequency:   -26.8135754562
  - # 4
    frequency:   -26.7342477309
  - # 5
    frequency:     5.4734272272
  - # 6
    frequency:     5.9368598436
  - # 7
    frequency:     9.8210532448
  - # 8
    frequency:    10.8775000111
  - # 9
    frequency:    11.4342244264
  - # 10
    frequency:    11.5283653761
  - # 11
    frequency:    18.3984816984
  - # 12
    frequency:    18.5753905510

- q-position: [    0.3333333,    0.3333333,    0.3750000 ]
  weight: 4    
  band:
  - # 1
    frequency:   -14.5725084840
  - # 2
    frequency:   -14.3804722059
  - # 3
    frequency:    -3.8825978487
  - # 4
    frequency:    -3.1341479372
  - # 5
    frequency:     1.7365711501
  - # 6
    frequency:     2.0639561491
  - # 7
    frequency:    14.0900461721
  - # 8
    frequency:    14.2438092128
  - # 9
    frequency:    15.5940204224
  - # 10
    frequency:    15.8561835025
  - # 11
    frequency:    15.9150850149
  - # 12
    frequency:    16.0216940494

- q-position: [   -0.5555556,    0.3333333,    0.3750000 ]
  weight: 8    
  band:
  - # 1
    frequency:   -15.8695792827
  - # 2
    frequency:   -15.6242464410
  - # 3
    frequency:   -10.8362315864
  - # 4
    frequency:   -10.5788973210
  - # 5
    frequency:     2.8240793952
  - # 6
    frequency:     3.7196510348
  - # 7
    frequency:    14.7004021963
  - # 8
    frequency:    14.9538056645
  - # 9
    frequency:    15.0876085367
  - # 10
    frequency:    15.2364758916
  - # 11
    frequency:    16.5779846979
  - # 12
    frequency:    16.6372098770

- q-position: [   -0.4444444,    0.3333333,    0.3750000 ]
  weight: 8    
  band:
  - # 1
    frequency:   -18.8719126267
  - # 2
    frequency:   -18.5660473460
  - # 3
    frequency:   -17.4308363994
  - # 4
    frequency:   -17.0000110961
  - # 5
    frequency:     2.9376013851
  - # 6
    frequency:     4.1441036230
  - # 7
    frequency:    13.4944476619
  - # 8
    frequency:    14.1452306460
  - # 9
    frequency:    15.2940946335
  - # 10
    frequency:    15.6063737768
  - # 11
    frequency:    17.1592238978
  - # 12
    frequency:    17.3324064459

- q-position: [   -0.3333333,    0.3333333,    0.3750000 ]
  weight: 4    
  band:
  - # 1
    frequency:   -22.0425200213
  - # 2
    frequency:   -21.9199850290
  - # 3
    frequency:   -21.5552437479
  - # 4
    frequency:   -21.2526511984
  - # 5
    frequency:     4.4989605862
  - # 6
    frequency:     5.3793817486
  - # 7
    frequency:    12.2554612906
  - # 8
    frequency:    13.2036992907
  - # 9
    frequency:    14.3964454900
  - # 10
    frequency:    14.8277521449
  - # 11
    frequency:    17.6536684909
  - # 12
    frequency:    17.8563960213

- q-position: [   -0.5555556,    0.4444444,    0.3750000 ]
  weight: 4    
  band:
  - # 1
    frequency:   -16.2353795374
  - # 2
    frequency:   -15.9128418304
  - # 3
    frequency:   -10.6748532400
  - # 4
    frequency:    -9.7390978790
  - # 5
    frequency:    -9.3945003486
  - # 6
    frequency:    -9.3875194350
  - # 7
    frequency:    14.5757576060
  - # 8
    frequency:    14.9501427967
  - # 9
    frequency:    16.0098081843
  - # 10
    frequency:    16.0401455409
  - # 11
    frequency:    16.5808359740
  - # 12
    frequency:    16.7489953066

- q-position: [   -0.4444444,    0.4444444,    0.3750000 ]
  weight: 4    
  band:
  - # 1
    frequency:   -17.3457144374
  - # 2
    frequency:   -17.0329153424
  - # 3
    frequency:   -15.0082369642
  - # 4
    frequency:   -14.4612685276
  - # 5
    frequency:    -7.3924147718
  - # 6
    frequency:    -6.6775650426
  - # 7
    frequency:    14.0748067528
  - # 8
    frequency:    14.5768445956
  - # 9
    frequency:    16.0871734884
  - # 10
    frequency:    16.2298303175
  - # 11
    frequency:    16.8232300342
  - # 12
    frequency:    17.0369162102

