<?xml version="1.0" encoding="ISO-8859-1"?>
<modeling>
 <generator>
  <i name="program" type="string">vasp </i>
  <i name="version" type="string">5.3.5  </i>
  <i name="subversion" type="string">31Mar14 (build Nov 02 2014 15:17:37) complex                          parallel </i>
  <i name="platform" type="string">ion-Intel-MKL </i>
  <i name="date" type="string">2016 08 14 </i>
  <i name="time" type="string">15:35:36 </i>
 </generator>
 <incar>
  <i type="string" name="SYSTEM">graphite</i>
  <i type="string" name="PREC">accurate</i>
  <i type="int" name="NELM">   200</i>
  <i type="int" name="IBRION">     2</i>
  <i name="EDIFF">      0.00000100</i>
  <i name="EDIFFG">      0.00100000</i>
  <i type="int" name="NSW">   200</i>
  <i type="int" name="ISIF">     2</i>
  <i name="ENCUT">    600.00000000</i>
  <i type="int" name="ISMEAR">    -5</i>
  <i type="logical" name="LWAVE"> F  </i>
  <i type="logical" name="LCHARG"> F  </i>
  <i type="int" name="NELM">   200</i>
  <i type="string" name="GGA">PE</i>
 </incar>
 <kpoints>
  <generation param="Gamma">
   <v type="int" name="divisions">      18       18        8 </v>
   <v name="usershift">      0.00000000       0.00000000       0.00000000 </v>
   <v name="genvec1">      0.05555556      -0.00000000       0.00000000 </v>
   <v name="genvec2">      0.00000000       0.05555556       0.00000000 </v>
   <v name="genvec3">      0.00000000       0.00000000       0.12500000 </v>
   <v name="shift">      0.00000000       0.00000000       0.00000000 </v>
  </generation>
  <varray name="kpointlist" >
   <v>       0.00000000       0.00000000       0.00000000 </v>
   <v>       0.05555556      -0.00000000       0.00000000 </v>
   <v>       0.11111111      -0.00000000       0.00000000 </v>
   <v>       0.16666667      -0.00000000       0.00000000 </v>
   <v>       0.22222222       0.00000000       0.00000000 </v>
   <v>       0.27777778       0.00000000       0.00000000 </v>
   <v>       0.33333333      -0.00000000       0.00000000 </v>
   <v>       0.38888889       0.00000000       0.00000000 </v>
   <v>       0.44444444       0.00000000       0.00000000 </v>
   <v>       0.50000000       0.00000000       0.00000000 </v>
   <v>       0.05555556       0.05555556       0.00000000 </v>
   <v>       0.11111111       0.05555556       0.00000000 </v>
   <v>       0.16666667       0.05555556       0.00000000 </v>
   <v>       0.22222222       0.05555556       0.00000000 </v>
   <v>       0.27777778       0.05555556       0.00000000 </v>
   <v>       0.33333333       0.05555556       0.00000000 </v>
   <v>       0.38888889       0.05555556       0.00000000 </v>
   <v>       0.44444444       0.05555556       0.00000000 </v>
   <v>       0.50000000       0.05555556       0.00000000 </v>
   <v>      -0.44444444       0.05555556       0.00000000 </v>
   <v>      -0.38888889       0.05555556       0.00000000 </v>
   <v>      -0.33333333       0.05555556       0.00000000 </v>
   <v>      -0.27777778       0.05555556       0.00000000 </v>
   <v>      -0.22222222       0.05555556       0.00000000 </v>
   <v>      -0.16666667       0.05555556       0.00000000 </v>
   <v>      -0.11111111       0.05555556       0.00000000 </v>
   <v>      -0.05555556       0.05555556       0.00000000 </v>
   <v>       0.11111111       0.11111111       0.00000000 </v>
   <v>       0.16666667       0.11111111       0.00000000 </v>
   <v>       0.22222222       0.11111111       0.00000000 </v>
   <v>       0.27777778       0.11111111       0.00000000 </v>
   <v>       0.33333333       0.11111111       0.00000000 </v>
   <v>       0.38888889       0.11111111       0.00000000 </v>
   <v>       0.44444444       0.11111111       0.00000000 </v>
   <v>       0.50000000       0.11111111       0.00000000 </v>
   <v>      -0.44444444       0.11111111       0.00000000 </v>
   <v>      -0.38888889       0.11111111       0.00000000 </v>
   <v>      -0.33333333       0.11111111       0.00000000 </v>
   <v>      -0.27777778       0.11111111       0.00000000 </v>
   <v>      -0.22222222       0.11111111       0.00000000 </v>
   <v>      -0.16666667       0.11111111       0.00000000 </v>
   <v>      -0.11111111       0.11111111       0.00000000 </v>
   <v>       0.16666667       0.16666667       0.00000000 </v>
   <v>       0.22222222       0.16666667       0.00000000 </v>
   <v>       0.27777778       0.16666667       0.00000000 </v>
   <v>       0.33333333       0.16666667       0.00000000 </v>
   <v>       0.38888889       0.16666667       0.00000000 </v>
   <v>       0.44444444       0.16666667       0.00000000 </v>
   <v>       0.50000000       0.16666667       0.00000000 </v>
   <v>      -0.44444444       0.16666667       0.00000000 </v>
   <v>      -0.38888889       0.16666667       0.00000000 </v>
   <v>      -0.33333333       0.16666667       0.00000000 </v>
   <v>      -0.27777778       0.16666667       0.00000000 </v>
   <v>      -0.22222222       0.16666667       0.00000000 </v>
   <v>      -0.16666667       0.16666667       0.00000000 </v>
   <v>       0.22222222       0.22222222       0.00000000 </v>
   <v>       0.27777778       0.22222222       0.00000000 </v>
   <v>       0.33333333       0.22222222       0.00000000 </v>
   <v>       0.38888889       0.22222222       0.00000000 </v>
   <v>       0.44444444       0.22222222       0.00000000 </v>
   <v>       0.50000000       0.22222222       0.00000000 </v>
   <v>      -0.44444444       0.22222222       0.00000000 </v>
   <v>      -0.38888889       0.22222222       0.00000000 </v>
   <v>      -0.33333333       0.22222222       0.00000000 </v>
   <v>      -0.27777778       0.22222222       0.00000000 </v>
   <v>      -0.22222222       0.22222222       0.00000000 </v>
   <v>       0.27777778       0.27777778       0.00000000 </v>
   <v>       0.33333333       0.27777778       0.00000000 </v>
   <v>       0.38888889       0.27777778       0.00000000 </v>
   <v>       0.44444444       0.27777778       0.00000000 </v>
   <v>       0.50000000       0.27777778       0.00000000 </v>
   <v>      -0.44444444       0.27777778       0.00000000 </v>
   <v>      -0.38888889       0.27777778       0.00000000 </v>
   <v>      -0.33333333       0.27777778       0.00000000 </v>
   <v>      -0.27777778       0.27777778       0.00000000 </v>
   <v>       0.33333333       0.33333333       0.00000000 </v>
   <v>       0.38888889       0.33333333       0.00000000 </v>
   <v>       0.44444444       0.33333333       0.00000000 </v>
   <v>       0.50000000       0.33333333       0.00000000 </v>
   <v>      -0.44444444       0.33333333       0.00000000 </v>
   <v>      -0.38888889       0.33333333       0.00000000 </v>
   <v>      -0.33333333       0.33333333       0.00000000 </v>
   <v>       0.38888889       0.38888889       0.00000000 </v>
   <v>       0.44444444       0.38888889       0.00000000 </v>
   <v>       0.50000000       0.38888889       0.00000000 </v>
   <v>      -0.44444444       0.38888889       0.00000000 </v>
   <v>      -0.38888889       0.38888889       0.00000000 </v>
   <v>       0.44444444       0.44444444       0.00000000 </v>
   <v>       0.50000000       0.44444444       0.00000000 </v>
   <v>      -0.44444444       0.44444444       0.00000000 </v>
   <v>       0.50000000       0.50000000       0.00000000 </v>
   <v>       0.00000000       0.00000000       0.12500000 </v>
   <v>       0.05555556      -0.00000000       0.12500000 </v>
   <v>       0.11111111      -0.00000000       0.12500000 </v>
   <v>       0.16666667      -0.00000000       0.12500000 </v>
   <v>       0.22222222       0.00000000       0.12500000 </v>
   <v>       0.27777778       0.00000000       0.12500000 </v>
   <v>       0.33333333      -0.00000000       0.12500000 </v>
   <v>       0.38888889       0.00000000       0.12500000 </v>
   <v>       0.44444444       0.00000000       0.12500000 </v>
   <v>       0.50000000       0.00000000       0.12500000 </v>
   <v>       0.05555556       0.05555556       0.12500000 </v>
   <v>       0.11111111       0.05555556       0.12500000 </v>
   <v>       0.16666667       0.05555556       0.12500000 </v>
   <v>       0.22222222       0.05555556       0.12500000 </v>
   <v>       0.27777778       0.05555556       0.12500000 </v>
   <v>       0.33333333       0.05555556       0.12500000 </v>
   <v>       0.38888889       0.05555556       0.12500000 </v>
   <v>       0.44444444       0.05555556       0.12500000 </v>
   <v>       0.50000000       0.05555556       0.12500000 </v>
   <v>      -0.44444444       0.05555556       0.12500000 </v>
   <v>      -0.38888889       0.05555556       0.12500000 </v>
   <v>      -0.33333333       0.05555556       0.12500000 </v>
   <v>      -0.27777778       0.05555556       0.12500000 </v>
   <v>      -0.22222222       0.05555556       0.12500000 </v>
   <v>      -0.16666667       0.05555556       0.12500000 </v>
   <v>      -0.11111111       0.05555556       0.12500000 </v>
   <v>      -0.05555556       0.05555556       0.12500000 </v>
   <v>       0.11111111       0.11111111       0.12500000 </v>
   <v>       0.16666667       0.11111111       0.12500000 </v>
   <v>       0.22222222       0.11111111       0.12500000 </v>
   <v>       0.27777778       0.11111111       0.12500000 </v>
   <v>       0.33333333       0.11111111       0.12500000 </v>
   <v>       0.38888889       0.11111111       0.12500000 </v>
   <v>       0.44444444       0.11111111       0.12500000 </v>
   <v>       0.50000000       0.11111111       0.12500000 </v>
   <v>      -0.44444444       0.11111111       0.12500000 </v>
   <v>      -0.38888889       0.11111111       0.12500000 </v>
   <v>      -0.33333333       0.11111111       0.12500000 </v>
   <v>      -0.27777778       0.11111111       0.12500000 </v>
   <v>      -0.22222222       0.11111111       0.12500000 </v>
   <v>      -0.16666667       0.11111111       0.12500000 </v>
   <v>      -0.11111111       0.11111111       0.12500000 </v>
   <v>       0.16666667       0.16666667       0.12500000 </v>
   <v>       0.22222222       0.16666667       0.12500000 </v>
   <v>       0.27777778       0.16666667       0.12500000 </v>
   <v>       0.33333333       0.16666667       0.12500000 </v>
   <v>       0.38888889       0.16666667       0.12500000 </v>
   <v>       0.44444444       0.16666667       0.12500000 </v>
   <v>       0.50000000       0.16666667       0.12500000 </v>
   <v>      -0.44444444       0.16666667       0.12500000 </v>
   <v>      -0.38888889       0.16666667       0.12500000 </v>
   <v>      -0.33333333       0.16666667       0.12500000 </v>
   <v>      -0.27777778       0.16666667       0.12500000 </v>
   <v>      -0.22222222       0.16666667       0.12500000 </v>
   <v>      -0.16666667       0.16666667       0.12500000 </v>
   <v>       0.22222222       0.22222222       0.12500000 </v>
   <v>       0.27777778       0.22222222       0.12500000 </v>
   <v>       0.33333333       0.22222222       0.12500000 </v>
   <v>       0.38888889       0.22222222       0.12500000 </v>
   <v>       0.44444444       0.22222222       0.12500000 </v>
   <v>       0.50000000       0.22222222       0.12500000 </v>
   <v>      -0.44444444       0.22222222       0.12500000 </v>
   <v>      -0.38888889       0.22222222       0.12500000 </v>
   <v>      -0.33333333       0.22222222       0.12500000 </v>
   <v>      -0.27777778       0.22222222       0.12500000 </v>
   <v>      -0.22222222       0.22222222       0.12500000 </v>
   <v>       0.27777778       0.27777778       0.12500000 </v>
   <v>       0.33333333       0.27777778       0.12500000 </v>
   <v>       0.38888889       0.27777778       0.12500000 </v>
   <v>       0.44444444       0.27777778       0.12500000 </v>
   <v>       0.50000000       0.27777778       0.12500000 </v>
   <v>      -0.44444444       0.27777778       0.12500000 </v>
   <v>      -0.38888889       0.27777778       0.12500000 </v>
   <v>      -0.33333333       0.27777778       0.12500000 </v>
   <v>      -0.27777778       0.27777778       0.12500000 </v>
   <v>       0.33333333       0.33333333       0.12500000 </v>
   <v>       0.38888889       0.33333333       0.12500000 </v>
   <v>       0.44444444       0.33333333       0.12500000 </v>
   <v>       0.50000000       0.33333333       0.12500000 </v>
   <v>      -0.44444444       0.33333333       0.12500000 </v>
   <v>      -0.38888889       0.33333333       0.12500000 </v>
   <v>      -0.33333333       0.33333333       0.12500000 </v>
   <v>       0.38888889       0.38888889       0.12500000 </v>
   <v>       0.44444444       0.38888889       0.12500000 </v>
   <v>       0.50000000       0.38888889       0.12500000 </v>
   <v>      -0.44444444       0.38888889       0.12500000 </v>
   <v>      -0.38888889       0.38888889       0.12500000 </v>
   <v>       0.44444444       0.44444444       0.12500000 </v>
   <v>       0.50000000       0.44444444       0.12500000 </v>
   <v>      -0.44444444       0.44444444       0.12500000 </v>
   <v>       0.50000000       0.50000000       0.12500000 </v>
   <v>       0.00000000       0.00000000       0.25000000 </v>
   <v>       0.05555556      -0.00000000       0.25000000 </v>
   <v>       0.11111111      -0.00000000       0.25000000 </v>
   <v>       0.16666667      -0.00000000       0.25000000 </v>
   <v>       0.22222222       0.00000000       0.25000000 </v>
   <v>       0.27777778       0.00000000       0.25000000 </v>
   <v>       0.33333333      -0.00000000       0.25000000 </v>
   <v>       0.38888889       0.00000000       0.25000000 </v>
   <v>       0.44444444       0.00000000       0.25000000 </v>
   <v>       0.50000000       0.00000000       0.25000000 </v>
   <v>       0.05555556       0.05555556       0.25000000 </v>
   <v>       0.11111111       0.05555556       0.25000000 </v>
   <v>       0.16666667       0.05555556       0.25000000 </v>
   <v>       0.22222222       0.05555556       0.25000000 </v>
   <v>       0.27777778       0.05555556       0.25000000 </v>
   <v>       0.33333333       0.05555556       0.25000000 </v>
   <v>       0.38888889       0.05555556       0.25000000 </v>
   <v>       0.44444444       0.05555556       0.25000000 </v>
   <v>       0.50000000       0.05555556       0.25000000 </v>
   <v>      -0.44444444       0.05555556       0.25000000 </v>
   <v>      -0.38888889       0.05555556       0.25000000 </v>
   <v>      -0.33333333       0.05555556       0.25000000 </v>
   <v>      -0.27777778       0.05555556       0.25000000 </v>
   <v>      -0.22222222       0.05555556       0.25000000 </v>
   <v>      -0.16666667       0.05555556       0.25000000 </v>
   <v>      -0.11111111       0.05555556       0.25000000 </v>
   <v>      -0.05555556       0.05555556       0.25000000 </v>
   <v>       0.11111111       0.11111111       0.25000000 </v>
   <v>       0.16666667       0.11111111       0.25000000 </v>
   <v>       0.22222222       0.11111111       0.25000000 </v>
   <v>       0.27777778       0.11111111       0.25000000 </v>
   <v>       0.33333333       0.11111111       0.25000000 </v>
   <v>       0.38888889       0.11111111       0.25000000 </v>
   <v>       0.44444444       0.11111111       0.25000000 </v>
   <v>       0.50000000       0.11111111       0.25000000 </v>
   <v>      -0.44444444       0.11111111       0.25000000 </v>
   <v>      -0.38888889       0.11111111       0.25000000 </v>
   <v>      -0.33333333       0.11111111       0.25000000 </v>
   <v>      -0.27777778       0.11111111       0.25000000 </v>
   <v>      -0.22222222       0.11111111       0.25000000 </v>
   <v>      -0.16666667       0.11111111       0.25000000 </v>
   <v>      -0.11111111       0.11111111       0.25000000 </v>
   <v>       0.16666667       0.16666667       0.25000000 </v>
   <v>       0.22222222       0.16666667       0.25000000 </v>
   <v>       0.27777778       0.16666667       0.25000000 </v>
   <v>       0.33333333       0.16666667       0.25000000 </v>
   <v>       0.38888889       0.16666667       0.25000000 </v>
   <v>       0.44444444       0.16666667       0.25000000 </v>
   <v>       0.50000000       0.16666667       0.25000000 </v>
   <v>      -0.44444444       0.16666667       0.25000000 </v>
   <v>      -0.38888889       0.16666667       0.25000000 </v>
   <v>      -0.33333333       0.16666667       0.25000000 </v>
   <v>      -0.27777778       0.16666667       0.25000000 </v>
   <v>      -0.22222222       0.16666667       0.25000000 </v>
   <v>      -0.16666667       0.16666667       0.25000000 </v>
   <v>       0.22222222       0.22222222       0.25000000 </v>
   <v>       0.27777778       0.22222222       0.25000000 </v>
   <v>       0.33333333       0.22222222       0.25000000 </v>
   <v>       0.38888889       0.22222222       0.25000000 </v>
   <v>       0.44444444       0.22222222       0.25000000 </v>
   <v>       0.50000000       0.22222222       0.25000000 </v>
   <v>      -0.44444444       0.22222222       0.25000000 </v>
   <v>      -0.38888889       0.22222222       0.25000000 </v>
   <v>      -0.33333333       0.22222222       0.25000000 </v>
   <v>      -0.27777778       0.22222222       0.25000000 </v>
   <v>      -0.22222222       0.22222222       0.25000000 </v>
   <v>       0.27777778       0.27777778       0.25000000 </v>
   <v>       0.33333333       0.27777778       0.25000000 </v>
   <v>       0.38888889       0.27777778       0.25000000 </v>
   <v>       0.44444444       0.27777778       0.25000000 </v>
   <v>       0.50000000       0.27777778       0.25000000 </v>
   <v>      -0.44444444       0.27777778       0.25000000 </v>
   <v>      -0.38888889       0.27777778       0.25000000 </v>
   <v>      -0.33333333       0.27777778       0.25000000 </v>
   <v>      -0.27777778       0.27777778       0.25000000 </v>
   <v>       0.33333333       0.33333333       0.25000000 </v>
   <v>       0.38888889       0.33333333       0.25000000 </v>
   <v>       0.44444444       0.33333333       0.25000000 </v>
   <v>       0.50000000       0.33333333       0.25000000 </v>
   <v>      -0.44444444       0.33333333       0.25000000 </v>
   <v>      -0.38888889       0.33333333       0.25000000 </v>
   <v>      -0.33333333       0.33333333       0.25000000 </v>
   <v>       0.38888889       0.38888889       0.25000000 </v>
   <v>       0.44444444       0.38888889       0.25000000 </v>
   <v>       0.50000000       0.38888889       0.25000000 </v>
   <v>      -0.44444444       0.38888889       0.25000000 </v>
   <v>      -0.38888889       0.38888889       0.25000000 </v>
   <v>       0.44444444       0.44444444       0.25000000 </v>
   <v>       0.50000000       0.44444444       0.25000000 </v>
   <v>      -0.44444444       0.44444444       0.25000000 </v>
   <v>       0.50000000       0.50000000       0.25000000 </v>
   <v>       0.00000000       0.00000000       0.37500000 </v>
   <v>       0.05555556      -0.00000000       0.37500000 </v>
   <v>       0.11111111      -0.00000000       0.37500000 </v>
   <v>       0.16666667      -0.00000000       0.37500000 </v>
   <v>       0.22222222       0.00000000       0.37500000 </v>
   <v>       0.27777778       0.00000000       0.37500000 </v>
   <v>       0.33333333      -0.00000000       0.37500000 </v>
   <v>       0.38888889       0.00000000       0.37500000 </v>
   <v>       0.44444444       0.00000000       0.37500000 </v>
   <v>       0.50000000       0.00000000       0.37500000 </v>
   <v>       0.05555556       0.05555556       0.37500000 </v>
   <v>       0.11111111       0.05555556       0.37500000 </v>
   <v>       0.16666667       0.05555556       0.37500000 </v>
   <v>       0.22222222       0.05555556       0.37500000 </v>
   <v>       0.27777778       0.05555556       0.37500000 </v>
   <v>       0.33333333       0.05555556       0.37500000 </v>
   <v>       0.38888889       0.05555556       0.37500000 </v>
   <v>       0.44444444       0.05555556       0.37500000 </v>
   <v>       0.50000000       0.05555556       0.37500000 </v>
   <v>      -0.44444444       0.05555556       0.37500000 </v>
   <v>      -0.38888889       0.05555556       0.37500000 </v>
   <v>      -0.33333333       0.05555556       0.37500000 </v>
   <v>      -0.27777778       0.05555556       0.37500000 </v>
   <v>      -0.22222222       0.05555556       0.37500000 </v>
   <v>      -0.16666667       0.05555556       0.37500000 </v>
   <v>      -0.11111111       0.05555556       0.37500000 </v>
   <v>      -0.05555556       0.05555556       0.37500000 </v>
   <v>       0.11111111       0.11111111       0.37500000 </v>
   <v>       0.16666667       0.11111111       0.37500000 </v>
   <v>       0.22222222       0.11111111       0.37500000 </v>
   <v>       0.27777778       0.11111111       0.37500000 </v>
   <v>       0.33333333       0.11111111       0.37500000 </v>
   <v>       0.38888889       0.11111111       0.37500000 </v>
   <v>       0.44444444       0.11111111       0.37500000 </v>
   <v>       0.50000000       0.11111111       0.37500000 </v>
   <v>      -0.44444444       0.11111111       0.37500000 </v>
   <v>      -0.38888889       0.11111111       0.37500000 </v>
   <v>      -0.33333333       0.11111111       0.37500000 </v>
   <v>      -0.27777778       0.11111111       0.37500000 </v>
   <v>      -0.22222222       0.11111111       0.37500000 </v>
   <v>      -0.16666667       0.11111111       0.37500000 </v>
   <v>      -0.11111111       0.11111111       0.37500000 </v>
   <v>       0.16666667       0.16666667       0.37500000 </v>
   <v>       0.22222222       0.16666667       0.37500000 </v>
   <v>       0.27777778       0.16666667       0.37500000 </v>
   <v>       0.33333333       0.16666667       0.37500000 </v>
   <v>       0.38888889       0.16666667       0.37500000 </v>
   <v>       0.44444444       0.16666667       0.37500000 </v>
   <v>       0.50000000       0.16666667       0.37500000 </v>
   <v>      -0.44444444       0.16666667       0.37500000 </v>
   <v>      -0.38888889       0.16666667       0.37500000 </v>
   <v>      -0.33333333       0.16666667       0.37500000 </v>
   <v>      -0.27777778       0.16666667       0.37500000 </v>
   <v>      -0.22222222       0.16666667       0.37500000 </v>
   <v>      -0.16666667       0.16666667       0.37500000 </v>
   <v>       0.22222222       0.22222222       0.37500000 </v>
   <v>       0.27777778       0.22222222       0.37500000 </v>
   <v>       0.33333333       0.22222222       0.37500000 </v>
   <v>       0.38888889       0.22222222       0.37500000 </v>
   <v>       0.44444444       0.22222222       0.37500000 </v>
   <v>       0.50000000       0.22222222       0.37500000 </v>
   <v>      -0.44444444       0.22222222       0.37500000 </v>
   <v>      -0.38888889       0.22222222       0.37500000 </v>
   <v>      -0.33333333       0.22222222       0.37500000 </v>
   <v>      -0.27777778       0.22222222       0.37500000 </v>
   <v>      -0.22222222       0.22222222       0.37500000 </v>
   <v>       0.27777778       0.27777778       0.37500000 </v>
   <v>       0.33333333       0.27777778       0.37500000 </v>
   <v>       0.38888889       0.27777778       0.37500000 </v>
   <v>       0.44444444       0.27777778       0.37500000 </v>
   <v>       0.50000000       0.27777778       0.37500000 </v>
   <v>      -0.44444444       0.27777778       0.37500000 </v>
   <v>      -0.38888889       0.27777778       0.37500000 </v>
   <v>      -0.33333333       0.27777778       0.37500000 </v>
   <v>      -0.27777778       0.27777778       0.37500000 </v>
   <v>       0.33333333       0.33333333       0.37500000 </v>
   <v>       0.38888889       0.33333333       0.37500000 </v>
   <v>       0.44444444       0.33333333       0.37500000 </v>
   <v>       0.50000000       0.33333333       0.37500000 </v>
   <v>      -0.44444444       0.33333333       0.37500000 </v>
   <v>      -0.38888889       0.33333333       0.37500000 </v>
   <v>      -0.33333333       0.33333333       0.37500000 </v>
   <v>       0.38888889       0.38888889       0.37500000 </v>
   <v>       0.44444444       0.38888889       0.37500000 </v>
   <v>       0.50000000       0.38888889       0.37500000 </v>
   <v>      -0.44444444       0.38888889       0.37500000 </v>
   <v>      -0.38888889       0.38888889       0.37500000 </v>
   <v>       0.44444444       0.44444444       0.37500000 </v>
   <v>       0.50000000       0.44444444       0.37500000 </v>
   <v>      -0.44444444       0.44444444       0.37500000 </v>
   <v>       0.50000000       0.50000000       0.37500000 </v>
   <v>       0.00000000       0.00000000       0.50000000 </v>
   <v>       0.05555556      -0.00000000       0.50000000 </v>
   <v>       0.11111111      -0.00000000       0.50000000 </v>
   <v>       0.16666667      -0.00000000       0.50000000 </v>
   <v>       0.22222222       0.00000000       0.50000000 </v>
   <v>       0.27777778       0.00000000       0.50000000 </v>
   <v>       0.33333333      -0.00000000       0.50000000 </v>
   <v>       0.38888889       0.00000000       0.50000000 </v>
   <v>       0.44444444       0.00000000       0.50000000 </v>
   <v>       0.50000000       0.00000000       0.50000000 </v>
   <v>       0.05555556       0.05555556       0.50000000 </v>
   <v>       0.11111111       0.05555556       0.50000000 </v>
   <v>       0.16666667       0.05555556       0.50000000 </v>
   <v>       0.22222222       0.05555556       0.50000000 </v>
   <v>       0.27777778       0.05555556       0.50000000 </v>
   <v>       0.33333333       0.05555556       0.50000000 </v>
   <v>       0.38888889       0.05555556       0.50000000 </v>
   <v>       0.44444444       0.05555556       0.50000000 </v>
   <v>       0.50000000       0.05555556       0.50000000 </v>
   <v>      -0.44444444       0.05555556       0.50000000 </v>
   <v>      -0.38888889       0.05555556       0.50000000 </v>
   <v>      -0.33333333       0.05555556       0.50000000 </v>
   <v>      -0.27777778       0.05555556       0.50000000 </v>
   <v>      -0.22222222       0.05555556       0.50000000 </v>
   <v>      -0.16666667       0.05555556       0.50000000 </v>
   <v>      -0.11111111       0.05555556       0.50000000 </v>
   <v>      -0.05555556       0.05555556       0.50000000 </v>
   <v>       0.11111111       0.11111111       0.50000000 </v>
   <v>       0.16666667       0.11111111       0.50000000 </v>
   <v>       0.22222222       0.11111111       0.50000000 </v>
   <v>       0.27777778       0.11111111       0.50000000 </v>
   <v>       0.33333333       0.11111111       0.50000000 </v>
   <v>       0.38888889       0.11111111       0.50000000 </v>
   <v>       0.44444444       0.11111111       0.50000000 </v>
   <v>       0.50000000       0.11111111       0.50000000 </v>
   <v>      -0.44444444       0.11111111       0.50000000 </v>
   <v>      -0.38888889       0.11111111       0.50000000 </v>
   <v>      -0.33333333       0.11111111       0.50000000 </v>
   <v>      -0.27777778       0.11111111       0.50000000 </v>
   <v>      -0.22222222       0.11111111       0.50000000 </v>
   <v>      -0.16666667       0.11111111       0.50000000 </v>
   <v>      -0.11111111       0.11111111       0.50000000 </v>
   <v>       0.16666667       0.16666667       0.50000000 </v>
   <v>       0.22222222       0.16666667       0.50000000 </v>
   <v>       0.27777778       0.16666667       0.50000000 </v>
   <v>       0.33333333       0.16666667       0.50000000 </v>
   <v>       0.38888889       0.16666667       0.50000000 </v>
   <v>       0.44444444       0.16666667       0.50000000 </v>
   <v>       0.50000000       0.16666667       0.50000000 </v>
   <v>      -0.44444444       0.16666667       0.50000000 </v>
   <v>      -0.38888889       0.16666667       0.50000000 </v>
   <v>      -0.33333333       0.16666667       0.50000000 </v>
   <v>      -0.27777778       0.16666667       0.50000000 </v>
   <v>      -0.22222222       0.16666667       0.50000000 </v>
   <v>      -0.16666667       0.16666667       0.50000000 </v>
   <v>       0.22222222       0.22222222       0.50000000 </v>
   <v>       0.27777778       0.22222222       0.50000000 </v>
   <v>       0.33333333       0.22222222       0.50000000 </v>
   <v>       0.38888889       0.22222222       0.50000000 </v>
   <v>       0.44444444       0.22222222       0.50000000 </v>
   <v>       0.50000000       0.22222222       0.50000000 </v>
   <v>      -0.44444444       0.22222222       0.50000000 </v>
   <v>      -0.38888889       0.22222222       0.50000000 </v>
   <v>      -0.33333333       0.22222222       0.50000000 </v>
   <v>      -0.27777778       0.22222222       0.50000000 </v>
   <v>      -0.22222222       0.22222222       0.50000000 </v>
   <v>       0.27777778       0.27777778       0.50000000 </v>
   <v>       0.33333333       0.27777778       0.50000000 </v>
   <v>       0.38888889       0.27777778       0.50000000 </v>
   <v>       0.44444444       0.27777778       0.50000000 </v>
   <v>       0.50000000       0.27777778       0.50000000 </v>
   <v>      -0.44444444       0.27777778       0.50000000 </v>
   <v>      -0.38888889       0.27777778       0.50000000 </v>
   <v>      -0.33333333       0.27777778       0.50000000 </v>
   <v>      -0.27777778       0.27777778       0.50000000 </v>
   <v>       0.33333333       0.33333333       0.50000000 </v>
   <v>       0.38888889       0.33333333       0.50000000 </v>
   <v>       0.44444444       0.33333333       0.50000000 </v>
   <v>       0.50000000       0.33333333       0.50000000 </v>
   <v>      -0.44444444       0.33333333       0.50000000 </v>
   <v>      -0.38888889       0.33333333       0.50000000 </v>
   <v>      -0.33333333       0.33333333       0.50000000 </v>
   <v>       0.38888889       0.38888889       0.50000000 </v>
   <v>       0.44444444       0.38888889       0.50000000 </v>
   <v>       0.50000000       0.38888889       0.50000000 </v>
   <v>      -0.44444444       0.38888889       0.50000000 </v>
   <v>      -0.38888889       0.38888889       0.50000000 </v>
   <v>       0.44444444       0.44444444       0.50000000 </v>
   <v>       0.50000000       0.44444444       0.50000000 </v>
   <v>      -0.44444444       0.44444444       0.50000000 </v>
   <v>       0.50000000       0.50000000       0.50000000 </v>
  </varray>
  <varray name="weights" >
   <v>       0.00038580 </v>
   <v>       0.00154321 </v>
   <v>       0.00154321 </v>
   <v>       0.00154321 </v>
   <v>       0.00154321 </v>
   <v>       0.00154321 </v>
   <v>       0.00154321 </v>
   <v>       0.00154321 </v>
   <v>       0.00154321 </v>
   <v>       0.00077160 </v>
   <v>       0.00077160 </v>
   <v>       0.00154321 </v>
   <v>       0.00154321 </v>
   <v>       0.00154321 </v>
   <v>       0.00154321 </v>
   <v>       0.00154321 </v>
   <v>       0.00154321 </v>
   <v>       0.00154321 </v>
   <v>       0.00154321 </v>
   <v>       0.00154321 </v>
   <v>       0.00154321 </v>
   <v>       0.00154321 </v>
   <v>       0.00154321 </v>
   <v>       0.00154321 </v>
   <v>       0.00154321 </v>
   <v>       0.00154321 </v>
   <v>       0.00077160 </v>
   <v>       0.00077160 </v>
   <v>       0.00154321 </v>
   <v>       0.00154321 </v>
   <v>       0.00154321 </v>
   <v>       0.00154321 </v>
   <v>       0.00154321 </v>
   <v>       0.00154321 </v>
   <v>       0.00154321 </v>
   <v>       0.00154321 </v>
   <v>       0.00154321 </v>
   <v>       0.00154321 </v>
   <v>       0.00154321 </v>
   <v>       0.00154321 </v>
   <v>       0.00154321 </v>
   <v>       0.00077160 </v>
   <v>       0.00077160 </v>
   <v>       0.00154321 </v>
   <v>       0.00154321 </v>
   <v>       0.00154321 </v>
   <v>       0.00154321 </v>
   <v>       0.00154321 </v>
   <v>       0.00154321 </v>
   <v>       0.00154321 </v>
   <v>       0.00154321 </v>
   <v>       0.00154321 </v>
   <v>       0.00154321 </v>
   <v>       0.00154321 </v>
   <v>       0.00077160 </v>
   <v>       0.00077160 </v>
   <v>       0.00154321 </v>
   <v>       0.00154321 </v>
   <v>       0.00154321 </v>
   <v>       0.00154321 </v>
   <v>       0.00154321 </v>
   <v>       0.00154321 </v>
   <v>       0.00154321 </v>
   <v>       0.00154321 </v>
   <v>       0.00154321 </v>
   <v>       0.00077160 </v>
   <v>       0.00077160 </v>
   <v>       0.00154321 </v>
   <v>       0.00154321 </v>
   <v>       0.00154321 </v>
   <v>       0.00154321 </v>
   <v>       0.00154321 </v>
   <v>       0.00154321 </v>
   <v>       0.00154321 </v>
   <v>       0.00077160 </v>
   <v>       0.00077160 </v>
   <v>       0.00154321 </v>
   <v>       0.00154321 </v>
   <v>       0.00154321 </v>
   <v>       0.00154321 </v>
   <v>       0.00154321 </v>
   <v>       0.00077160 </v>
   <v>       0.00077160 </v>
   <v>       0.00154321 </v>
   <v>       0.00154321 </v>
   <v>       0.00154321 </v>
   <v>       0.00077160 </v>
   <v>       0.00077160 </v>
   <v>       0.00154321 </v>
   <v>       0.00077160 </v>
   <v>       0.00038580 </v>
   <v>       0.00077160 </v>
   <v>       0.00308642 </v>
   <v>       0.00308642 </v>
   <v>       0.00308642 </v>
   <v>       0.00308642 </v>
   <v>       0.00308642 </v>
   <v>       0.00308642 </v>
   <v>       0.00308642 </v>
   <v>       0.00308642 </v>
   <v>       0.00154321 </v>
   <v>       0.00154321 </v>
   <v>       0.00308642 </v>
   <v>       0.00308642 </v>
   <v>       0.00308642 </v>
   <v>       0.00308642 </v>
   <v>       0.00308642 </v>
   <v>       0.00308642 </v>
   <v>       0.00308642 </v>
   <v>       0.00308642 </v>
   <v>       0.00308642 </v>
   <v>       0.00308642 </v>
   <v>       0.00308642 </v>
   <v>       0.00308642 </v>
   <v>       0.00308642 </v>
   <v>       0.00308642 </v>
   <v>       0.00308642 </v>
   <v>       0.00154321 </v>
   <v>       0.00154321 </v>
   <v>       0.00308642 </v>
   <v>       0.00308642 </v>
   <v>       0.00308642 </v>
   <v>       0.00308642 </v>
   <v>       0.00308642 </v>
   <v>       0.00308642 </v>
   <v>       0.00308642 </v>
   <v>       0.00308642 </v>
   <v>       0.00308642 </v>
   <v>       0.00308642 </v>
   <v>       0.00308642 </v>
   <v>       0.00308642 </v>
   <v>       0.00308642 </v>
   <v>       0.00154321 </v>
   <v>       0.00154321 </v>
   <v>       0.00308642 </v>
   <v>       0.00308642 </v>
   <v>       0.00308642 </v>
   <v>       0.00308642 </v>
   <v>       0.00308642 </v>
   <v>       0.00308642 </v>
   <v>       0.00308642 </v>
   <v>       0.00308642 </v>
   <v>       0.00308642 </v>
   <v>       0.00308642 </v>
   <v>       0.00308642 </v>
   <v>       0.00154321 </v>
   <v>       0.00154321 </v>
   <v>       0.00308642 </v>
   <v>       0.00308642 </v>
   <v>       0.00308642 </v>
   <v>       0.00308642 </v>
   <v>       0.00308642 </v>
   <v>       0.00308642 </v>
   <v>       0.00308642 </v>
   <v>       0.00308642 </v>
   <v>       0.00308642 </v>
   <v>       0.00154321 </v>
   <v>       0.00154321 </v>
   <v>       0.00308642 </v>
   <v>       0.00308642 </v>
   <v>       0.00308642 </v>
   <v>       0.00308642 </v>
   <v>       0.00308642 </v>
   <v>       0.00308642 </v>
   <v>       0.00308642 </v>
   <v>       0.00154321 </v>
   <v>       0.00154321 </v>
   <v>       0.00308642 </v>
   <v>       0.00308642 </v>
   <v>       0.00308642 </v>
   <v>       0.00308642 </v>
   <v>       0.00308642 </v>
   <v>       0.00154321 </v>
   <v>       0.00154321 </v>
   <v>       0.00308642 </v>
   <v>       0.00308642 </v>
   <v>       0.00308642 </v>
   <v>       0.00154321 </v>
   <v>       0.00154321 </v>
   <v>       0.00308642 </v>
   <v>       0.00154321 </v>
   <v>       0.00077160 </v>
   <v>       0.00077160 </v>
   <v>       0.00308642 </v>
   <v>       0.00308642 </v>
   <v>       0.00308642 </v>
   <v>       0.00308642 </v>
   <v>       0.00308642 </v>
   <v>       0.00308642 </v>
   <v>       0.00308642 </v>
   <v>       0.00308642 </v>
   <v>       0.00154321 </v>
   <v>       0.00154321 </v>
   <v>       0.00308642 </v>
   <v>       0.00308642 </v>
   <v>       0.00308642 </v>
   <v>       0.00308642 </v>
   <v>       0.00308642 </v>
   <v>       0.00308642 </v>
   <v>       0.00308642 </v>
   <v>       0.00308642 </v>
   <v>       0.00308642 </v>
   <v>       0.00308642 </v>
   <v>       0.00308642 </v>
   <v>       0.00308642 </v>
   <v>       0.00308642 </v>
   <v>       0.00308642 </v>
   <v>       0.00308642 </v>
   <v>       0.00154321 </v>
   <v>       0.00154321 </v>
   <v>       0.00308642 </v>
   <v>       0.00308642 </v>
   <v>       0.00308642 </v>
   <v>       0.00308642 </v>
   <v>       0.00308642 </v>
   <v>       0.00308642 </v>
   <v>       0.00308642 </v>
   <v>       0.00308642 </v>
   <v>       0.00308642 </v>
   <v>       0.00308642 </v>
   <v>       0.00308642 </v>
   <v>       0.00308642 </v>
   <v>       0.00308642 </v>
   <v>       0.00154321 </v>
   <v>       0.00154321 </v>
   <v>       0.00308642 </v>
   <v>       0.00308642 </v>
   <v>       0.00308642 </v>
   <v>       0.00308642 </v>
   <v>       0.00308642 </v>
   <v>       0.00308642 </v>
   <v>       0.00308642 </v>
   <v>       0.00308642 </v>
   <v>       0.00308642 </v>
   <v>       0.00308642 </v>
   <v>       0.00308642 </v>
   <v>       0.00154321 </v>
   <v>       0.00154321 </v>
   <v>       0.00308642 </v>
   <v>       0.00308642 </v>
   <v>       0.00308642 </v>
   <v>       0.00308642 </v>
   <v>       0.00308642 </v>
   <v>       0.00308642 </v>
   <v>       0.00308642 </v>
   <v>       0.00308642 </v>
   <v>       0.00308642 </v>
   <v>       0.00154321 </v>
   <v>       0.00154321 </v>
   <v>       0.00308642 </v>
   <v>       0.00308642 </v>
   <v>       0.00308642 </v>
   <v>       0.00308642 </v>
   <v>       0.00308642 </v>
   <v>       0.00308642 </v>
   <v>       0.00308642 </v>
   <v>       0.00154321 </v>
   <v>       0.00154321 </v>
   <v>       0.00308642 </v>
   <v>       0.00308642 </v>
   <v>       0.00308642 </v>
   <v>       0.00308642 </v>
   <v>       0.00308642 </v>
   <v>       0.00154321 </v>
   <v>       0.00154321 </v>
   <v>       0.00308642 </v>
   <v>       0.00308642 </v>
   <v>       0.00308642 </v>
   <v>       0.00154321 </v>
   <v>       0.00154321 </v>
   <v>       0.00308642 </v>
   <v>       0.00154321 </v>
   <v>       0.00077160 </v>
   <v>       0.00077160 </v>
   <v>       0.00308642 </v>
   <v>       0.00308642 </v>
   <v>       0.00308642 </v>
   <v>       0.00308642 </v>
   <v>       0.00308642 </v>
   <v>       0.00308642 </v>
   <v>       0.00308642 </v>
   <v>       0.00308642 </v>
   <v>       0.00154321 </v>
   <v>       0.00154321 </v>
   <v>       0.00308642 </v>
   <v>       0.00308642 </v>
   <v>       0.00308642 </v>
   <v>       0.00308642 </v>
   <v>       0.00308642 </v>
   <v>       0.00308642 </v>
   <v>       0.00308642 </v>
   <v>       0.00308642 </v>
   <v>       0.00308642 </v>
   <v>       0.00308642 </v>
   <v>       0.00308642 </v>
   <v>       0.00308642 </v>
   <v>       0.00308642 </v>
   <v>       0.00308642 </v>
   <v>       0.00308642 </v>
   <v>       0.00154321 </v>
   <v>       0.00154321 </v>
   <v>       0.00308642 </v>
   <v>       0.00308642 </v>
   <v>       0.00308642 </v>
   <v>       0.00308642 </v>
   <v>       0.00308642 </v>
   <v>       0.00308642 </v>
   <v>       0.00308642 </v>
   <v>       0.00308642 </v>
   <v>       0.00308642 </v>
   <v>       0.00308642 </v>
   <v>       0.00308642 </v>
   <v>       0.00308642 </v>
   <v>       0.00308642 </v>
   <v>       0.00154321 </v>
   <v>       0.00154321 </v>
   <v>       0.00308642 </v>
   <v>       0.00308642 </v>
   <v>       0.00308642 </v>
   <v>       0.00308642 </v>
   <v>       0.00308642 </v>
   <v>       0.00308642 </v>
   <v>       0.00308642 </v>
   <v>       0.00308642 </v>
   <v>       0.00308642 </v>
   <v>       0.00308642 </v>
   <v>       0.00308642 </v>
   <v>       0.00154321 </v>
   <v>       0.00154321 </v>
   <v>       0.00308642 </v>
   <v>       0.00308642 </v>
   <v>       0.00308642 </v>
   <v>       0.00308642 </v>
   <v>       0.00308642 </v>
   <v>       0.00308642 </v>
   <v>       0.00308642 </v>
   <v>       0.00308642 </v>
   <v>       0.00308642 </v>
   <v>       0.00154321 </v>
   <v>       0.00154321 </v>
   <v>       0.00308642 </v>
   <v>       0.00308642 </v>
   <v>       0.00308642 </v>
   <v>       0.00308642 </v>
   <v>       0.00308642 </v>
   <v>       0.00308642 </v>
   <v>       0.00308642 </v>
   <v>       0.00154321 </v>
   <v>       0.00154321 </v>
   <v>       0.00308642 </v>
   <v>       0.00308642 </v>
   <v>       0.00308642 </v>
   <v>       0.00308642 </v>
   <v>       0.00308642 </v>
   <v>       0.00154321 </v>
   <v>       0.00154321 </v>
   <v>       0.00308642 </v>
   <v>       0.00308642 </v>
   <v>       0.00308642 </v>
   <v>       0.00154321 </v>
   <v>       0.00154321 </v>
   <v>       0.00308642 </v>
   <v>       0.00154321 </v>
   <v>       0.00077160 </v>
   <v>       0.00038580 </v>
   <v>       0.00154321 </v>
   <v>       0.00154321 </v>
   <v>       0.00154321 </v>
   <v>       0.00154321 </v>
   <v>       0.00154321 </v>
   <v>       0.00154321 </v>
   <v>       0.00154321 </v>
   <v>       0.00154321 </v>
   <v>       0.00077160 </v>
   <v>       0.00077160 </v>
   <v>       0.00154321 </v>
   <v>       0.00154321 </v>
   <v>       0.00154321 </v>
   <v>       0.00154321 </v>
   <v>       0.00154321 </v>
   <v>       0.00154321 </v>
   <v>       0.00154321 </v>
   <v>       0.00154321 </v>
   <v>       0.00154321 </v>
   <v>       0.00154321 </v>
   <v>       0.00154321 </v>
   <v>       0.00154321 </v>
   <v>       0.00154321 </v>
   <v>       0.00154321 </v>
   <v>       0.00154321 </v>
   <v>       0.00077160 </v>
   <v>       0.00077160 </v>
   <v>       0.00154321 </v>
   <v>       0.00154321 </v>
   <v>       0.00154321 </v>
   <v>       0.00154321 </v>
   <v>       0.00154321 </v>
   <v>       0.00154321 </v>
   <v>       0.00154321 </v>
   <v>       0.00154321 </v>
   <v>       0.00154321 </v>
   <v>       0.00154321 </v>
   <v>       0.00154321 </v>
   <v>       0.00154321 </v>
   <v>       0.00154321 </v>
   <v>       0.00077160 </v>
   <v>       0.00077160 </v>
   <v>       0.00154321 </v>
   <v>       0.00154321 </v>
   <v>       0.00154321 </v>
   <v>       0.00154321 </v>
   <v>       0.00154321 </v>
   <v>       0.00154321 </v>
   <v>       0.00154321 </v>
   <v>       0.00154321 </v>
   <v>       0.00154321 </v>
   <v>       0.00154321 </v>
   <v>       0.00154321 </v>
   <v>       0.00077160 </v>
   <v>       0.00077160 </v>
   <v>       0.00154321 </v>
   <v>       0.00154321 </v>
   <v>       0.00154321 </v>
   <v>       0.00154321 </v>
   <v>       0.00154321 </v>
   <v>       0.00154321 </v>
   <v>       0.00154321 </v>
   <v>       0.00154321 </v>
   <v>       0.00154321 </v>
   <v>       0.00077160 </v>
   <v>       0.00077160 </v>
   <v>       0.00154321 </v>
   <v>       0.00154321 </v>
   <v>       0.00154321 </v>
   <v>       0.00154321 </v>
   <v>       0.00154321 </v>
   <v>       0.00154321 </v>
   <v>       0.00154321 </v>
   <v>       0.00077160 </v>
   <v>       0.00077160 </v>
   <v>       0.00154321 </v>
   <v>       0.00154321 </v>
   <v>       0.00154321 </v>
   <v>       0.00154321 </v>
   <v>       0.00154321 </v>
   <v>       0.00077160 </v>
   <v>       0.00077160 </v>
   <v>       0.00154321 </v>
   <v>       0.00154321 </v>
   <v>       0.00154321 </v>
   <v>       0.00077160 </v>
   <v>       0.00077160 </v>
   <v>       0.00154321 </v>
   <v>       0.00077160 </v>
   <v>       0.00038580 </v>
  </varray>
  <varray name="tetrahedronlist"  type="int" >
   <v type="int" >        4        2        2       11       93 </v>
   <v type="int" >        4        1        2        2       93 </v>
   <v type="int" >        4        1        2       92       93 </v>
   <v type="int" >        4        2       11       93      102 </v>
   <v type="int" >        4        2       93       93      102 </v>
   <v type="int" >        4        2       92       93       93 </v>
   <v type="int" >        4        3       11       12      102 </v>
   <v type="int" >        4        2        3       11      102 </v>
   <v type="int" >        4        2        3       93      102 </v>
   <v type="int" >        4        3       12      102      103 </v>
   <v type="int" >        4        3       94      102      103 </v>
   <v type="int" >        4        3       93       94      102 </v>
   <v type="int" >        4        4       12       13      103 </v>
   <v type="int" >        4        3        4       12      103 </v>
   <v type="int" >        4        3        4       94      103 </v>
   <v type="int" >        4        4       13      103      104 </v>
   <v type="int" >        4        4       95      103      104 </v>
   <v type="int" >        4        4       94       95      103 </v>
   <v type="int" >        4        5       13       14      104 </v>
   <v type="int" >        4        4        5       13      104 </v>
   <v type="int" >        4        4        5       95      104 </v>
   <v type="int" >        4        5       14      104      105 </v>
   <v type="int" >        4        5       96      104      105 </v>
   <v type="int" >        4        5       95       96      104 </v>
   <v type="int" >        4        6       14       15      105 </v>
   <v type="int" >        4        5        6       14      105 </v>
   <v type="int" >        4        5        6       96      105 </v>
   <v type="int" >        4        6       15      105      106 </v>
   <v type="int" >        4        6       97      105      106 </v>
   <v type="int" >        4        6       96       97      105 </v>
   <v type="int" >        4        7       15       16      106 </v>
   <v type="int" >        4        6        7       15      106 </v>
   <v type="int" >        4        6        7       97      106 </v>
   <v type="int" >        4        7       16      106      107 </v>
   <v type="int" >        4        7       98      106      107 </v>
   <v type="int" >        4        7       97       98      106 </v>
   <v type="int" >        4        8       16       17      107 </v>
   <v type="int" >        4        7        8       16      107 </v>
   <v type="int" >        4        7        8       98      107 </v>
   <v type="int" >        4        8       17      107      108 </v>
   <v type="int" >        4        8       99      107      108 </v>
   <v type="int" >        4        8       98       99      107 </v>
   <v type="int" >        4        9       17       18      108 </v>
   <v type="int" >        4        8        9       17      108 </v>
   <v type="int" >        4        8        9       99      108 </v>
   <v type="int" >        4        9       18      108      109 </v>
   <v type="int" >        4        9      100      108      109 </v>
   <v type="int" >        4        9       99      100      108 </v>
   <v type="int" >        4       10       18       19      109 </v>
   <v type="int" >        4        9       10       18      109 </v>
   <v type="int" >        4        9       10      100      109 </v>
   <v type="int" >        4       10       19      109      110 </v>
   <v type="int" >        4       10      101      109      110 </v>
   <v type="int" >        4       10      100      101      109 </v>
   <v type="int" >        4        9       19       20      110 </v>
   <v type="int" >        4        9       10       19      110 </v>
   <v type="int" >        4        9       10      101      110 </v>
   <v type="int" >        4        9       20      110      111 </v>
   <v type="int" >        4        9      100      110      111 </v>
   <v type="int" >        4        9      100      101      110 </v>
   <v type="int" >        4        8       20       21      111 </v>
   <v type="int" >        4        8        9       20      111 </v>
   <v type="int" >        4        8        9      100      111 </v>
   <v type="int" >        4        8       21      111      112 </v>
   <v type="int" >        4        8       99      111      112 </v>
   <v type="int" >        4        8       99      100      111 </v>
   <v type="int" >        4        7       21       22      112 </v>
   <v type="int" >        4        7        8       21      112 </v>
   <v type="int" >        4        7        8       99      112 </v>
   <v type="int" >        4        7       22      112      113 </v>
   <v type="int" >        4        7       98      112      113 </v>
   <v type="int" >        4        7       98       99      112 </v>
   <v type="int" >        4        6       22       23      113 </v>
   <v type="int" >        4        6        7       22      113 </v>
   <v type="int" >        4        6        7       98      113 </v>
   <v type="int" >        4        6       23      113      114 </v>
   <v type="int" >        4        6       97      113      114 </v>
   <v type="int" >        4        6       97       98      113 </v>
   <v type="int" >        4        5       23       24      114 </v>
   <v type="int" >        4        5        6       23      114 </v>
   <v type="int" >        4        5        6       97      114 </v>
   <v type="int" >        4        5       24      114      115 </v>
   <v type="int" >        4        5       96      114      115 </v>
   <v type="int" >        4        5       96       97      114 </v>
   <v type="int" >        4        4       24       25      115 </v>
   <v type="int" >        4        4        5       24      115 </v>
   <v type="int" >        4        4        5       96      115 </v>
   <v type="int" >        4        4       25      115      116 </v>
   <v type="int" >        4        4       95      115      116 </v>
   <v type="int" >        4        4       95       96      115 </v>
   <v type="int" >        4        3       25       26      116 </v>
   <v type="int" >        4        3        4       25      116 </v>
   <v type="int" >        4        3        4       95      116 </v>
   <v type="int" >        4        3       26      116      117 </v>
   <v type="int" >        4        3       94      116      117 </v>
   <v type="int" >        4        3       94       95      116 </v>
   <v type="int" >        4        2       26       27      117 </v>
   <v type="int" >        4        2        3       26      117 </v>
   <v type="int" >        4        2        3       94      117 </v>
   <v type="int" >        4        2       27      117      118 </v>
   <v type="int" >        4        2       93      117      118 </v>
   <v type="int" >        4        2       93       94      117 </v>
   <v type="int" >        4        1        2       27      118 </v>
   <v type="int" >        4        1        2       93      118 </v>
   <v type="int" >        4        1       92       93      118 </v>
   <v type="int" >        4        3       11       12       94 </v>
   <v type="int" >        4        2        3       11       94 </v>
   <v type="int" >        4        2       11       93       94 </v>
   <v type="int" >        4       11       12       94      103 </v>
   <v type="int" >        4       11       94      102      103 </v>
   <v type="int" >        4       11       93       94      102 </v>
   <v type="int" >        4       12       12       28      103 </v>
   <v type="int" >        4       11       12       12      103 </v>
   <v type="int" >        4       11       12      102      103 </v>
   <v type="int" >        4       12       28      103      119 </v>
   <v type="int" >        4       12      103      103      119 </v>
   <v type="int" >        4       12      102      103      103 </v>
   <v type="int" >        4       13       28       29      119 </v>
   <v type="int" >        4       12       13       28      119 </v>
   <v type="int" >        4       12       13      103      119 </v>
   <v type="int" >        4       13       29      119      120 </v>
   <v type="int" >        4       13      104      119      120 </v>
   <v type="int" >        4       13      103      104      119 </v>
   <v type="int" >        4       14       29       30      120 </v>
   <v type="int" >        4       13       14       29      120 </v>
   <v type="int" >        4       13       14      104      120 </v>
   <v type="int" >        4       14       30      120      121 </v>
   <v type="int" >        4       14      105      120      121 </v>
   <v type="int" >        4       14      104      105      120 </v>
   <v type="int" >        4       15       30       31      121 </v>
   <v type="int" >        4       14       15       30      121 </v>
   <v type="int" >        4       14       15      105      121 </v>
   <v type="int" >        4       15       31      121      122 </v>
   <v type="int" >        4       15      106      121      122 </v>
   <v type="int" >        4       15      105      106      121 </v>
   <v type="int" >        4       16       31       32      122 </v>
   <v type="int" >        4       15       16       31      122 </v>
   <v type="int" >        4       15       16      106      122 </v>
   <v type="int" >        4       16       32      122      123 </v>
   <v type="int" >        4       16      107      122      123 </v>
   <v type="int" >        4       16      106      107      122 </v>
   <v type="int" >        4       17       32       33      123 </v>
   <v type="int" >        4       16       17       32      123 </v>
   <v type="int" >        4       16       17      107      123 </v>
   <v type="int" >        4       17       33      123      124 </v>
   <v type="int" >        4       17      108      123      124 </v>
   <v type="int" >        4       17      107      108      123 </v>
   <v type="int" >        4       18       33       34      124 </v>
   <v type="int" >        4       17       18       33      124 </v>
   <v type="int" >        4       17       18      108      124 </v>
   <v type="int" >        4       18       34      124      125 </v>
   <v type="int" >        4       18      109      124      125 </v>
   <v type="int" >        4       18      108      109      124 </v>
   <v type="int" >        4       19       34       35      125 </v>
   <v type="int" >        4       18       19       34      125 </v>
   <v type="int" >        4       18       19      109      125 </v>
   <v type="int" >        4       19       35      125      126 </v>
   <v type="int" >        4       19      110      125      126 </v>
   <v type="int" >        4       19      109      110      125 </v>
   <v type="int" >        4       20       35       36      126 </v>
   <v type="int" >        4       19       20       35      126 </v>
   <v type="int" >        4       19       20      110      126 </v>
   <v type="int" >        4       20       36      126      127 </v>
   <v type="int" >        4       20      111      126      127 </v>
   <v type="int" >        4       20      110      111      126 </v>
   <v type="int" >        4       21       36       37      127 </v>
   <v type="int" >        4       20       21       36      127 </v>
   <v type="int" >        4       20       21      111      127 </v>
   <v type="int" >        4       21       37      127      128 </v>
   <v type="int" >        4       21      112      127      128 </v>
   <v type="int" >        4       21      111      112      127 </v>
   <v type="int" >        4       22       37       38      128 </v>
   <v type="int" >        4       21       22       37      128 </v>
   <v type="int" >        4       21       22      112      128 </v>
   <v type="int" >        4       22       38      128      129 </v>
   <v type="int" >        4       22      113      128      129 </v>
   <v type="int" >        4       22      112      113      128 </v>
   <v type="int" >        4       23       38       39      129 </v>
   <v type="int" >        4       22       23       38      129 </v>
   <v type="int" >        4       22       23      113      129 </v>
   <v type="int" >        4       23       39      129      130 </v>
   <v type="int" >        4       23      114      129      130 </v>
   <v type="int" >        4       23      113      114      129 </v>
   <v type="int" >        4       24       39       40      130 </v>
   <v type="int" >        4       23       24       39      130 </v>
   <v type="int" >        4       23       24      114      130 </v>
   <v type="int" >        4       24       40      130      131 </v>
   <v type="int" >        4       24      115      130      131 </v>
   <v type="int" >        4       24      114      115      130 </v>
   <v type="int" >        4       25       40       41      131 </v>
   <v type="int" >        4       24       25       40      131 </v>
   <v type="int" >        4       24       25      115      131 </v>
   <v type="int" >        4       25       41      131      132 </v>
   <v type="int" >        4       25      116      131      132 </v>
   <v type="int" >        4       25      115      116      131 </v>
   <v type="int" >        4       26       41       42      132 </v>
   <v type="int" >        4       25       26       41      132 </v>
   <v type="int" >        4       25       26      116      132 </v>
   <v type="int" >        4       26       42      132      133 </v>
   <v type="int" >        4       26      117      132      133 </v>
   <v type="int" >        4       26      116      117      132 </v>
   <v type="int" >        4       26       27       42      133 </v>
   <v type="int" >        4       26       27      117      133 </v>
   <v type="int" >        4       27      117      118      133 </v>
   <v type="int" >        4        4       12       13       95 </v>
   <v type="int" >        4        3        4       12       95 </v>
   <v type="int" >        4        3       12       94       95 </v>
   <v type="int" >        4       12       13       95      104 </v>
   <v type="int" >        4       12       95      103      104 </v>
   <v type="int" >        4       12       94       95      103 </v>
   <v type="int" >        4       13       28       29      104 </v>
   <v type="int" >        4       12       13       28      104 </v>
   <v type="int" >        4       12       28      103      104 </v>
   <v type="int" >        4       28       29      104      120 </v>
   <v type="int" >        4       28      104      119      120 </v>
   <v type="int" >        4       28      103      104      119 </v>
   <v type="int" >        4       29       29       43      120 </v>
   <v type="int" >        4       28       29       29      120 </v>
   <v type="int" >        4       28       29      119      120 </v>
   <v type="int" >        4       29       43      120      134 </v>
   <v type="int" >        4       29      120      120      134 </v>
   <v type="int" >        4       29      119      120      120 </v>
   <v type="int" >        4       30       43       44      134 </v>
   <v type="int" >        4       29       30       43      134 </v>
   <v type="int" >        4       29       30      120      134 </v>
   <v type="int" >        4       30       44      134      135 </v>
   <v type="int" >        4       30      121      134      135 </v>
   <v type="int" >        4       30      120      121      134 </v>
   <v type="int" >        4       31       44       45      135 </v>
   <v type="int" >        4       30       31       44      135 </v>
   <v type="int" >        4       30       31      121      135 </v>
   <v type="int" >        4       31       45      135      136 </v>
   <v type="int" >        4       31      122      135      136 </v>
   <v type="int" >        4       31      121      122      135 </v>
   <v type="int" >        4       32       45       46      136 </v>
   <v type="int" >        4       31       32       45      136 </v>
   <v type="int" >        4       31       32      122      136 </v>
   <v type="int" >        4       32       46      136      137 </v>
   <v type="int" >        4       32      123      136      137 </v>
   <v type="int" >        4       32      122      123      136 </v>
   <v type="int" >        4       33       46       47      137 </v>
   <v type="int" >        4       32       33       46      137 </v>
   <v type="int" >        4       32       33      123      137 </v>
   <v type="int" >        4       33       47      137      138 </v>
   <v type="int" >        4       33      124      137      138 </v>
   <v type="int" >        4       33      123      124      137 </v>
   <v type="int" >        4       34       47       48      138 </v>
   <v type="int" >        4       33       34       47      138 </v>
   <v type="int" >        4       33       34      124      138 </v>
   <v type="int" >        4       34       48      138      139 </v>
   <v type="int" >        4       34      125      138      139 </v>
   <v type="int" >        4       34      124      125      138 </v>
   <v type="int" >        4       35       48       49      139 </v>
   <v type="int" >        4       34       35       48      139 </v>
   <v type="int" >        4       34       35      125      139 </v>
   <v type="int" >        4       35       49      139      140 </v>
   <v type="int" >        4       35      126      139      140 </v>
   <v type="int" >        4       35      125      126      139 </v>
   <v type="int" >        4       36       49       50      140 </v>
   <v type="int" >        4       35       36       49      140 </v>
   <v type="int" >        4       35       36      126      140 </v>
   <v type="int" >        4       36       50      140      141 </v>
   <v type="int" >        4       36      127      140      141 </v>
   <v type="int" >        4       36      126      127      140 </v>
   <v type="int" >        4       37       50       51      141 </v>
   <v type="int" >        4       36       37       50      141 </v>
   <v type="int" >        4       36       37      127      141 </v>
   <v type="int" >        4       37       51      141      142 </v>
   <v type="int" >        4       37      128      141      142 </v>
   <v type="int" >        4       37      127      128      141 </v>
   <v type="int" >        4       38       51       52      142 </v>
   <v type="int" >        4       37       38       51      142 </v>
   <v type="int" >        4       37       38      128      142 </v>
   <v type="int" >        4       38       52      142      143 </v>
   <v type="int" >        4       38      129      142      143 </v>
   <v type="int" >        4       38      128      129      142 </v>
   <v type="int" >        4       39       52       53      143 </v>
   <v type="int" >        4       38       39       52      143 </v>
   <v type="int" >        4       38       39      129      143 </v>
   <v type="int" >        4       39       53      143      144 </v>
   <v type="int" >        4       39      130      143      144 </v>
   <v type="int" >        4       39      129      130      143 </v>
   <v type="int" >        4       40       53       54      144 </v>
   <v type="int" >        4       39       40       53      144 </v>
   <v type="int" >        4       39       40      130      144 </v>
   <v type="int" >        4       40       54      144      145 </v>
   <v type="int" >        4       40      131      144      145 </v>
   <v type="int" >        4       40      130      131      144 </v>
   <v type="int" >        4       41       54       55      145 </v>
   <v type="int" >        4       40       41       54      145 </v>
   <v type="int" >        4       40       41      131      145 </v>
   <v type="int" >        4       41       55      145      146 </v>
   <v type="int" >        4       41      132      145      146 </v>
   <v type="int" >        4       41      131      132      145 </v>
   <v type="int" >        4       41       42       55      146 </v>
   <v type="int" >        4       41       42      132      146 </v>
   <v type="int" >        4       42      132      133      146 </v>
   <v type="int" >        4        5       13       14       96 </v>
   <v type="int" >        4        4        5       13       96 </v>
   <v type="int" >        4        4       13       95       96 </v>
   <v type="int" >        4       13       14       96      105 </v>
   <v type="int" >        4       13       96      104      105 </v>
   <v type="int" >        4       13       95       96      104 </v>
   <v type="int" >        4       14       29       30      105 </v>
   <v type="int" >        4       13       14       29      105 </v>
   <v type="int" >        4       13       29      104      105 </v>
   <v type="int" >        4       29       30      105      121 </v>
   <v type="int" >        4       29      105      120      121 </v>
   <v type="int" >        4       29      104      105      120 </v>
   <v type="int" >        4       30       43       44      121 </v>
   <v type="int" >        4       29       30       43      121 </v>
   <v type="int" >        4       29       43      120      121 </v>
   <v type="int" >        4       43       44      121      135 </v>
   <v type="int" >        4       43      121      134      135 </v>
   <v type="int" >        4       43      120      121      134 </v>
   <v type="int" >        4       44       44       56      135 </v>
   <v type="int" >        4       43       44       44      135 </v>
   <v type="int" >        4       43       44      134      135 </v>
   <v type="int" >        4       44       56      135      147 </v>
   <v type="int" >        4       44      135      135      147 </v>
   <v type="int" >        4       44      134      135      135 </v>
   <v type="int" >        4       45       56       57      147 </v>
   <v type="int" >        4       44       45       56      147 </v>
   <v type="int" >        4       44       45      135      147 </v>
   <v type="int" >        4       45       57      147      148 </v>
   <v type="int" >        4       45      136      147      148 </v>
   <v type="int" >        4       45      135      136      147 </v>
   <v type="int" >        4       46       57       58      148 </v>
   <v type="int" >        4       45       46       57      148 </v>
   <v type="int" >        4       45       46      136      148 </v>
   <v type="int" >        4       46       58      148      149 </v>
   <v type="int" >        4       46      137      148      149 </v>
   <v type="int" >        4       46      136      137      148 </v>
   <v type="int" >        4       47       58       59      149 </v>
   <v type="int" >        4       46       47       58      149 </v>
   <v type="int" >        4       46       47      137      149 </v>
   <v type="int" >        4       47       59      149      150 </v>
   <v type="int" >        4       47      138      149      150 </v>
   <v type="int" >        4       47      137      138      149 </v>
   <v type="int" >        4       48       59       60      150 </v>
   <v type="int" >        4       47       48       59      150 </v>
   <v type="int" >        4       47       48      138      150 </v>
   <v type="int" >        4       48       60      150      151 </v>
   <v type="int" >        4       48      139      150      151 </v>
   <v type="int" >        4       48      138      139      150 </v>
   <v type="int" >        4       49       60       61      151 </v>
   <v type="int" >        4       48       49       60      151 </v>
   <v type="int" >        4       48       49      139      151 </v>
   <v type="int" >        4       49       61      151      152 </v>
   <v type="int" >        4       49      140      151      152 </v>
   <v type="int" >        4       49      139      140      151 </v>
   <v type="int" >        4       50       61       62      152 </v>
   <v type="int" >        4       49       50       61      152 </v>
   <v type="int" >        4       49       50      140      152 </v>
   <v type="int" >        4       50       62      152      153 </v>
   <v type="int" >        4       50      141      152      153 </v>
   <v type="int" >        4       50      140      141      152 </v>
   <v type="int" >        4       51       62       63      153 </v>
   <v type="int" >        4       50       51       62      153 </v>
   <v type="int" >        4       50       51      141      153 </v>
   <v type="int" >        4       51       63      153      154 </v>
   <v type="int" >        4       51      142      153      154 </v>
   <v type="int" >        4       51      141      142      153 </v>
   <v type="int" >        4       52       63       64      154 </v>
   <v type="int" >        4       51       52       63      154 </v>
   <v type="int" >        4       51       52      142      154 </v>
   <v type="int" >        4       52       64      154      155 </v>
   <v type="int" >        4       52      143      154      155 </v>
   <v type="int" >        4       52      142      143      154 </v>
   <v type="int" >        4       53       64       65      155 </v>
   <v type="int" >        4       52       53       64      155 </v>
   <v type="int" >        4       52       53      143      155 </v>
   <v type="int" >        4       53       65      155      156 </v>
   <v type="int" >        4       53      144      155      156 </v>
   <v type="int" >        4       53      143      144      155 </v>
   <v type="int" >        4       54       65       66      156 </v>
   <v type="int" >        4       53       54       65      156 </v>
   <v type="int" >        4       53       54      144      156 </v>
   <v type="int" >        4       54       66      156      157 </v>
   <v type="int" >        4       54      145      156      157 </v>
   <v type="int" >        4       54      144      145      156 </v>
   <v type="int" >        4       54       55       66      157 </v>
   <v type="int" >        4       54       55      145      157 </v>
   <v type="int" >        4       55      145      146      157 </v>
   <v type="int" >        4        6       14       15       97 </v>
   <v type="int" >        4        5        6       14       97 </v>
   <v type="int" >        4        5       14       96       97 </v>
   <v type="int" >        4       14       15       97      106 </v>
   <v type="int" >        4       14       97      105      106 </v>
   <v type="int" >        4       14       96       97      105 </v>
   <v type="int" >        4       15       30       31      106 </v>
   <v type="int" >        4       14       15       30      106 </v>
   <v type="int" >        4       14       30      105      106 </v>
   <v type="int" >        4       30       31      106      122 </v>
   <v type="int" >        4       30      106      121      122 </v>
   <v type="int" >        4       30      105      106      121 </v>
   <v type="int" >        4       31       44       45      122 </v>
   <v type="int" >        4       30       31       44      122 </v>
   <v type="int" >        4       30       44      121      122 </v>
   <v type="int" >        4       44       45      122      136 </v>
   <v type="int" >        4       44      122      135      136 </v>
   <v type="int" >        4       44      121      122      135 </v>
   <v type="int" >        4       45       56       57      136 </v>
   <v type="int" >        4       44       45       56      136 </v>
   <v type="int" >        4       44       56      135      136 </v>
   <v type="int" >        4       56       57      136      148 </v>
   <v type="int" >        4       56      136      147      148 </v>
   <v type="int" >        4       56      135      136      147 </v>
   <v type="int" >        4       57       57       67      148 </v>
   <v type="int" >        4       56       57       57      148 </v>
   <v type="int" >        4       56       57      147      148 </v>
   <v type="int" >        4       57       67      148      158 </v>
   <v type="int" >        4       57      148      148      158 </v>
   <v type="int" >        4       57      147      148      148 </v>
   <v type="int" >        4       58       67       68      158 </v>
   <v type="int" >        4       57       58       67      158 </v>
   <v type="int" >        4       57       58      148      158 </v>
   <v type="int" >        4       58       68      158      159 </v>
   <v type="int" >        4       58      149      158      159 </v>
   <v type="int" >        4       58      148      149      158 </v>
   <v type="int" >        4       59       68       69      159 </v>
   <v type="int" >        4       58       59       68      159 </v>
   <v type="int" >        4       58       59      149      159 </v>
   <v type="int" >        4       59       69      159      160 </v>
   <v type="int" >        4       59      150      159      160 </v>
   <v type="int" >        4       59      149      150      159 </v>
   <v type="int" >        4       60       69       70      160 </v>
   <v type="int" >        4       59       60       69      160 </v>
   <v type="int" >        4       59       60      150      160 </v>
   <v type="int" >        4       60       70      160      161 </v>
   <v type="int" >        4       60      151      160      161 </v>
   <v type="int" >        4       60      150      151      160 </v>
   <v type="int" >        4       61       70       71      161 </v>
   <v type="int" >        4       60       61       70      161 </v>
   <v type="int" >        4       60       61      151      161 </v>
   <v type="int" >        4       61       71      161      162 </v>
   <v type="int" >        4       61      152      161      162 </v>
   <v type="int" >        4       61      151      152      161 </v>
   <v type="int" >        4       62       71       72      162 </v>
   <v type="int" >        4       61       62       71      162 </v>
   <v type="int" >        4       61       62      152      162 </v>
   <v type="int" >        4       62       72      162      163 </v>
   <v type="int" >        4       62      153      162      163 </v>
   <v type="int" >        4       62      152      153      162 </v>
   <v type="int" >        4       63       72       73      163 </v>
   <v type="int" >        4       62       63       72      163 </v>
   <v type="int" >        4       62       63      153      163 </v>
   <v type="int" >        4       63       73      163      164 </v>
   <v type="int" >        4       63      154      163      164 </v>
   <v type="int" >        4       63      153      154      163 </v>
   <v type="int" >        4       64       73       74      164 </v>
   <v type="int" >        4       63       64       73      164 </v>
   <v type="int" >        4       63       64      154      164 </v>
   <v type="int" >        4       64       74      164      165 </v>
   <v type="int" >        4       64      155      164      165 </v>
   <v type="int" >        4       64      154      155      164 </v>
   <v type="int" >        4       65       74       75      165 </v>
   <v type="int" >        4       64       65       74      165 </v>
   <v type="int" >        4       64       65      155      165 </v>
   <v type="int" >        4       65       75      165      166 </v>
   <v type="int" >        4       65      156      165      166 </v>
   <v type="int" >        4       65      155      156      165 </v>
   <v type="int" >        4       65       66       75      166 </v>
   <v type="int" >        4       65       66      156      166 </v>
   <v type="int" >        4       66      156      157      166 </v>
   <v type="int" >        4        7       15       16       98 </v>
   <v type="int" >        4        6        7       15       98 </v>
   <v type="int" >        4        6       15       97       98 </v>
   <v type="int" >        4       15       16       98      107 </v>
   <v type="int" >        4       15       98      106      107 </v>
   <v type="int" >        4       15       97       98      106 </v>
   <v type="int" >        4       16       31       32      107 </v>
   <v type="int" >        4       15       16       31      107 </v>
   <v type="int" >        4       15       31      106      107 </v>
   <v type="int" >        4       31       32      107      123 </v>
   <v type="int" >        4       31      107      122      123 </v>
   <v type="int" >        4       31      106      107      122 </v>
   <v type="int" >        4       32       45       46      123 </v>
   <v type="int" >        4       31       32       45      123 </v>
   <v type="int" >        4       31       45      122      123 </v>
   <v type="int" >        4       45       46      123      137 </v>
   <v type="int" >        4       45      123      136      137 </v>
   <v type="int" >        4       45      122      123      136 </v>
   <v type="int" >        4       46       57       58      137 </v>
   <v type="int" >        4       45       46       57      137 </v>
   <v type="int" >        4       45       57      136      137 </v>
   <v type="int" >        4       57       58      137      149 </v>
   <v type="int" >        4       57      137      148      149 </v>
   <v type="int" >        4       57      136      137      148 </v>
   <v type="int" >        4       58       67       68      149 </v>
   <v type="int" >        4       57       58       67      149 </v>
   <v type="int" >        4       57       67      148      149 </v>
   <v type="int" >        4       67       68      149      159 </v>
   <v type="int" >        4       67      149      158      159 </v>
   <v type="int" >        4       67      148      149      158 </v>
   <v type="int" >        4       68       68       76      159 </v>
   <v type="int" >        4       67       68       68      159 </v>
   <v type="int" >        4       67       68      158      159 </v>
   <v type="int" >        4       68       76      159      167 </v>
   <v type="int" >        4       68      159      159      167 </v>
   <v type="int" >        4       68      158      159      159 </v>
   <v type="int" >        4       69       76       77      167 </v>
   <v type="int" >        4       68       69       76      167 </v>
   <v type="int" >        4       68       69      159      167 </v>
   <v type="int" >        4       69       77      167      168 </v>
   <v type="int" >        4       69      160      167      168 </v>
   <v type="int" >        4       69      159      160      167 </v>
   <v type="int" >        4       70       77       78      168 </v>
   <v type="int" >        4       69       70       77      168 </v>
   <v type="int" >        4       69       70      160      168 </v>
   <v type="int" >        4       70       78      168      169 </v>
   <v type="int" >        4       70      161      168      169 </v>
   <v type="int" >        4       70      160      161      168 </v>
   <v type="int" >        4       71       78       79      169 </v>
   <v type="int" >        4       70       71       78      169 </v>
   <v type="int" >        4       70       71      161      169 </v>
   <v type="int" >        4       71       79      169      170 </v>
   <v type="int" >        4       71      162      169      170 </v>
   <v type="int" >        4       71      161      162      169 </v>
   <v type="int" >        4       72       79       80      170 </v>
   <v type="int" >        4       71       72       79      170 </v>
   <v type="int" >        4       71       72      162      170 </v>
   <v type="int" >        4       72       80      170      171 </v>
   <v type="int" >        4       72      163      170      171 </v>
   <v type="int" >        4       72      162      163      170 </v>
   <v type="int" >        4       73       80       81      171 </v>
   <v type="int" >        4       72       73       80      171 </v>
   <v type="int" >        4       72       73      163      171 </v>
[...]
       <r>   -7.1015    1.0000 </r>
       <r>   -7.1015    1.0000 </r>
       <r>   -5.5260    1.0000 </r>
       <r>   -5.5260    1.0000 </r>
       <r>   -1.1322    1.0000 </r>
       <r>   -1.1322    1.0000 </r>
       <r>    5.1699    1.0000 </r>
       <r>    5.1700    1.0000 </r>
       <r>    8.5902    0.0000 </r>
       <r>    8.5902    0.0000 </r>
       <r>   16.7896    0.0000 </r>
       <r>   16.7896    0.0000 </r>
      </set>
      <set comment="kpoint 449">
       <r>   -7.8262    1.0000 </r>
       <r>   -7.8262    1.0000 </r>
       <r>   -5.1781    1.0000 </r>
       <r>   -5.1781    1.0000 </r>
       <r>   -0.1445    1.0000 </r>
       <r>   -0.1445    1.0000 </r>
       <r>    4.5446    1.0000 </r>
       <r>    4.5446    1.0000 </r>
       <r>    9.1098    0.0000 </r>
       <r>    9.1098    0.0000 </r>
       <r>   15.6482    0.0000 </r>
       <r>   15.6482    0.0000 </r>
      </set>
      <set comment="kpoint 450">
       <r>   -8.4851    1.0000 </r>
       <r>   -8.4851    1.0000 </r>
       <r>   -4.6618    1.0000 </r>
       <r>   -4.6618    1.0000 </r>
       <r>    0.6115    1.0000 </r>
       <r>    0.6115    1.0000 </r>
       <r>    3.9486    1.0000 </r>
       <r>    3.9486    1.0000 </r>
       <r>    9.7086    0.0000 </r>
       <r>    9.7086    0.0000 </r>
       <r>   14.8290    0.0000 </r>
       <r>   14.8290    0.0000 </r>
      </set>
      <set comment="kpoint 451">
       <r>   -9.0320    1.0000 </r>
       <r>   -9.0320    1.0000 </r>
       <r>   -4.0191    1.0000 </r>
       <r>   -4.0191    1.0000 </r>
       <r>    0.9811    1.0000 </r>
       <r>    0.9811    1.0000 </r>
       <r>    3.4309    1.0000 </r>
       <r>    3.4309    1.0000 </r>
       <r>   10.3646    0.0000 </r>
       <r>   10.3646    0.0000 </r>
       <r>   14.5904    0.0000 </r>
       <r>   14.5904    0.0000 </r>
      </set>
      <set comment="kpoint 452">
       <r>   -7.0738    1.0000 </r>
       <r>   -7.0738    1.0000 </r>
       <r>   -6.0329    1.0000 </r>
       <r>   -6.0329    1.0000 </r>
       <r>   -0.2196    1.0000 </r>
       <r>   -0.2196    1.0000 </r>
       <r>    4.9704    1.0000 </r>
       <r>    4.9704    1.0000 </r>
       <r>    8.5885    0.0000 </r>
       <r>    8.5885    0.0000 </r>
       <r>   15.5976    0.0000 </r>
       <r>   15.5976    0.0000 </r>
      </set>
      <set comment="kpoint 453">
       <r>   -7.4874    1.0000 </r>
       <r>   -7.4874    1.0000 </r>
       <r>   -5.8730    1.0000 </r>
       <r>   -5.8730    1.0000 </r>
       <r>    0.4661    1.0000 </r>
       <r>    0.4661    1.0000 </r>
       <r>    4.6603    1.0000 </r>
       <r>    4.6603    1.0000 </r>
       <r>    8.7880    0.0000 </r>
       <r>    8.7880    0.0000 </r>
       <r>   14.7333    0.0000 </r>
       <r>   14.7333    0.0000 </r>
      </set>
      <set comment="kpoint 454">
       <r>   -8.0250    1.0000 </r>
       <r>   -8.0250    1.0000 </r>
       <r>   -5.3477    1.0000 </r>
       <r>   -5.3477    1.0000 </r>
       <r>    0.7665    1.0000 </r>
       <r>    0.7665    1.0000 </r>
       <r>    4.2960    1.0000 </r>
       <r>    4.2960    1.0000 </r>
       <r>    9.1836    0.0000 </r>
       <r>    9.1836    0.0000 </r>
       <r>   14.4480    0.0000 </r>
       <r>   14.4480    0.0000 </r>
      </set>
      <set comment="kpoint 455">
       <r>   -7.2634    1.0000 </r>
       <r>   -7.2634    1.0000 </r>
       <r>   -6.2181    1.0000 </r>
       <r>   -6.2181    1.0000 </r>
       <r>    0.6941    1.0000 </r>
       <r>    0.6941    1.0000 </r>
       <r>    4.7097    1.0000 </r>
       <r>    4.7097    1.0000 </r>
       <r>    8.6611    0.0000 </r>
       <r>    8.6611    0.0000 </r>
       <r>   14.4001    0.0000 </r>
       <r>   14.4001    0.0000 </r>
      </set>
     </set>
    </set>
   </array>
  </eigenvalues>
  <separator name="orbital magnetization" >
   <v name="MAGDIPOLOUT">      0.00000000      0.00000000      0.00000000</v>
  </separator>
  <dos>
   <i name="efermi">      6.90805516 </i>
   <total>
    <array>
     <dimension dim="1">gridpoints</dimension>
     <dimension dim="2">spin</dimension>
     <field>energy</field>
     <field>total</field>
     <field>integrated</field>
     <set>
      <set comment="spin 1">
       <r>   -15.1855     0.0000     0.0000 </r>
       <r>   -15.0615     0.0000     0.0000 </r>
       <r>   -14.9375     0.0000     0.0000 </r>
       <r>   -14.8135     0.0000     0.0000 </r>
       <r>   -14.6895     0.0000     0.0000 </r>
       <r>   -14.5655     0.0000     0.0000 </r>
       <r>   -14.4415     0.0000     0.0000 </r>
       <r>   -14.3176     0.0000     0.0000 </r>
       <r>   -14.1936     0.0000     0.0000 </r>
       <r>   -14.0696     0.0000     0.0000 </r>
       <r>   -13.9456     0.0000     0.0000 </r>
       <r>   -13.8216     0.0000     0.0000 </r>
       <r>   -13.6976     0.0000     0.0000 </r>
       <r>   -13.5737     0.0000     0.0000 </r>
       <r>   -13.4497     0.0000     0.0000 </r>
       <r>   -13.3257     0.0000     0.0000 </r>
       <r>   -13.2017     0.0000     0.0000 </r>
       <r>   -13.0777     0.1027     0.0058 </r>
       <r>   -12.9537     0.1684     0.0222 </r>
       <r>   -12.8298     0.2075     0.0456 </r>
       <r>   -12.7058     0.2503     0.0740 </r>
       <r>   -12.5818     0.2863     0.1075 </r>
       <r>   -12.4578     0.3185     0.1449 </r>
       <r>   -12.3338     0.3550     0.1867 </r>
       <r>   -12.2098     0.3902     0.2330 </r>
       <r>   -12.0858     0.4239     0.2834 </r>
       <r>   -11.9619     0.4618     0.3382 </r>
       <r>   -11.8379     0.5139     0.3987 </r>
       <r>   -11.7139     0.6120     0.4673 </r>
       <r>   -11.5899     0.6180     0.5437 </r>
       <r>   -11.4659     0.6137     0.6202 </r>
       <r>   -11.3419     0.6206     0.6967 </r>
       <r>   -11.2180     0.6194     0.7737 </r>
       <r>   -11.0940     0.6220     0.8507 </r>
       <r>   -10.9700     0.6241     0.9279 </r>
       <r>   -10.8460     0.6210     1.0052 </r>
       <r>   -10.7220     0.6232     1.0823 </r>
       <r>   -10.5980     0.6268     1.1598 </r>
       <r>   -10.4740     0.6303     1.2377 </r>
       <r>   -10.3501     0.6285     1.3158 </r>
       <r>   -10.2261     0.6292     1.3937 </r>
       <r>   -10.1021     0.6315     1.4719 </r>
       <r>    -9.9781     0.6336     1.5503 </r>
       <r>    -9.8541     0.6352     1.6290 </r>
       <r>    -9.7301     0.6365     1.7078 </r>
       <r>    -9.6062     0.6395     1.7869 </r>
       <r>    -9.4822     0.6415     1.8663 </r>
       <r>    -9.3582     0.6437     1.9460 </r>
       <r>    -9.2342     0.6458     2.0259 </r>
       <r>    -9.1102     0.6470     2.1060 </r>
       <r>    -8.9862     0.6500     2.1864 </r>
       <r>    -8.8622     0.6543     2.2673 </r>
       <r>    -8.7383     0.6593     2.3487 </r>
       <r>    -8.6143     0.6635     2.4307 </r>
       <r>    -8.4903     0.6681     2.5132 </r>
       <r>    -8.3663     0.6739     2.5964 </r>
       <r>    -8.2423     0.6837     2.6805 </r>
       <r>    -8.1183     0.6983     2.7661 </r>
       <r>    -7.9944     0.7164     2.8538 </r>
       <r>    -7.8704     0.7913     2.9469 </r>
       <r>    -7.7464     0.8012     3.0462 </r>
       <r>    -7.6224     0.7782     3.1443 </r>
       <r>    -7.4984     0.8545     3.2432 </r>
       <r>    -7.3744     0.7904     3.3445 </r>
       <r>    -7.2504     0.7999     3.4425 </r>
       <r>    -7.1265     0.8243     3.5441 </r>
       <r>    -7.0025     0.6020     3.6362 </r>
       <r>    -6.8785     0.4723     3.6995 </r>
       <r>    -6.7545     0.4792     3.7599 </r>
       <r>    -6.6305     0.4223     3.8160 </r>
       <r>    -6.5065     0.3277     3.8626 </r>
       <r>    -6.3826     0.2461     3.8977 </r>
       <r>    -6.2586     0.2088     3.9258 </r>
       <r>    -6.1346     0.4658     3.9564 </r>
       <r>    -6.0106     0.4684     4.0206 </r>
       <r>    -5.8866     0.5330     4.0815 </r>
       <r>    -5.7626     0.6110     4.1533 </r>
       <r>    -5.6386     0.6447     4.2305 </r>
       <r>    -5.5147     0.7006     4.3132 </r>
       <r>    -5.3907     0.8758     4.4106 </r>
       <r>    -5.2667     0.9708     4.5322 </r>
       <r>    -5.1427     0.9336     4.6494 </r>
       <r>    -5.0187     0.8493     4.7591 </r>
       <r>    -4.8947     0.8652     4.8659 </r>
       <r>    -4.7708     0.7207     4.9674 </r>
       <r>    -4.6468     0.6921     5.0550 </r>
       <r>    -4.5228     0.6649     5.1391 </r>
       <r>    -4.3988     0.6421     5.2201 </r>
       <r>    -4.2748     0.6201     5.2983 </r>
       <r>    -4.1508     0.6009     5.3740 </r>
       <r>    -4.0268     0.5895     5.4476 </r>
       <r>    -3.9029     0.5747     5.5202 </r>
       <r>    -3.7789     0.5565     5.5902 </r>
       <r>    -3.6549     0.5420     5.6583 </r>
       <r>    -3.5309     0.5291     5.7247 </r>
       <r>    -3.4069     0.5634     5.7914 </r>
       <r>    -3.2829     0.7063     5.8697 </r>
       <r>    -3.1590     0.7112     5.9628 </r>
       <r>    -3.0350     0.7164     6.0509 </r>
       <r>    -2.9110     0.7292     6.1406 </r>
       <r>    -2.7870     0.7636     6.2324 </r>
       <r>    -2.6630     0.7989     6.3295 </r>
       <r>    -2.5390     0.8188     6.4297 </r>
       <r>    -2.4150     0.8416     6.5326 </r>
       <r>    -2.2911     0.8704     6.6386 </r>
       <r>    -2.1671     0.8975     6.7483 </r>
       <r>    -2.0431     0.9101     6.8606 </r>
       <r>    -1.9191     0.9217     6.9741 </r>
       <r>    -1.7951     0.9420     7.0896 </r>
       <r>    -1.6711     0.9607     7.2076 </r>
       <r>    -1.5472     0.9802     7.3278 </r>
       <r>    -1.4232     1.0175     7.4514 </r>
       <r>    -1.2992     1.0955     7.5824 </r>
       <r>    -1.1752     1.1492     7.7218 </r>
       <r>    -1.0512     1.1696     7.8664 </r>
       <r>    -0.9272     1.1143     8.0086 </r>
       <r>    -0.8032     1.0744     8.1429 </r>
       <r>    -0.6793     1.0595     8.2753 </r>
       <r>    -0.5553     1.0444     8.4057 </r>
       <r>    -0.4313     1.0609     8.5352 </r>
       <r>    -0.3073     1.2154     8.6754 </r>
       <r>    -0.1833     1.3030     8.8369 </r>
       <r>    -0.0593     1.4207     9.0080 </r>
       <r>     0.0646     1.4068     9.1824 </r>
       <r>     0.1886     1.4432     9.3597 </r>
       <r>     0.3126     1.5933     9.5456 </r>
       <r>     0.4366     1.7290     9.7528 </r>
       <r>     0.5606     1.8222     9.9755 </r>
       <r>     0.6846     1.8959    10.2043 </r>
       <r>     0.8086     1.7586    10.4317 </r>
       <r>     0.9325     1.5519    10.6383 </r>
       <r>     1.0565     1.5804    10.8286 </r>
       <r>     1.1805     1.3602    11.0301 </r>
       <r>     1.3045     1.2902    11.1949 </r>
       <r>     1.4285     1.3072    11.3549 </r>
       <r>     1.5525     1.3077    11.5220 </r>
       <r>     1.6764     1.2607    11.6800 </r>
       <r>     1.8004     1.2507    11.8359 </r>
       <r>     1.9244     1.2356    11.9911 </r>
       <r>     2.0484     1.1954    12.1417 </r>
       <r>     2.1724     1.1601    12.2877 </r>
       <r>     2.2964     1.2344    12.4332 </r>
       <r>     2.4204     1.1843    12.5869 </r>
       <r>     2.5443     1.1953    12.7329 </r>
       <r>     2.6683     1.2151    12.8833 </r>
       <r>     2.7923     1.1594    13.0310 </r>
       <r>     2.9163     1.1562    13.1733 </r>
       <r>     3.0403     1.1872    13.3180 </r>
       <r>     3.1643     1.2931    13.4712 </r>
       <r>     3.2882     1.2706    13.6352 </r>
       <r>     3.4122     1.1844    13.7869 </r>
       <r>     3.5362     1.1667    13.9319 </r>
       <r>     3.6602     1.1314    14.0744 </r>
       <r>     3.7842     1.1113    14.2149 </r>
       <r>     3.9082     1.0532    14.3524 </r>
       <r>     4.0322     0.8508    14.4708 </r>
       <r>     4.1561     0.6256    14.5593 </r>
       <r>     4.2801     0.6208    14.6365 </r>
       <r>     4.4041     0.6252    14.7137 </r>
       <r>     4.5281     0.6270    14.7914 </r>
       <r>     4.6521     0.6251    14.8690 </r>
       <r>     4.7761     0.6301    14.9470 </r>
       <r>     4.9000     0.6307    15.0251 </r>
       <r>     5.0240     0.7111    15.1068 </r>
       <r>     5.1480     0.9800    15.2099 </r>
       <r>     5.2720     0.8815    15.3282 </r>
       <r>     5.3960     0.8343    15.4329 </r>
       <r>     5.5200     0.7317    15.5313 </r>
       <r>     5.6440     0.6108    15.6149 </r>
       <r>     5.7679     0.4907    15.6825 </r>
       <r>     5.8919     0.4236    15.7392 </r>
       <r>     6.0159     0.3591    15.7877 </r>
       <r>     6.1399     0.3248    15.8297 </r>
       <r>     6.2639     0.3005    15.8685 </r>
       <r>     6.3879     0.2539    15.9029 </r>
       <r>     6.5118     0.2760    15.9335 </r>
       <r>     6.6358     0.2698    15.9720 </r>
       <r>     6.7598     0.0900    15.9935 </r>
       <r>     6.8838     0.0224    15.9995 </r>
       <r>     7.0078     0.0187    16.0018 </r>
       <r>     7.1318     0.0387    16.0052 </r>
       <r>     7.2558     0.0613    16.0114 </r>
       <r>     7.3797     0.0845    16.0204 </r>
       <r>     7.5037     0.1248    16.0332 </r>
       <r>     7.6277     0.1346    16.0493 </r>
       <r>     7.7517     0.1495    16.0669 </r>
       <r>     7.8757     0.1718    16.0867 </r>
       <r>     7.9997     0.1963    16.1096 </r>
       <r>     8.1236     0.2169    16.1352 </r>
       <r>     8.2476     0.2578    16.1637 </r>
       <r>     8.3716     0.3714    16.2032 </r>
       <r>     8.4956     0.4377    16.2521 </r>
       <r>     8.6196     0.6820    16.3188 </r>
       <r>     8.7436     0.8622    16.4149 </r>
       <r>     8.8676     0.9427    16.5286 </r>
       <r>     8.9915     0.8928    16.6410 </r>
       <r>     9.1155     1.0214    16.7616 </r>
       <r>     9.2395     0.8249    16.8755 </r>
       <r>     9.3635     0.7184    16.9690 </r>
       <r>     9.4875     0.7198    17.0575 </r>
       <r>     9.6115     0.6739    17.1438 </r>
       <r>     9.7354     0.6908    17.2289 </r>
       <r>     9.8594     0.6252    17.3105 </r>
       <r>     9.9834     0.5959    17.3861 </r>
       <r>    10.1074     0.5896    17.4593 </r>
       <r>    10.2314     0.6012    17.5334 </r>
       <r>    10.3554     0.5514    17.6055 </r>
       <r>    10.4794     0.5301    17.6725 </r>
       <r>    10.6033     0.5110    17.7370 </r>
       <r>    10.7273     0.4927    17.7992 </r>
       <r>    10.8513     0.4758    17.8591 </r>
       <r>    10.9753     0.4652    17.9175 </r>
       <r>    11.0993     0.4541    17.9745 </r>
       <r>    11.2233     0.4441    18.0301 </r>
       <r>    11.3472     0.4347    18.0846 </r>
       <r>    11.4712     0.4257    18.1379 </r>
       <r>    11.5952     0.4169    18.1902 </r>
       <r>    11.7192     0.4081    18.2413 </r>
       <r>    11.8432     0.3989    18.2913 </r>
       <r>    11.9672     0.3929    18.3404 </r>
       <r>    12.0912     0.3869    18.3888 </r>
       <r>    12.2151     0.3808    18.4364 </r>
       <r>    12.3391     0.3741    18.4832 </r>
       <r>    12.4631     0.3676    18.5291 </r>
       <r>    12.5871     0.3616    18.5743 </r>
       <r>    12.7111     0.3558    18.6188 </r>
       <r>    12.8351     0.3503    18.6626 </r>
       <r>    12.9590     0.3448    18.7057 </r>
       <r>    13.0830     0.3411    18.7482 </r>
       <r>    13.2070     0.3376    18.7902 </r>
       <r>    13.3310     0.3346    18.8319 </r>
       <r>    13.4550     0.3326    18.8733 </r>
       <r>    13.5790     0.3402    18.9145 </r>
       <r>    13.7030     0.4354    18.9626 </r>
       <r>    13.8269     0.5386    19.0229 </r>
       <r>    13.9509     0.6180    19.0953 </r>
       <r>    14.0749     0.6626    19.1748 </r>
       <r>    14.1989     0.7008    19.2593 </r>
       <r>    14.3229     0.7475    19.3489 </r>
       <r>    14.4469     0.8062    19.4452 </r>
       <r>    14.5708     0.8712    19.5491 </r>
       <r>    14.6948     0.9409    19.6613 </r>
       <r>    14.8188     1.0634    19.7848 </r>
       <r>    14.9428     1.2373    19.9262 </r>
       <r>    15.0668     1.3882    20.0897 </r>
       <r>    15.1908     1.6093    20.2716 </r>
       <r>    15.3148     2.4109    20.5183 </r>
       <r>    15.4387     2.2178    20.8080 </r>
       <r>    15.5627     1.7968    21.0667 </r>
       <r>    15.6867     1.4344    21.2593 </r>
       <r>    15.8107     1.5087    21.4452 </r>
       <r>    15.9347     1.4228    21.6253 </r>
       <r>    16.0587     1.4195    21.8021 </r>
       <r>    16.1826     1.5641    21.9903 </r>
       <r>    16.3066     1.5341    22.1829 </r>
       <r>    16.4306     1.3334    22.3634 </r>
       <r>    16.5546     1.2701    22.5247 </r>
       <r>    16.6786     1.1896    22.6800 </r>
       <r>    16.8026     0.9485    22.8072 </r>
       <r>    16.9266     0.7379    22.9134 </r>
       <r>    17.0505     0.5922    22.9918 </r>
       <r>    17.1745     0.5693    23.0637 </r>
       <r>    17.2985     0.5600    23.1335 </r>
       <r>    17.4225     0.5960    23.2039 </r>
       <r>    17.5465     0.8515    23.2906 </r>
       <r>    17.6705     0.8044    23.3965 </r>
       <r>    17.7944     0.7929    23.4946 </r>
       <r>    17.9184     0.7341    23.5993 </r>
       <r>    18.0424     0.5218    23.6750 </r>
       <r>    18.1664     0.4064    23.7320 </r>
       <r>    18.2904     0.3362    23.7780 </r>
       <r>    18.4144     0.2901    23.8166 </r>
       <r>    18.5384     0.2366    23.8492 </r>
       <r>    18.6623     0.2089    23.8768 </r>
       <r>    18.7863     0.1839    23.9011 </r>
       <r>    18.9103     0.2423    23.9262 </r>
       <r>    19.0343     0.1546    23.9521 </r>
       <r>    19.1583     0.0964    23.9665 </r>
       <r>    19.2823     0.0722    23.9769 </r>
       <r>    19.4062     0.0540    23.9847 </r>
       <r>    19.5302     0.0412    23.9905 </r>
       <r>    19.6542     0.0284    23.9948 </r>
       <r>    19.7782     0.0184    23.9977 </r>
       <r>    19.9022     0.0110    23.9995 </r>
       <r>    20.0262     0.0000    24.0000 </r>
       <r>    20.1501     0.0000    24.0000 </r>
       <r>    20.2741     0.0000    24.0000 </r>
       <r>    20.3981     0.0000    24.0000 </r>
       <r>    20.5221     0.0000    24.0000 </r>
       <r>    20.6461     0.0000    24.0000 </r>
       <r>    20.7701     0.0000    24.0000 </r>
       <r>    20.8941     0.0000    24.0000 </r>
       <r>    21.0180     0.0000    24.0000 </r>
       <r>    21.1420     0.0000    24.0000 </r>
       <r>    21.2660     0.0000    24.0000 </r>
       <r>    21.3900     0.0000    24.0000 </r>
       <r>    21.5140     0.0000    24.0000 </r>
       <r>    21.6380     0.0000    24.0000 </r>
       <r>    21.7619     0.0000    24.0000 </r>
       <r>    21.8859     0.0000    24.0000 </r>
       <r>    22.0099     0.0000    24.0000 </r>
      </set>
     </set>
    </array>
   </total>
  </dos>
 </calculation>
 <structure name="finalpos" >
  <crystal>
   <varray name="basis" >
    <v>       2.46643725      -0.00095964       0.00000000 </v>
    <v>      -1.23404970       2.13551749       0.00000000 </v>
    <v>       0.00000000       0.00000000       5.30540058 </v>
   </varray>
   <i name="volume">     27.93789803 </i>
   <varray name="rec_basis" >
    <v>       0.40553429       0.23434576       0.00000000 </v>
    <v>       0.00018224       0.46837588       0.00000000 </v>
    <v>       0.00000000       0.00000000       0.18848718 </v>
   </varray>
  </crystal>
  <varray name="positions" >
   <v>       0.99934661       0.00065344       0.25000000 </v>
   <v>       0.00065344       0.99934661       0.75000000 </v>
   <v>       0.33258492       0.66741506       0.25000000 </v>
   <v>       0.66741506       0.33258492       0.75000000 </v>
  </varray>
 </structure>
</modeling>
