<?xml version="1.0" encoding="ISO-8859-1"?>
<modeling>
 <generator>
  <i name="program" type="string">vasp </i>
  <i name="version" type="string">5.3.5  </i>
  <i name="subversion" type="string">31Mar14 (build Nov 02 2014 15:17:37) complex                          parallel </i>
  <i name="platform" type="string">ion-Intel-MKL </i>
  <i name="date" type="string">2016 10 18 </i>
  <i name="time" type="string">01:54:08 </i>
 </generator>
 <incar>
  <i type="string" name="SYSTEM">graphite</i>
  <i type="string" name="PREC">accurate</i>
  <i type="int" name="NELM">   200</i>
  <i type="int" name="IBRION">    -1</i>
  <i name="EDIFF">      0.00000001</i>
  <i name="EDIFFG">      0.00100000</i>
  <i type="int" name="NSW">     0</i>
  <i type="int" name="ISIF">     2</i>
  <i name="ENCUT">    800.00000000</i>
  <i type="int" name="ISMEAR">    -5</i>
  <i type="logical" name="LWAVE"> F  </i>
  <i type="logical" name="LCHARG"> F  </i>
  <i type="int" name="NELM">   200</i>
  <i type="string" name="GGA">PE</i>
 </incar>
 <kpoints>
  <generation param="Gamma">
   <v type="int" name="divisions">       6        6        4 </v>
   <v name="usershift">      0.00000000       0.00000000       0.00000000 </v>
   <v name="genvec1">      0.16666667       0.00000000       0.00000000 </v>
   <v name="genvec2">     -0.00000000       0.16666667       0.00000000 </v>
   <v name="genvec3">      0.00000000       0.00000000       0.25000000 </v>
   <v name="shift">      0.00000000       0.00000000       0.00000000 </v>
  </generation>
  <varray name="kpointlist" >
   <v>       0.00000000       0.00000000       0.00000000 </v>
   <v>       0.16666667       0.00000000       0.00000000 </v>
   <v>       0.33333333       0.00000000       0.00000000 </v>
   <v>       0.50000000       0.00000000       0.00000000 </v>
   <v>       0.00000000       0.16666667       0.00000000 </v>
   <v>       0.16666667       0.16666667       0.00000000 </v>
   <v>       0.33333333       0.16666667       0.00000000 </v>
   <v>       0.50000000       0.16666667       0.00000000 </v>
   <v>      -0.33333333       0.16666667       0.00000000 </v>
   <v>      -0.16666667       0.16666667       0.00000000 </v>
   <v>      -0.00000000       0.33333333       0.00000000 </v>
   <v>       0.16666667       0.33333333       0.00000000 </v>
   <v>       0.33333333       0.33333333       0.00000000 </v>
   <v>       0.50000000       0.33333333       0.00000000 </v>
   <v>      -0.33333333       0.33333333       0.00000000 </v>
   <v>      -0.16666667       0.33333333       0.00000000 </v>
   <v>       0.00000000       0.50000000       0.00000000 </v>
   <v>       0.16666667       0.50000000       0.00000000 </v>
   <v>       0.33333333       0.50000000       0.00000000 </v>
   <v>       0.50000000       0.50000000       0.00000000 </v>
   <v>       0.00000000       0.00000000       0.25000000 </v>
   <v>       0.16666667       0.00000000       0.25000000 </v>
   <v>       0.33333333       0.00000000       0.25000000 </v>
   <v>       0.50000000       0.00000000       0.25000000 </v>
   <v>      -0.33333333       0.00000000       0.25000000 </v>
   <v>      -0.16666667       0.00000000       0.25000000 </v>
   <v>       0.00000000       0.16666667       0.25000000 </v>
   <v>       0.16666667       0.16666667       0.25000000 </v>
   <v>       0.33333333       0.16666667       0.25000000 </v>
   <v>       0.50000000       0.16666667       0.25000000 </v>
   <v>      -0.33333333       0.16666667       0.25000000 </v>
   <v>      -0.16666667       0.16666667       0.25000000 </v>
   <v>      -0.00000000       0.33333333       0.25000000 </v>
   <v>       0.16666667       0.33333333       0.25000000 </v>
   <v>       0.33333333       0.33333333       0.25000000 </v>
   <v>       0.50000000       0.33333333       0.25000000 </v>
   <v>      -0.33333333       0.33333333       0.25000000 </v>
   <v>      -0.16666667       0.33333333       0.25000000 </v>
   <v>       0.00000000       0.50000000       0.25000000 </v>
   <v>       0.16666667       0.50000000       0.25000000 </v>
   <v>       0.33333333       0.50000000       0.25000000 </v>
   <v>       0.50000000       0.50000000       0.25000000 </v>
   <v>      -0.33333333       0.50000000       0.25000000 </v>
   <v>      -0.16666667       0.50000000       0.25000000 </v>
   <v>       0.00000000      -0.33333333       0.25000000 </v>
   <v>       0.16666667      -0.33333333       0.25000000 </v>
   <v>       0.33333333      -0.33333333       0.25000000 </v>
   <v>       0.50000000      -0.33333333       0.25000000 </v>
   <v>      -0.33333333      -0.33333333       0.25000000 </v>
   <v>      -0.16666667      -0.33333333       0.25000000 </v>
   <v>       0.00000000      -0.16666667       0.25000000 </v>
   <v>       0.16666667      -0.16666667       0.25000000 </v>
   <v>       0.33333333      -0.16666667       0.25000000 </v>
   <v>       0.50000000      -0.16666667       0.25000000 </v>
   <v>      -0.33333333      -0.16666667       0.25000000 </v>
   <v>      -0.16666667      -0.16666667       0.25000000 </v>
   <v>       0.00000000       0.00000000       0.50000000 </v>
   <v>       0.16666667       0.00000000       0.50000000 </v>
   <v>       0.33333333       0.00000000       0.50000000 </v>
   <v>       0.50000000       0.00000000       0.50000000 </v>
   <v>       0.00000000       0.16666667       0.50000000 </v>
   <v>       0.16666667       0.16666667       0.50000000 </v>
   <v>       0.33333333       0.16666667       0.50000000 </v>
   <v>       0.50000000       0.16666667       0.50000000 </v>
   <v>      -0.33333333       0.16666667       0.50000000 </v>
   <v>      -0.16666667       0.16666667       0.50000000 </v>
   <v>      -0.00000000       0.33333333       0.50000000 </v>
   <v>       0.16666667       0.33333333       0.50000000 </v>
   <v>       0.33333333       0.33333333       0.50000000 </v>
   <v>       0.50000000       0.33333333       0.50000000 </v>
   <v>      -0.33333333       0.33333333       0.50000000 </v>
   <v>      -0.16666667       0.33333333       0.50000000 </v>
   <v>       0.00000000       0.50000000       0.50000000 </v>
   <v>       0.16666667       0.50000000       0.50000000 </v>
   <v>       0.33333333       0.50000000       0.50000000 </v>
   <v>       0.50000000       0.50000000       0.50000000 </v>
  </varray>
  <varray name="weights" >
   <v>       0.00694444 </v>
   <v>       0.01388889 </v>
   <v>       0.01388889 </v>
   <v>       0.00694444 </v>
   <v>       0.01388889 </v>
   <v>       0.01388889 </v>
   <v>       0.01388889 </v>
   <v>       0.01388889 </v>
   <v>       0.01388889 </v>
   <v>       0.01388889 </v>
   <v>       0.01388889 </v>
   <v>       0.01388889 </v>
   <v>       0.01388889 </v>
   <v>       0.01388889 </v>
   <v>       0.01388889 </v>
   <v>       0.01388889 </v>
   <v>       0.00694444 </v>
   <v>       0.01388889 </v>
   <v>       0.01388889 </v>
   <v>       0.00694444 </v>
   <v>       0.01388889 </v>
   <v>       0.01388889 </v>
   <v>       0.01388889 </v>
   <v>       0.01388889 </v>
   <v>       0.01388889 </v>
   <v>       0.01388889 </v>
   <v>       0.01388889 </v>
   <v>       0.01388889 </v>
   <v>       0.01388889 </v>
   <v>       0.01388889 </v>
   <v>       0.01388889 </v>
   <v>       0.01388889 </v>
   <v>       0.01388889 </v>
   <v>       0.01388889 </v>
   <v>       0.01388889 </v>
   <v>       0.01388889 </v>
   <v>       0.01388889 </v>
   <v>       0.01388889 </v>
   <v>       0.01388889 </v>
   <v>       0.01388889 </v>
   <v>       0.01388889 </v>
   <v>       0.01388889 </v>
   <v>       0.01388889 </v>
   <v>       0.01388889 </v>
   <v>       0.01388889 </v>
   <v>       0.01388889 </v>
   <v>       0.01388889 </v>
   <v>       0.01388889 </v>
   <v>       0.01388889 </v>
   <v>       0.01388889 </v>
   <v>       0.01388889 </v>
   <v>       0.01388889 </v>
   <v>       0.01388889 </v>
   <v>       0.01388889 </v>
   <v>       0.01388889 </v>
   <v>       0.01388889 </v>
   <v>       0.00694444 </v>
   <v>       0.01388889 </v>
   <v>       0.01388889 </v>
   <v>       0.00694444 </v>
   <v>       0.01388889 </v>
   <v>       0.01388889 </v>
   <v>       0.01388889 </v>
   <v>       0.01388889 </v>
   <v>       0.01388889 </v>
   <v>       0.01388889 </v>
   <v>       0.01388889 </v>
   <v>       0.01388889 </v>
   <v>       0.01388889 </v>
   <v>       0.01388889 </v>
   <v>       0.01388889 </v>
   <v>       0.01388889 </v>
   <v>       0.00694444 </v>
   <v>       0.01388889 </v>
   <v>       0.01388889 </v>
   <v>       0.00694444 </v>
  </varray>
  <varray name="tetrahedronlist"  type="int" >
   <v type="int" >        2        2        5        6       27 </v>
   <v type="int" >        2        1        2        5       27 </v>
   <v type="int" >        2        1        2       21       27 </v>
   <v type="int" >        2        2        6       27       28 </v>
   <v type="int" >        2        2       22       27       28 </v>
   <v type="int" >        2        2       21       22       27 </v>
   <v type="int" >        2        3        6        7       28 </v>
   <v type="int" >        2        2        3        6       28 </v>
   <v type="int" >        2        2        3       22       28 </v>
   <v type="int" >        2        3        7       28       29 </v>
   <v type="int" >        2        3       23       28       29 </v>
   <v type="int" >        2        3       22       23       28 </v>
   <v type="int" >        2        4        7        8       29 </v>
   <v type="int" >        2        3        4        7       29 </v>
   <v type="int" >        2        3        4       23       29 </v>
   <v type="int" >        2        4        8       29       30 </v>
   <v type="int" >        2        4       24       29       30 </v>
   <v type="int" >        2        4       23       24       29 </v>
   <v type="int" >        2        3        8        9       30 </v>
   <v type="int" >        2        3        4        8       30 </v>
   <v type="int" >        2        3        4       24       30 </v>
   <v type="int" >        2        3        9       30       31 </v>
   <v type="int" >        2        3       25       30       31 </v>
   <v type="int" >        2        3       24       25       30 </v>
   <v type="int" >        2        2        9       10       31 </v>
   <v type="int" >        2        2        3        9       31 </v>
   <v type="int" >        2        2        3       25       31 </v>
   <v type="int" >        2        2       10       31       32 </v>
   <v type="int" >        2        2       26       31       32 </v>
   <v type="int" >        2        2       25       26       31 </v>
   <v type="int" >        2        1        5       10       32 </v>
   <v type="int" >        2        1        2       10       32 </v>
   <v type="int" >        2        1        2       26       32 </v>
   <v type="int" >        2        1        5       27       32 </v>
   <v type="int" >        2        1       21       27       32 </v>
   <v type="int" >        2        1       21       26       32 </v>
   <v type="int" >        2        6       11       12       33 </v>
   <v type="int" >        2        5        6       11       33 </v>
   <v type="int" >        2        5        6       27       33 </v>
   <v type="int" >        2        6       12       33       34 </v>
   <v type="int" >        2        6       28       33       34 </v>
   <v type="int" >        2        6       27       28       33 </v>
   <v type="int" >        2        7       12       13       34 </v>
   <v type="int" >        2        6        7       12       34 </v>
   <v type="int" >        2        6        7       28       34 </v>
   <v type="int" >        2        7       13       34       35 </v>
   <v type="int" >        2        7       29       34       35 </v>
   <v type="int" >        2        7       28       29       34 </v>
   <v type="int" >        2        8       13       14       35 </v>
   <v type="int" >        2        7        8       13       35 </v>
   <v type="int" >        2        7        8       29       35 </v>
   <v type="int" >        2        8       14       35       36 </v>
   <v type="int" >        2        8       30       35       36 </v>
   <v type="int" >        2        8       29       30       35 </v>
   <v type="int" >        2        9       14       15       36 </v>
   <v type="int" >        2        8        9       14       36 </v>
   <v type="int" >        2        8        9       30       36 </v>
   <v type="int" >        2        9       15       36       37 </v>
   <v type="int" >        2        9       31       36       37 </v>
   <v type="int" >        2        9       30       31       36 </v>
   <v type="int" >        2       10       15       16       37 </v>
   <v type="int" >        2        9       10       15       37 </v>
   <v type="int" >        2        9       10       31       37 </v>
   <v type="int" >        2       10       16       37       38 </v>
   <v type="int" >        2       10       32       37       38 </v>
   <v type="int" >        2       10       31       32       37 </v>
   <v type="int" >        2        5       11       16       38 </v>
   <v type="int" >        2        5       10       16       38 </v>
   <v type="int" >        2        5       10       32       38 </v>
   <v type="int" >        2        5       11       33       38 </v>
   <v type="int" >        2        5       27       33       38 </v>
   <v type="int" >        2        5       27       32       38 </v>
   <v type="int" >        2       12       17       18       39 </v>
   <v type="int" >        2       11       12       17       39 </v>
   <v type="int" >        2       11       12       33       39 </v>
   <v type="int" >        2       12       18       39       40 </v>
   <v type="int" >        2       12       34       39       40 </v>
   <v type="int" >        2       12       33       34       39 </v>
   <v type="int" >        2       13       18       19       40 </v>
   <v type="int" >        2       12       13       18       40 </v>
   <v type="int" >        2       12       13       34       40 </v>
   <v type="int" >        2       13       19       40       41 </v>
   <v type="int" >        2       13       35       40       41 </v>
   <v type="int" >        2       13       34       35       40 </v>
   <v type="int" >        2       14       19       20       41 </v>
   <v type="int" >        2       13       14       19       41 </v>
   <v type="int" >        2       13       14       35       41 </v>
   <v type="int" >        2       14       20       41       42 </v>
   <v type="int" >        2       14       36       41       42 </v>
   <v type="int" >        2       14       35       36       41 </v>
   <v type="int" >        2       15       19       20       42 </v>
   <v type="int" >        2       14       15       20       42 </v>
   <v type="int" >        2       14       15       36       42 </v>
   <v type="int" >        2       15       19       42       43 </v>
   <v type="int" >        2       15       37       42       43 </v>
   <v type="int" >        2       15       36       37       42 </v>
   <v type="int" >        2       16       18       19       43 </v>
   <v type="int" >        2       15       16       19       43 </v>
   <v type="int" >        2       15       16       37       43 </v>
   <v type="int" >        2       16       18       43       44 </v>
   <v type="int" >        2       16       38       43       44 </v>
   <v type="int" >        2       16       37       38       43 </v>
   <v type="int" >        2       11       17       18       44 </v>
   <v type="int" >        2       11       16       18       44 </v>
   <v type="int" >        2       11       16       38       44 </v>
   <v type="int" >        2       11       17       39       44 </v>
   <v type="int" >        2       11       33       39       44 </v>
   <v type="int" >        2       11       33       38       44 </v>
   <v type="int" >        2       11       16       18       45 </v>
   <v type="int" >        2       11       17       18       45 </v>
   <v type="int" >        2       17       18       39       45 </v>
   <v type="int" >        2       16       18       45       46 </v>
   <v type="int" >        2       18       40       45       46 </v>
   <v type="int" >        2       18       39       40       45 </v>
   <v type="int" >        2       15       16       19       46 </v>
   <v type="int" >        2       16       18       19       46 </v>
   <v type="int" >        2       18       19       40       46 </v>
   <v type="int" >        2       15       19       46       47 </v>
   <v type="int" >        2       19       41       46       47 </v>
   <v type="int" >        2       19       40       41       46 </v>
   <v type="int" >        2       14       15       20       47 </v>
   <v type="int" >        2       15       19       20       47 </v>
   <v type="int" >        2       19       20       41       47 </v>
   <v type="int" >        2       14       20       47       48 </v>
   <v type="int" >        2       20       42       47       48 </v>
   <v type="int" >        2       20       41       42       47 </v>
   <v type="int" >        2       13       14       19       48 </v>
   <v type="int" >        2       14       19       20       48 </v>
   <v type="int" >        2       19       20       42       48 </v>
   <v type="int" >        2       13       19       48       49 </v>
   <v type="int" >        2       19       43       48       49 </v>
   <v type="int" >        2       19       42       43       48 </v>
   <v type="int" >        2       12       13       18       49 </v>
   <v type="int" >        2       13       18       19       49 </v>
   <v type="int" >        2       18       19       43       49 </v>
   <v type="int" >        2       12       18       49       50 </v>
   <v type="int" >        2       18       44       49       50 </v>
   <v type="int" >        2       18       43       44       49 </v>
   <v type="int" >        2       11       12       17       50 </v>
   <v type="int" >        2       12       17       18       50 </v>
   <v type="int" >        2       17       18       44       50 </v>
   <v type="int" >        2       11       17       45       50 </v>
   <v type="int" >        2       17       39       45       50 </v>
   <v type="int" >        2       17       39       44       50 </v>
   <v type="int" >        2        5       10       16       51 </v>
   <v type="int" >        2        5       11       16       51 </v>
   <v type="int" >        2       11       16       45       51 </v>
   <v type="int" >        2       10       16       51       52 </v>
   <v type="int" >        2       16       46       51       52 </v>
   <v type="int" >        2       16       45       46       51 </v>
   <v type="int" >        2        9       10       15       52 </v>
   <v type="int" >        2       10       15       16       52 </v>
   <v type="int" >        2       15       16       46       52 </v>
   <v type="int" >        2        9       15       52       53 </v>
   <v type="int" >        2       15       47       52       53 </v>
   <v type="int" >        2       15       46       47       52 </v>
   <v type="int" >        2        8        9       14       53 </v>
   <v type="int" >        2        9       14       15       53 </v>
   <v type="int" >        2       14       15       47       53 </v>
   <v type="int" >        2        8       14       53       54 </v>
   <v type="int" >        2       14       48       53       54 </v>
   <v type="int" >        2       14       47       48       53 </v>
   <v type="int" >        2        7        8       13       54 </v>
   <v type="int" >        2        8       13       14       54 </v>
   <v type="int" >        2       13       14       48       54 </v>
   <v type="int" >        2        7       13       54       55 </v>
   <v type="int" >        2       13       49       54       55 </v>
   <v type="int" >        2       13       48       49       54 </v>
   <v type="int" >        2        6        7       12       55 </v>
   <v type="int" >        2        7       12       13       55 </v>
   <v type="int" >        2       12       13       49       55 </v>
   <v type="int" >        2        6       12       55       56 </v>
   <v type="int" >        2       12       50       55       56 </v>
   <v type="int" >        2       12       49       50       55 </v>
   <v type="int" >        2        5        6       11       56 </v>
   <v type="int" >        2        6       11       12       56 </v>
   <v type="int" >        2       11       12       50       56 </v>
   <v type="int" >        2        5       11       51       56 </v>
   <v type="int" >        2       11       45       51       56 </v>
   <v type="int" >        2       11       45       50       56 </v>
   <v type="int" >        2        1        2       10       21 </v>
   <v type="int" >        2        1        5       10       21 </v>
   <v type="int" >        2        5       10       21       51 </v>
   <v type="int" >        2        2       10       21       22 </v>
   <v type="int" >        2       10       21       22       52 </v>
   <v type="int" >        2       10       21       51       52 </v>
   <v type="int" >        2        2        3        9       22 </v>
   <v type="int" >        2        2        9       10       22 </v>
   <v type="int" >        2        9       10       22       52 </v>
   <v type="int" >        2        3        9       22       23 </v>
   <v type="int" >        2        9       22       23       53 </v>
   <v type="int" >        2        9       22       52       53 </v>
   <v type="int" >        2        3        4        8       23 </v>
   <v type="int" >        2        3        8        9       23 </v>
   <v type="int" >        2        8        9       23       53 </v>
   <v type="int" >        2        4        8       23       24 </v>
   <v type="int" >        2        8       23       24       54 </v>
   <v type="int" >        2        8       23       53       54 </v>
   <v type="int" >        2        3        4        7       24 </v>
   <v type="int" >        2        4        7        8       24 </v>
   <v type="int" >        2        7        8       24       54 </v>
   <v type="int" >        2        3        7       24       25 </v>
   <v type="int" >        2        7       24       25       55 </v>
   <v type="int" >        2        7       24       54       55 </v>
   <v type="int" >        2        2        3        6       25 </v>
   <v type="int" >        2        3        6        7       25 </v>
   <v type="int" >        2        6        7       25       55 </v>
   <v type="int" >        2        2        6       25       26 </v>
   <v type="int" >        2        6       25       26       56 </v>
   <v type="int" >        2        6       25       55       56 </v>
   <v type="int" >        2        1        2        5       26 </v>
   <v type="int" >        2        2        5        6       26 </v>
   <v type="int" >        2        5        6       26       56 </v>
   <v type="int" >        2        1        5       21       26 </v>
   <v type="int" >        2        5       21       26       51 </v>
   <v type="int" >        2        5       26       51       56 </v>
   <v type="int" >        2       22       27       28       61 </v>
   <v type="int" >        2       21       22       27       61 </v>
   <v type="int" >        2       21       22       57       61 </v>
   <v type="int" >        2       22       28       61       62 </v>
   <v type="int" >        2       22       58       61       62 </v>
   <v type="int" >        2       22       57       58       61 </v>
   <v type="int" >        2       23       28       29       62 </v>
   <v type="int" >        2       22       23       28       62 </v>
   <v type="int" >        2       22       23       58       62 </v>
   <v type="int" >        2       23       29       62       63 </v>
   <v type="int" >        2       23       59       62       63 </v>
   <v type="int" >        2       23       58       59       62 </v>
   <v type="int" >        2       24       29       30       63 </v>
   <v type="int" >        2       23       24       29       63 </v>
   <v type="int" >        2       23       24       59       63 </v>
   <v type="int" >        2       24       30       63       64 </v>
   <v type="int" >        2       24       60       63       64 </v>
   <v type="int" >        2       24       59       60       63 </v>
   <v type="int" >        2       25       30       31       64 </v>
   <v type="int" >        2       24       25       30       64 </v>
   <v type="int" >        2       24       25       60       64 </v>
   <v type="int" >        2       25       31       64       65 </v>
   <v type="int" >        2       25       59       64       65 </v>
   <v type="int" >        2       25       59       60       64 </v>
   <v type="int" >        2       26       31       32       65 </v>
   <v type="int" >        2       25       26       31       65 </v>
   <v type="int" >        2       25       26       59       65 </v>
   <v type="int" >        2       26       32       65       66 </v>
   <v type="int" >        2       26       58       65       66 </v>
   <v type="int" >        2       26       58       59       65 </v>
   <v type="int" >        2       21       27       32       66 </v>
   <v type="int" >        2       21       26       32       66 </v>
   <v type="int" >        2       21       26       58       66 </v>
   <v type="int" >        2       21       27       61       66 </v>
   <v type="int" >        2       21       57       61       66 </v>
   <v type="int" >        2       21       57       58       66 </v>
   <v type="int" >        2       28       33       34       67 </v>
   <v type="int" >        2       27       28       33       67 </v>
   <v type="int" >        2       27       28       61       67 </v>
   <v type="int" >        2       28       34       67       68 </v>
   <v type="int" >        2       28       62       67       68 </v>
   <v type="int" >        2       28       61       62       67 </v>
   <v type="int" >        2       29       34       35       68 </v>
   <v type="int" >        2       28       29       34       68 </v>
   <v type="int" >        2       28       29       62       68 </v>
   <v type="int" >        2       29       35       68       69 </v>
   <v type="int" >        2       29       63       68       69 </v>
   <v type="int" >        2       29       62       63       68 </v>
   <v type="int" >        2       30       35       36       69 </v>
   <v type="int" >        2       29       30       35       69 </v>
   <v type="int" >        2       29       30       63       69 </v>
   <v type="int" >        2       30       36       69       70 </v>
   <v type="int" >        2       30       64       69       70 </v>
   <v type="int" >        2       30       63       64       69 </v>
   <v type="int" >        2       31       36       37       70 </v>
   <v type="int" >        2       30       31       36       70 </v>
   <v type="int" >        2       30       31       64       70 </v>
   <v type="int" >        2       31       37       70       71 </v>
   <v type="int" >        2       31       65       70       71 </v>
   <v type="int" >        2       31       64       65       70 </v>
   <v type="int" >        2       32       37       38       71 </v>
   <v type="int" >        2       31       32       37       71 </v>
   <v type="int" >        2       31       32       65       71 </v>
   <v type="int" >        2       32       38       71       72 </v>
   <v type="int" >        2       32       66       71       72 </v>
   <v type="int" >        2       32       65       66       71 </v>
   <v type="int" >        2       27       33       38       72 </v>
   <v type="int" >        2       27       32       38       72 </v>
   <v type="int" >        2       27       32       66       72 </v>
   <v type="int" >        2       27       33       67       72 </v>
   <v type="int" >        2       27       61       67       72 </v>
   <v type="int" >        2       27       61       66       72 </v>
   <v type="int" >        2       34       39       40       73 </v>
   <v type="int" >        2       33       34       39       73 </v>
   <v type="int" >        2       33       34       67       73 </v>
   <v type="int" >        2       34       40       73       74 </v>
   <v type="int" >        2       34       68       73       74 </v>
   <v type="int" >        2       34       67       68       73 </v>
   <v type="int" >        2       35       40       41       74 </v>
   <v type="int" >        2       34       35       40       74 </v>
   <v type="int" >        2       34       35       68       74 </v>
   <v type="int" >        2       35       41       74       75 </v>
   <v type="int" >        2       35       69       74       75 </v>
   <v type="int" >        2       35       68       69       74 </v>
   <v type="int" >        2       36       41       42       75 </v>
   <v type="int" >        2       35       36       41       75 </v>
   <v type="int" >        2       35       36       69       75 </v>
   <v type="int" >        2       36       42       75       76 </v>
   <v type="int" >        2       36       70       75       76 </v>
   <v type="int" >        2       36       69       70       75 </v>
   <v type="int" >        2       37       42       43       76 </v>
   <v type="int" >        2       36       37       42       76 </v>
   <v type="int" >        2       36       37       70       76 </v>
   <v type="int" >        2       37       43       75       76 </v>
   <v type="int" >        2       37       71       75       76 </v>
   <v type="int" >        2       37       70       71       76 </v>
   <v type="int" >        2       38       43       44       75 </v>
   <v type="int" >        2       37       38       43       75 </v>
   <v type="int" >        2       37       38       71       75 </v>
   <v type="int" >        2       38       44       74       75 </v>
   <v type="int" >        2       38       72       74       75 </v>
   <v type="int" >        2       38       71       72       75 </v>
   <v type="int" >        2       33       39       44       74 </v>
   <v type="int" >        2       33       38       44       74 </v>
   <v type="int" >        2       33       38       72       74 </v>
   <v type="int" >        2       33       39       73       74 </v>
   <v type="int" >        2       33       67       73       74 </v>
   <v type="int" >        2       33       67       72       74 </v>
   <v type="int" >        2       40       45       46       67 </v>
   <v type="int" >        2       39       40       45       67 </v>
   <v type="int" >        2       39       40       67       73 </v>
   <v type="int" >        2       40       46       67       72 </v>
   <v type="int" >        2       40       67       72       74 </v>
   <v type="int" >        2       40       67       73       74 </v>
   <v type="int" >        2       41       46       47       72 </v>
   <v type="int" >        2       40       41       46       72 </v>
   <v type="int" >        2       40       41       72       74 </v>
   <v type="int" >        2       41       47       71       72 </v>
   <v type="int" >        2       41       71       72       75 </v>
   <v type="int" >        2       41       72       74       75 </v>
   <v type="int" >        2       42       47       48       71 </v>
   <v type="int" >        2       41       42       47       71 </v>
   <v type="int" >        2       41       42       71       75 </v>
   <v type="int" >        2       42       48       70       71 </v>
   <v type="int" >        2       42       70       71       76 </v>
   <v type="int" >        2       42       71       75       76 </v>
   <v type="int" >        2       43       48       49       70 </v>
   <v type="int" >        2       42       43       48       70 </v>
   <v type="int" >        2       42       43       70       76 </v>
   <v type="int" >        2       43       49       69       70 </v>
   <v type="int" >        2       43       69       70       75 </v>
   <v type="int" >        2       43       70       75       76 </v>
   <v type="int" >        2       44       49       50       69 </v>
   <v type="int" >        2       43       44       49       69 </v>
   <v type="int" >        2       43       44       69       75 </v>
   <v type="int" >        2       44       50       68       69 </v>
   <v type="int" >        2       44       68       69       74 </v>
   <v type="int" >        2       44       69       74       75 </v>
   <v type="int" >        2       39       45       50       68 </v>
   <v type="int" >        2       39       44       50       68 </v>
   <v type="int" >        2       39       44       68       74 </v>
   <v type="int" >        2       39       45       67       68 </v>
   <v type="int" >        2       39       67       68       73 </v>
   <v type="int" >        2       39       68       73       74 </v>
   <v type="int" >        2       46       51       52       61 </v>
   <v type="int" >        2       45       46       51       61 </v>
   <v type="int" >        2       45       46       61       67 </v>
   <v type="int" >        2       46       52       61       66 </v>
   <v type="int" >        2       46       61       66       72 </v>
   <v type="int" >        2       46       61       67       72 </v>
   <v type="int" >        2       47       52       53       66 </v>
   <v type="int" >        2       46       47       52       66 </v>
   <v type="int" >        2       46       47       66       72 </v>
   <v type="int" >        2       47       53       65       66 </v>
   <v type="int" >        2       47       65       66       71 </v>
   <v type="int" >        2       47       66       71       72 </v>
   <v type="int" >        2       48       53       54       65 </v>
   <v type="int" >        2       47       48       53       65 </v>
   <v type="int" >        2       47       48       65       71 </v>
   <v type="int" >        2       48       54       64       65 </v>
   <v type="int" >        2       48       64       65       70 </v>
   <v type="int" >        2       48       65       70       71 </v>
   <v type="int" >        2       49       54       55       64 </v>
   <v type="int" >        2       48       49       54       64 </v>
   <v type="int" >        2       48       49       64       70 </v>
   <v type="int" >        2       49       55       63       64 </v>
   <v type="int" >        2       49       63       64       69 </v>
   <v type="int" >        2       49       64       69       70 </v>
   <v type="int" >        2       50       55       56       63 </v>
   <v type="int" >        2       49       50       55       63 </v>
   <v type="int" >        2       49       50       63       69 </v>
   <v type="int" >        2       50       56       62       63 </v>
   <v type="int" >        2       50       62       63       68 </v>
   <v type="int" >        2       50       63       68       69 </v>
   <v type="int" >        2       45       51       56       62 </v>
   <v type="int" >        2       45       50       56       62 </v>
   <v type="int" >        2       45       50       62       68 </v>
   <v type="int" >        2       45       51       61       62 </v>
   <v type="int" >        2       45       61       62       67 </v>
   <v type="int" >        2       45       62       67       68 </v>
   <v type="int" >        2       21       22       52       57 </v>
   <v type="int" >        2       21       51       52       57 </v>
   <v type="int" >        2       51       52       57       61 </v>
   <v type="int" >        2       22       52       57       58 </v>
   <v type="int" >        2       52       57       58       66 </v>
   <v type="int" >        2       52       57       61       66 </v>
   <v type="int" >        2       22       23       53       58 </v>
   <v type="int" >        2       22       52       53       58 </v>
   <v type="int" >        2       52       53       58       66 </v>
   <v type="int" >        2       23       53       58       59 </v>
   <v type="int" >        2       53       58       59       65 </v>
   <v type="int" >        2       53       58       65       66 </v>
   <v type="int" >        2       23       24       54       59 </v>
   <v type="int" >        2       23       53       54       59 </v>
   <v type="int" >        2       53       54       59       65 </v>
   <v type="int" >        2       24       54       59       60 </v>
   <v type="int" >        2       54       59       60       64 </v>
   <v type="int" >        2       54       59       64       65 </v>
   <v type="int" >        2       24       25       55       60 </v>
   <v type="int" >        2       24       54       55       60 </v>
   <v type="int" >        2       54       55       60       64 </v>
   <v type="int" >        2       25       55       59       60 </v>
   <v type="int" >        2       55       59       60       63 </v>
   <v type="int" >        2       55       60       63       64 </v>
   <v type="int" >        2       25       26       56       59 </v>
   <v type="int" >        2       25       55       56       59 </v>
   <v type="int" >        2       55       56       59       63 </v>
   <v type="int" >        2       26       56       58       59 </v>
   <v type="int" >        2       56       58       59       62 </v>
   <v type="int" >        2       56       59       62       63 </v>
   <v type="int" >        2       21       26       51       58 </v>
   <v type="int" >        2       26       51       56       58 </v>
   <v type="int" >        2       51       56       58       62 </v>
   <v type="int" >        2       21       51       57       58 </v>
   <v type="int" >        2       51       57       58       61 </v>
   <v type="int" >        2       51       58       61       62 </v>
  </varray>
  <i name="volumeweight">      0.00115741 </i>
 </kpoints>
 <parameters>
  <separator name="general" >
   <i type="string" name="SYSTEM">graphite</i>
   <i type="logical" name="LCOMPAT"> F  </i>
  </separator>
  <separator name="electronic" >
   <i type="string" name="PREC">accura</i>
   <i name="ENMAX">    800.00000000</i>
   <i name="ENAUG">    644.87300000</i>
   <i name="EDIFF">      0.00000001</i>
   <i type="int" name="IALGO">    38</i>
   <i type="int" name="IWAVPR">    10</i>
   <i type="int" name="NBANDS">    84</i>
   <i name="NELECT">    128.00000000</i>
   <i type="int" name="TURBO">     0</i>
   <i type="int" name="IRESTART">     0</i>
   <i type="int" name="NREBOOT">     0</i>
   <i type="int" name="NMIN">     0</i>
   <i name="EREF">      0.00000000</i>
   <separator name="electronic smearing" >
    <i type="int" name="ISMEAR">    -5</i>
    <i name="SIGMA">      0.20000000</i>
    <i name="KSPACING">      0.50000000</i>
    <i type="logical" name="KGAMMA"> T  </i>
   </separator>
   <separator name="electronic projectors" >
    <i type="logical" name="LREAL"> F  </i>
    <v name="ROPT">      0.00000000</v>
    <i type="int" name="LMAXPAW">  -100</i>
    <i type="int" name="LMAXMIX">     2</i>
    <i type="logical" name="NLSPLINE"> F  </i>
   </separator>
   <separator name="electronic startup" >
    <i type="int" name="ISTART">     0</i>
    <i type="int" name="ICHARG">     2</i>
    <i type="int" name="INIWAV">     1</i>
   </separator>
   <separator name="electronic spin" >
    <i type="int" name="ISPIN">     1</i>
    <i type="logical" name="LNONCOLLINEAR"> F  </i>
    <v name="MAGMOM">      1.00000000      1.00000000      1.00000000      1.00000000      1.00000000      1.00000000      1.00000000      1.00000000      1.00000000      1.00000000      1.00000000      1.00000000      1.00000000      1.00000000      1.00000000      1.00000000      1.00000000      1.00000000      1.00000000      1.00000000
      1.00000000      1.00000000      1.00000000      1.00000000      1.00000000      1.00000000      1.00000000      1.00000000      1.00000000      1.00000000      1.00000000      1.00000000</v>
    <i name="NUPDOWN">     -1.00000000</i>
    <i type="logical" name="LSORBIT"> F  </i>
    <v name="SAXIS">      0.00000000      0.00000000      1.00000000</v>
    <i type="logical" name="LSPIRAL"> F  </i>
    <v name="QSPIRAL">      0.00000000      0.00000000      0.00000000</v>
    <i type="logical" name="LZEROZ"> F  </i>
   </separator>
   <separator name="electronic exchange-correlation" >
    <i type="logical" name="LASPH"> F  </i>
    <i type="logical" name="LMETAGGA"> F  </i>
   </separator>
   <separator name="electronic convergence" >
    <i type="int" name="NELM">   200</i>
    <i type="int" name="NELMDL">     0</i>
    <i type="int" name="NELMIN">     2</i>
    <i name="ENINI">    800.00000000</i>
    <separator name="electronic convergence detail" >
     <i type="logical" name="LDIAG"> T  </i>
     <i type="logical" name="LSUBROT"> F  </i>
     <i name="WEIMIN">      0.00000000</i>
     <i name="EBREAK">      0.00000000</i>
     <i name="DEPER">      0.30000000</i>
     <i type="int" name="NRMM">     4</i>
     <i name="TIME">      0.40000000</i>
    </separator>
   </separator>
   <separator name="electronic mixer" >
    <i name="AMIX">      0.40000000</i>
    <i name="BMIX">      1.00000000</i>
    <i name="AMIN">      0.10000000</i>
    <i name="AMIX_MAG">      1.60000000</i>
    <i name="BMIX_MAG">      1.00000000</i>
    <separator name="electronic mixer details" >
     <i type="int" name="IMIX">     4</i>
     <i type="int" name="MAXMIX">   -45</i>
     <i name="WC">    100.00000000</i>
     <i type="int" name="INIMIX">     1</i>
     <i type="int" name="MIXPRE">     1</i>
     <i type="int" name="MREMOVE">     5</i>
    </separator>
   </separator>
   <separator name="electronic dipolcorrection" >
    <i type="logical" name="LDIPOL"> F  </i>
    <i type="logical" name="LMONO"> F  </i>
    <i type="int" name="IDIPOL">     0</i>
    <i name="EPSILON">      1.00000000</i>
    <v name="DIPOL">   -100.00000000   -100.00000000   -100.00000000</v>
    <i name="EFIELD">      0.00000000</i>
   </separator>
  </separator>
  <separator name="grids" >
   <i type="int" name="NGX">    48</i>
   <i type="int" name="NGY">    48</i>
   <i type="int" name="NGZ">   126</i>
   <i type="int" name="NGXF">    96</i>
   <i type="int" name="NGYF">    96</i>
   <i type="int" name="NGZF">   252</i>
   <i type="logical" name="ADDGRID"> F  </i>
  </separator>
  <separator name="ionic" >
   <i type="int" name="NSW">     0</i>
   <i type="int" name="IBRION">    -1</i>
   <i type="int" name="ISIF">     2</i>
   <i name="PSTRESS">      0.00000000</i>
   <i name="EDIFFG">      0.00100000</i>
   <i type="int" name="NFREE">     0</i>
   <i name="POTIM">      0.50000000</i>
   <i name="SMASS">     -3.00000000</i>
   <i name="SCALEE">      1.00000000</i>
  </separator>
  <separator name="ionic md" >
   <i name="TEBEG">      0.00010000</i>
   <i name="TEEND">      0.00010000</i>
   <i type="int" name="NBLOCK">     1</i>
   <i type="int" name="KBLOCK">     1</i>
   <i type="int" name="NPACO">   256</i>
   <i name="APACO">     16.00000000</i>
  </separator>
  <separator name="symmetry" >
   <i type="int" name="ISYM">     2</i>
   <i name="SYMPREC">      0.00001000</i>
  </separator>
  <separator name="dos" >
   <i type="logical" name="LORBIT"> F  </i>
   <v name="RWIGS">     -1.00000000</v>
   <i type="int" name="NEDOS">   301</i>
   <i name="EMIN">     10.00000000</i>
   <i name="EMAX">    -10.00000000</i>
   <i name="EFERMI">      0.00000000</i>
  </separator>
  <separator name="writing" >
   <i type="int" name="NWRITE">     2</i>
   <i type="logical" name="LWAVE"> F  </i>
   <i type="logical" name="LCHARG"> F  </i>
   <i type="logical" name="LPARD"> F  </i>
   <i type="logical" name="LVTOT"> F  </i>
   <i type="logical" name="LVHAR"> F  </i>
   <i type="logical" name="LELF"> F  </i>
   <i type="logical" name="LOPTICS"> F  </i>
   <v name="STM">      0.00000000      0.00000000      0.00000000      0.00000000      0.00000000      0.00000000      0.00000000</v>
  </separator>
  <separator name="performance" >
   <i type="int" name="NPAR">     6</i>
   <i type="int" name="NSIM">     4</i>
   <i type="int" name="NBLK">    -1</i>
   <i type="logical" name="LPLANE"> T  </i>
   <i type="logical" name="LSCALAPACK"> T  </i>
   <i type="logical" name="LSCAAWARE"> F  </i>
   <i type="logical" name="LSCALU"> F  </i>
   <i type="logical" name="LASYNC"> F  </i>
   <i type="logical" name="LORBITALREAL"> F  </i>
  </separator>
  <separator name="miscellaneous" >
   <i type="int" name="IDIOT">     3</i>
   <i type="logical" name="LMUSIC"> F  </i>
   <v name="POMASS">     12.01100000</v>
   <v name="DARWINR">      0.00000000</v>
   <v name="DARWINV">      1.00000000</v>
   <i type="logical" name="LCORR"> T  </i>
  </separator>
  <i type="logical" name="GGA_COMPAT"> T  </i>
  <i type="logical" name="LBERRY"> F  </i>
  <i type="int" name="ICORELEVEL">     0</i>
  <i type="logical" name="LDAU"> F  </i>
  <i type="int" name="I_CONSTRAINED_M">     0</i>
  <separator name="electronic exchange-correlation" >
   <i type="string" name="GGA">PE</i>
   <i type="int" name="VOSKOWN">     0</i>
   <i type="logical" name="LHFCALC"> F  </i>
   <i type="string" name="PRECFOCK"></i>
   <i type="logical" name="LSYMGRAD"> F  </i>
   <i type="logical" name="LHFONE"> F  </i>
   <i type="logical" name="LRHFCALC"> F  </i>
   <i type="logical" name="LTHOMAS"> F  </i>
   <i type="logical" name="LMODELHF"> F  </i>
   <i name="ENCUT4O">     -1.00000000</i>
   <i type="int" name="EXXOEP">     0</i>
   <i type="int" name="FOURORBIT">     0</i>
   <i name="AEXX">      0.00000000</i>
   <i name="HFALPHA">      0.00000000</i>
   <i name="MCALPHA">      0.00000000</i>
   <i name="ALDAX">      1.00000000</i>
   <i name="AGGAX">      1.00000000</i>
   <i name="ALDAC">      1.00000000</i>
   <i name="AGGAC">      1.00000000</i>
   <i type="int" name="NKREDX">     1</i>
   <i type="int" name="NKREDY">     1</i>
   <i type="int" name="NKREDZ">     1</i>
   <i type="logical" name="SHIFTRED"> F  </i>
   <i type="logical" name="ODDONLY"> F  </i>
   <i type="logical" name="EVENONLY"> F  </i>
   <i type="int" name="LMAXFOCK">     0</i>
   <i type="int" name="NMAXFOCKAE">     0</i>
   <i type="logical" name="LFOCKAEDFT"> F  </i>
   <i name="HFSCREEN">      0.00000000</i>
   <i name="HFSCREENC">      0.00000000</i>
   <i type="int" name="NBANDSGWLOW">     0</i>
  </separator>
  <separator name="vdW DFT" >
   <i type="logical" name="LUSE_VDW"> F  </i>
   <i name="Zab_VDW">     -0.84910000</i>
   <i name="PARAM1">      0.12340000</i>
   <i name="PARAM2">      1.00000000</i>
   <i name="PARAM3">      0.00000000</i>
  </separator>
  <separator name="model GW" >
   <i type="int" name="MODEL_GW">     0</i>
   <i name="MODEL_EPS0">      5.23835588</i>
   <i name="MODEL_ALPHA">      1.00000000</i>
  </separator>
  <separator name="linear response parameters" >
   <i type="logical" name="LEPSILON"> F  </i>
   <i type="logical" name="LRPA"> F  </i>
   <i type="logical" name="LNABLA"> F  </i>
   <i type="logical" name="LVEL"> F  </i>
   <i type="int" name="KINTER">     0</i>
   <i name="CSHIFT">      0.10000000</i>
   <i name="OMEGAMAX">     -1.00000000</i>
   <i name="DEG_THRESHOLD">      0.00200000</i>
  </separator>
  <separator name="orbital magnetization" >
   <i type="logical" name="NUCIND"> F  </i>
   <v name="MAGPOS">      0.00000000      0.00000000      0.00000000</v>
   <i type="logical" name="LNICSALL"> T  </i>
   <i type="logical" name="ORBITALMAG"> F  </i>
   <i type="logical" name="LMAGBLOCH"> F  </i>
   <i type="logical" name="LCHIMAG"> F  </i>
   <i type="logical" name="LGAUGE"> T  </i>
   <i type="int" name="MAGATOM">     0</i>
   <v name="MAGDIPOL">      0.00000000      0.00000000      0.00000000</v>
   <v name="AVECCONST">      0.00000000      0.00000000      0.00000000</v>
  </separator>
  <separator name="response functions" >
   <i type="logical" name="LADDER"> F  </i>
   <i type="logical" name="LFXC"> F  </i>
   <i type="logical" name="LHARTREE"> T  </i>
   <i type="int" name="IBSE">     0</i>
   <i type="logical" name="LTCTE"> F  </i>
   <i type="logical" name="LTETE"> F  </i>
   <i type="logical" name="LTRIPLET"> F  </i>
   <i type="logical" name="LFXCEPS"> F  </i>
   <i type="logical" name="LFXHEG"> F  </i>
   <i type="logical" name="L2ORDER"> F  </i>
   <i type="logical" name="LUSEW"> F  </i>
   <i name="ENCUTGW">     -2.00000000</i>
   <i name="ENCUTGWSOFT">     -2.00000000</i>
   <i name="ENCUTLF">     -1.00000000</i>
   <i type="int" name="LMAXMP2">    -1</i>
   <i name="SCISSOR">      0.00000000</i>
   <i type="int" name="NOMEGA">     0</i>
   <i type="int" name="NOMEGAR">     0</i>
   <i type="int" name="NBANDSGW">    -1</i>
   <i type="int" name="NBANDSO">    -1</i>
   <i type="int" name="NBANDSV">    -1</i>
   <i type="int" name="NELM">   200</i>
   <i type="int" name="DIM">     3</i>
   <i type="int" name="ANTIRES">     0</i>
   <i name="OMEGAMAX">    -30.00000000</i>
   <i name="OMEGAMIN">    -30.00000000</i>
   <i name="OMEGATL">   -200.00000000</i>
   <i type="int" name="OMEGAGRID">     0</i>
   <i name="CSHIFT">     -0.10000000</i>
   <i type="logical" name="SELFENERGY"> F  </i>
   <i type="logical" name="LSPECTRAL"> F  </i>
   <i type="logical" name="ODDONLYGW"> F  </i>
   <i type="logical" name="EVENONLYGW"> F  </i>
   <i type="int" name="NKREDLFX">     1</i>
   <i type="int" name="NKREDLFY">     1</i>
   <i type="int" name="NKREDLFZ">     1</i>
   <i type="int" name="MAXMEM">  1800</i>
   <i type="int" name="TELESCOPE">     0</i>
   <i type="int" name="TAUPAR">     1</i>
  </separator>
  <separator name="External order field" >
   <i name="OFIELD_KAPPA">      0.00000000</i>
   <v name="OFIELD_K">      0.00000000      0.00000000      0.00000000</v>
   <i name="OFIELD_Q6_NEAR">      0.00000000</i>
   <i name="OFIELD_Q6_FAR">      0.00000000</i>
   <i name="OFIELD_A">      0.00000000</i>
  </separator>
 </parameters>
 <atominfo>
  <atoms>      32 </atoms>
  <types>       1 </types>
  <array name="atoms" >
   <dimension dim="1">ion</dimension>
   <field type="string">element</field>
   <field type="int">atomtype</field>
   <set>
    <rc><c>C </c><c>   1</c></rc>
    <rc><c>C </c><c>   1</c></rc>
    <rc><c>C </c><c>   1</c></rc>
    <rc><c>C </c><c>   1</c></rc>
    <rc><c>C </c><c>   1</c></rc>
    <rc><c>C </c><c>   1</c></rc>
    <rc><c>C </c><c>   1</c></rc>
    <rc><c>C </c><c>   1</c></rc>
    <rc><c>C </c><c>   1</c></rc>
    <rc><c>C </c><c>   1</c></rc>
    <rc><c>C </c><c>   1</c></rc>
    <rc><c>C </c><c>   1</c></rc>
    <rc><c>C </c><c>   1</c></rc>
    <rc><c>C </c><c>   1</c></rc>
    <rc><c>C </c><c>   1</c></rc>
    <rc><c>C </c><c>   1</c></rc>
    <rc><c>C </c><c>   1</c></rc>
    <rc><c>C </c><c>   1</c></rc>
    <rc><c>C </c><c>   1</c></rc>
    <rc><c>C </c><c>   1</c></rc>
    <rc><c>C </c><c>   1</c></rc>
    <rc><c>C </c><c>   1</c></rc>
    <rc><c>C </c><c>   1</c></rc>
    <rc><c>C </c><c>   1</c></rc>
    <rc><c>C </c><c>   1</c></rc>
    <rc><c>C </c><c>   1</c></rc>
    <rc><c>C </c><c>   1</c></rc>
    <rc><c>C </c><c>   1</c></rc>
    <rc><c>C </c><c>   1</c></rc>
    <rc><c>C </c><c>   1</c></rc>
    <rc><c>C </c><c>   1</c></rc>
    <rc><c>C </c><c>   1</c></rc>
   </set>
  </array>
  <array name="atomtypes" >
   <dimension dim="1">type</dimension>
   <field type="int">atomspertype</field>
   <field type="string">element</field>
   <field>mass</field>
   <field>valence</field>
   <field type="string">pseudopotential</field>
   <set>
    <rc><c>  32</c><c>C </c><c>     12.01100000</c><c>      4.00000000</c><c> PAW_PBE C 08Apr2002                    </c></rc>
   </set>
  </array>
 </atominfo>
 <structure name="initialpos" >
  <crystal>
   <varray name="basis" >
    <v>       4.93287450      -0.00191929       0.00000000 </v>
    <v>      -2.46809940       4.27103499       0.00000000 </v>
    <v>       0.00000000       0.00000000      13.26350146 </v>
   </varray>
   <i name="volume">    279.37898030 </i>
   <varray name="rec_basis" >
    <v>       0.20276715       0.11717288       0.00000000 </v>
    <v>       0.00009112       0.23418794       0.00000000 </v>
    <v>       0.00000000       0.00000000       0.07539487 </v>
   </varray>
  </crystal>
  <varray name="positions" >
   <v>       0.49967330       0.00032672       0.12500000 </v>
   <v>       0.99967330       0.00032672       0.12500000 </v>
   <v>       0.49967330       0.50032672       0.12500000 </v>
   <v>       0.99967330       0.50032672       0.12500000 </v>
   <v>       0.49967330       0.00032672       0.62500000 </v>
   <v>       0.99967330       0.00032672       0.62500000 </v>
   <v>       0.49967330       0.50032672       0.62500000 </v>
   <v>       0.99967330       0.50032672       0.62500000 </v>
   <v>       0.00032672       0.49967330       0.37500000 </v>
   <v>       0.50032672       0.49967330       0.37500000 </v>
   <v>       0.00032672       0.99967330       0.37500000 </v>
   <v>       0.50032672       0.99967330       0.37500000 </v>
   <v>       0.00032672       0.49967330       0.87500000 </v>
   <v>       0.50032672       0.49967330       0.87500000 </v>
   <v>       0.00032672       0.99967330       0.87500000 </v>
   <v>       0.50032672       0.99967330       0.87500000 </v>
   <v>       0.16699912       0.33370753       0.12570666 </v>
   <v>       0.66629246       0.33370753       0.12500000 </v>
   <v>       0.16629246       0.83370753       0.12500000 </v>
   <v>       0.66629246       0.83370753       0.12500000 </v>
   <v>       0.16629246       0.33370753       0.62500000 </v>
   <v>       0.66629246       0.33370753       0.62500000 </v>
   <v>       0.16629246       0.83370753       0.62500000 </v>
   <v>       0.66629246       0.83370753       0.62500000 </v>
   <v>       0.33370753       0.16629246       0.37500000 </v>
   <v>       0.83370753       0.16629246       0.37500000 </v>
   <v>       0.33370753       0.66629246       0.37500000 </v>
   <v>       0.83370753       0.66629246       0.37500000 </v>
   <v>       0.33370753       0.16629246       0.87500000 </v>
   <v>       0.83370753       0.16629246       0.87500000 </v>
   <v>       0.33370753       0.66629246       0.87500000 </v>
   <v>       0.83370753       0.66629246       0.87500000 </v>
  </varray>
 </structure>
 <calculation>
  <scstep>
   <time name="dav">  358.17  716.74</time>
   <time name="total">  359.77  719.94</time>
   <energy>
    <i name="alphaZ">    298.64697712 </i>
    <i name="ewald">  -3743.02410381 </i>
    <i name="hartreedc">  -1151.40112251 </i>
    <i name="XCdc">    443.26882265 </i>
    <i name="pawpsdc">   1210.60617908 </i>
    <i name="pawaedc">  -1247.42152856 </i>
    <i name="eentropy">      0.00000000 </i>
    <i name="bandstr">    182.63040325 </i>
    <i name="atom">   4708.94155045 </i>
    <i name="e_fr_energy">    702.24717767 </i>
    <i name="e_wo_entrp">    702.24717767 </i>
    <i name="e_0_energy">    702.24717767 </i>
   </energy>
  </scstep>
  <scstep>
   <time name="dav">  416.08  832.61</time>
   <time name="total">  416.19  832.83</time>
   <energy>
    <i name="e_fr_energy">   -254.89992959 </i>
    <i name="e_wo_entrp">   -254.89992959 </i>
    <i name="e_0_energy">   -254.89992959 </i>
   </energy>
  </scstep>
  <scstep>
   <time name="dav">  406.34  813.11</time>
   <time name="total">  406.42  813.28</time>
   <energy>
    <i name="e_fr_energy">   -312.45476476 </i>
    <i name="e_wo_entrp">   -312.45476476 </i>
    <i name="e_0_energy">   -312.45476476 </i>
   </energy>
  </scstep>
  <scstep>
   <time name="dav">  419.01  838.37</time>
   <time name="total">  419.09  838.54</time>
   <energy>
    <i name="e_fr_energy">   -313.58532886 </i>
    <i name="e_wo_entrp">   -313.58532886 </i>
    <i name="e_0_energy">   -313.58532886 </i>
   </energy>
  </scstep>
  <scstep>
   <time name="dav">  429.27  858.98</time>
   <time name="total">  436.19  872.82</time>
   <energy>
    <i name="e_fr_energy">   -313.61866974 </i>
    <i name="e_wo_entrp">   -313.61866974 </i>
    <i name="e_0_energy">   -313.61866974 </i>
   </energy>
  </scstep>
  <scstep>
   <time name="dav">  397.64  795.64</time>
   <time name="total">  406.06  812.49</time>
   <energy>
    <i name="e_fr_energy">   -299.24517916 </i>
    <i name="e_wo_entrp">   -299.24517916 </i>
    <i name="e_0_energy">   -299.24517916 </i>
   </energy>
  </scstep>
  <scstep>
   <time name="dav">  364.37  729.11</time>
   <time name="total">  372.59  745.56</time>
   <energy>
    <i name="e_fr_energy">   -294.70326788 </i>
    <i name="e_wo_entrp">   -294.70326788 </i>
    <i name="e_0_energy">   -294.70326788 </i>
   </energy>
  </scstep>
  <scstep>
   <time name="dav">  261.39  523.04</time>
   <time name="total">  269.39  539.05</time>
   <energy>
    <i name="e_fr_energy">   -294.76772861 </i>
    <i name="e_wo_entrp">   -294.76772861 </i>
    <i name="e_0_energy">   -294.76772861 </i>
   </energy>
  </scstep>
  <scstep>
   <time name="dav">  256.47  513.22</time>
   <time name="total">  264.53  529.32</time>
   <energy>
    <i name="e_fr_energy">   -294.76418851 </i>
    <i name="e_wo_entrp">   -294.76418851 </i>
    <i name="e_0_energy">   -294.76418851 </i>
   </energy>
  </scstep>
  <scstep>
   <time name="dav">  320.08  640.49</time>
   <time name="total">  327.93  656.21</time>
   <energy>
    <i name="e_fr_energy">   -294.76213564 </i>
    <i name="e_wo_entrp">   -294.76213564 </i>
    <i name="e_0_energy">   -294.76213564 </i>
   </energy>
  </scstep>
  <scstep>
   <time name="dav">  252.30  504.86</time>
   <time name="total">  260.19  520.64</time>
   <energy>
    <i name="e_fr_energy">   -294.76095212 </i>
    <i name="e_wo_entrp">   -294.76095212 </i>
    <i name="e_0_energy">   -294.76095212 </i>
   </energy>
  </scstep>
  <scstep>
   <time name="dav">  261.61  523.49</time>
   <time name="total">  269.36  539.01</time>
   <energy>
    <i name="e_fr_energy">   -294.76154867 </i>
    <i name="e_wo_entrp">   -294.76154867 </i>
    <i name="e_0_energy">   -294.76154867 </i>
   </energy>
  </scstep>
  <scstep>
   <time name="dav">  252.42  505.10</time>
   <time name="total">  260.16  520.59</time>
   <energy>
    <i name="e_fr_energy">   -294.76165258 </i>
    <i name="e_wo_entrp">   -294.76165258 </i>
    <i name="e_0_energy">   -294.76165258 </i>
   </energy>
  </scstep>
  <scstep>
   <time name="dav">  284.56  569.41</time>
   <time name="total">  293.24  586.79</time>
   <energy>
    <i name="e_fr_energy">   -294.76184078 </i>
    <i name="e_wo_entrp">   -294.76184078 </i>
    <i name="e_0_energy">   -294.76184078 </i>
   </energy>
  </scstep>
  <scstep>
   <time name="dav">  266.32  532.91</time>
   <time name="total">  273.95  548.18</time>
   <energy>
    <i name="e_fr_energy">   -294.76215122 </i>
    <i name="e_wo_entrp">   -294.76215122 </i>
    <i name="e_0_energy">   -294.76215122 </i>
   </energy>
  </scstep>
  <scstep>
   <time name="dav">  264.19  528.67</time>
   <time name="total">  272.17  544.64</time>
   <energy>
    <i name="e_fr_energy">   -294.76194069 </i>
    <i name="e_wo_entrp">   -294.76194069 </i>
    <i name="e_0_energy">   -294.76194069 </i>
   </energy>
  </scstep>
  <scstep>
   <time name="dav">  352.65  705.67</time>
   <time name="total">  360.09  720.54</time>
   <energy>
    <i name="e_fr_energy">   -294.76160697 </i>
    <i name="e_wo_entrp">   -294.76160697 </i>
    <i name="e_0_energy">   -294.76160697 </i>
   </energy>
  </scstep>
  <scstep>
   <time name="dav">  251.93  504.12</time>
   <time name="total">  259.53  519.33</time>
   <energy>
    <i name="e_fr_energy">   -294.76161922 </i>
    <i name="e_wo_entrp">   -294.76161922 </i>
    <i name="e_0_energy">   -294.76161922 </i>
   </energy>
  </scstep>
  <scstep>
   <time name="dav">  260.55  521.36</time>
   <time name="total">  269.13  538.54</time>
   <energy>
    <i name="e_fr_energy">   -294.76159608 </i>
    <i name="e_wo_entrp">   -294.76159608 </i>
    <i name="e_0_energy">   -294.76159608 </i>
   </energy>
  </scstep>
  <scstep>
   <time name="dav">  270.78  541.84</time>
   <time name="total">  279.71  559.71</time>
   <energy>
    <i name="e_fr_energy">   -294.76159159 </i>
    <i name="e_wo_entrp">   -294.76159159 </i>
    <i name="e_0_energy">   -294.76159159 </i>
   </energy>
  </scstep>
  <scstep>
   <time name="dav">  262.38  525.03</time>
   <time name="total">  270.24  540.77</time>
   <energy>
    <i name="e_fr_energy">   -294.76158229 </i>
    <i name="e_wo_entrp">   -294.76158229 </i>
    <i name="e_0_energy">   -294.76158229 </i>
   </energy>
  </scstep>
  <scstep>
   <time name="dav">  257.07  514.39</time>
   <time name="total">  264.95  530.15</time>
   <energy>
    <i name="e_fr_energy">   -294.76158382 </i>
    <i name="e_wo_entrp">   -294.76158382 </i>
    <i name="e_0_energy">   -294.76158382 </i>
   </energy>
  </scstep>
  <scstep>
   <time name="dav">  265.90  532.09</time>
   <time name="total">  274.52  549.34</time>
   <energy>
    <i name="e_fr_energy">   -294.76157927 </i>
    <i name="e_wo_entrp">   -294.76157927 </i>
    <i name="e_0_energy">   -294.76157927 </i>
   </energy>
  </scstep>
  <scstep>
   <time name="dav">  339.19  678.69</time>
   <time name="total">  347.64  695.59</time>
   <energy>
    <i name="e_fr_energy">   -294.76158123 </i>
    <i name="e_wo_entrp">   -294.76158123 </i>
    <i name="e_0_energy">   -294.76158123 </i>
   </energy>
  </scstep>
  <scstep>
   <time name="dav">  285.62  571.48</time>
   <time name="total">  294.22  586.87</time>
   <energy>
    <i name="e_fr_energy">   -294.76157958 </i>
    <i name="e_wo_entrp">   -294.76157958 </i>
    <i name="e_0_energy">   -294.76157958 </i>
   </energy>
  </scstep>
  <scstep>
   <time name="dav">  379.32  757.93</time>
   <time name="total">  387.83  774.95</time>
   <energy>
    <i name="e_fr_energy">   -294.76157910 </i>
    <i name="e_wo_entrp">   -294.76157910 </i>
    <i name="e_0_energy">   -294.76157910 </i>
   </energy>
  </scstep>
  <scstep>
   <time name="dav">  384.41  769.22</time>
   <time name="total">  392.66  785.70</time>
   <energy>
    <i name="e_fr_energy">   -294.76157896 </i>
    <i name="e_wo_entrp">   -294.76157896 </i>
    <i name="e_0_energy">   -294.76157896 </i>
   </energy>
  </scstep>
  <scstep>
   <time name="dav">  293.11  586.02</time>
   <time name="total">  301.89  603.22</time>
   <energy>
    <i name="e_fr_energy">   -294.76157884 </i>
    <i name="e_wo_entrp">   -294.76157884 </i>
    <i name="e_0_energy">   -294.76157884 </i>
   </energy>
  </scstep>
  <scstep>
   <time name="dav">  294.97  590.24</time>
   <time name="total">  303.30  606.89</time>
   <energy>
    <i name="e_fr_energy">   -294.76157889 </i>
    <i name="e_wo_entrp">   -294.76157889 </i>
    <i name="e_0_energy">   -294.76157889 </i>
   </energy>
  </scstep>
  <scstep>
   <time name="dav">  386.38  773.13</time>
   <time name="total">  395.43  791.27</time>
   <energy>
    <i name="e_fr_energy">   -294.76157892 </i>
    <i name="e_wo_entrp">   -294.76157892 </i>
    <i name="e_0_energy">   -294.76157892 </i>
   </energy>
  </scstep>
  <scstep>
   <time name="dav">  414.75  829.94</time>
   <time name="total">  423.29  847.03</time>
   <energy>
    <i name="e_fr_energy">   -294.76157858 </i>
    <i name="e_wo_entrp">   -294.76157858 </i>
    <i name="e_0_energy">   -294.76157858 </i>
   </energy>
  </scstep>
  <scstep>
   <time name="dav">  393.40  787.18</time>
   <time name="total">  402.09  804.58</time>
   <energy>
    <i name="e_fr_energy">   -294.76157870 </i>
    <i name="e_wo_entrp">   -294.76157870 </i>
    <i name="e_0_energy">   -294.76157870 </i>
   </energy>
  </scstep>
  <scstep>
   <time name="dav">  364.53  729.42</time>
   <time name="total">  373.20  746.78</time>
   <energy>
    <i name="e_fr_energy">   -294.76157854 </i>
    <i name="e_wo_entrp">   -294.76157854 </i>
    <i name="e_0_energy">   -294.76157854 </i>
   </energy>
  </scstep>
  <scstep>
   <time name="dav">  372.08  744.53</time>
   <time name="total">  380.27  760.91</time>
   <energy>
    <i name="e_fr_energy">   -294.76157862 </i>
    <i name="e_wo_entrp">   -294.76157862 </i>
    <i name="e_0_energy">   -294.76157862 </i>
   </energy>
  </scstep>
  <scstep>
   <time name="dav">  394.93  790.26</time>
   <time name="total">  403.09  806.58</time>
   <energy>
    <i name="e_fr_energy">   -294.76157819 </i>
    <i name="e_wo_entrp">   -294.76157819 </i>
    <i name="e_0_energy">   -294.76157819 </i>
   </energy>
  </scstep>
  <scstep>
   <time name="dav">  349.40  699.13</time>
   <time name="total">  358.02  716.39</time>
   <energy>
    <i name="e_fr_energy">   -294.76157817 </i>
    <i name="e_wo_entrp">   -294.76157817 </i>
    <i name="e_0_energy">   -294.76157817 </i>
   </energy>
  </scstep>
  <scstep>
   <time name="dav">  276.30  552.87</time>
   <time name="total">  284.54  569.38</time>
   <energy>
    <i name="e_fr_energy">   -294.76157816 </i>
    <i name="e_wo_entrp">   -294.76157816 </i>
    <i name="e_0_energy">   -294.76157816 </i>
   </energy>
  </scstep>
  <scstep>
   <time name="dav">  284.40  569.09</time>
   <time name="total">  292.42  585.14</time>
   <energy>
    <i name="e_fr_energy">   -294.76157815 </i>
    <i name="e_wo_entrp">   -294.76157815 </i>
    <i name="e_0_energy">   -294.76157815 </i>
   </energy>
  </scstep>
  <scstep>
   <time name="dav">  276.81  553.88</time>
   <time name="total">  278.12  556.49</time>
   <energy>
    <i name="alphaZ">    298.64697712 </i>
    <i name="ewald">  -3743.02410381 </i>
    <i name="hartreedc">  -1425.86392502 </i>
    <i name="XCdc">    461.24682135 </i>
    <i name="pawpsdc">   2222.99375906 </i>
    <i name="pawaedc">  -2264.21289208 </i>
    <i name="eentropy">      0.00000000 </i>
    <i name="bandstr">   -553.48976523 </i>
    <i name="atom">   4708.94155045 </i>
    <i name="e_fr_energy">   -294.76157815 </i>
    <i name="e_wo_entrp">   -294.76157815 </i>
    <i name="e_0_energy">   -294.76157815 </i>
   </energy>
  </scstep>
  <structure>
   <crystal>
    <varray name="basis" >
     <v>       4.93287450      -0.00191929       0.00000000 </v>
     <v>      -2.46809940       4.27103499       0.00000000 </v>
     <v>       0.00000000       0.00000000      13.26350146 </v>
    </varray>
    <i name="volume">    279.37898030 </i>
    <varray name="rec_basis" >
     <v>       0.20276715       0.11717288       0.00000000 </v>
     <v>       0.00009112       0.23418794       0.00000000 </v>
     <v>       0.00000000       0.00000000       0.07539487 </v>
    </varray>
   </crystal>
   <varray name="positions" >
    <v>       0.49967330       0.00032672       0.12500000 </v>
    <v>       0.99967330       0.00032672       0.12500000 </v>
    <v>       0.49967330       0.50032672       0.12500000 </v>
    <v>       0.99967330       0.50032672       0.12500000 </v>
    <v>       0.49967330       0.00032672       0.62500000 </v>
    <v>       0.99967330       0.00032672       0.62500000 </v>
    <v>       0.49967330       0.50032672       0.62500000 </v>
    <v>       0.99967330       0.50032672       0.62500000 </v>
    <v>       0.00032672       0.49967330       0.37500000 </v>
    <v>       0.50032672       0.49967330       0.37500000 </v>
    <v>       0.00032672       0.99967330       0.37500000 </v>
    <v>       0.50032672       0.99967330       0.37500000 </v>
    <v>       0.00032672       0.49967330       0.87500000 </v>
    <v>       0.50032672       0.49967330       0.87500000 </v>
    <v>       0.00032672       0.99967330       0.87500000 </v>
    <v>       0.50032672       0.99967330       0.87500000 </v>
    <v>       0.16699912       0.33370753       0.12570666 </v>
    <v>       0.66629246       0.33370753       0.12500000 </v>
    <v>       0.16629246       0.83370753       0.12500000 </v>
    <v>       0.66629246       0.83370753       0.12500000 </v>
    <v>       0.16629246       0.33370753       0.62500000 </v>
    <v>       0.66629246       0.33370753       0.62500000 </v>
    <v>       0.16629246       0.83370753       0.62500000 </v>
    <v>       0.66629246       0.83370753       0.62500000 </v>
    <v>       0.33370753       0.16629246       0.37500000 </v>
    <v>       0.83370753       0.16629246       0.37500000 </v>
    <v>       0.33370753       0.66629246       0.37500000 </v>
    <v>       0.83370753       0.66629246       0.37500000 </v>
    <v>       0.33370753       0.16629246       0.87500000 </v>
    <v>       0.83370753       0.16629246       0.87500000 </v>
    <v>       0.33370753       0.66629246       0.87500000 </v>
    <v>       0.83370753       0.66629246       0.87500000 </v>
   </varray>
  </structure>
  <varray name="forces" >
   <v>      -0.01723877       0.00736186       0.00771710 </v>
   <v>       0.01041355       0.00787042       0.04243786 </v>
   <v>       0.05671072       0.03404818       0.04201084 </v>
   <v>       0.05615702      -0.01900012       0.04278024 </v>
   <v>      -0.01180014       0.00762232      -0.00481523 </v>
   <v>      -0.01179941       0.00762323      -0.00479470 </v>
   <v>      -0.01179879       0.00762320      -0.00479837 </v>
   <v>      -0.01179785       0.00762136      -0.00478788 </v>
   <v>       0.01320053      -0.00875957       0.00525909 </v>
   <v>       0.01336624      -0.00868482       0.00546410 </v>
   <v>       0.01322455      -0.00880319       0.00535820 </v>
   <v>       0.01336353      -0.00874400       0.00454502 </v>
   <v>       0.01290214      -0.00660627       0.00546937 </v>
   <v>       0.01275478      -0.00643384       0.00520975 </v>
   <v>       0.01268495      -0.00645413       0.00532645 </v>
   <v>       0.01291373      -0.00650845       0.00452977 </v>
   <v>      -0.20071138      -0.00693912      -0.13554043 </v>
   <v>       0.05318324      -0.00596368      -0.00674260 </v>
   <v>       0.01670634      -0.02704046      -0.00680824 </v>
   <v>       0.01681433       0.01513784      -0.00677775 </v>
   <v>       0.00940898      -0.00626046       0.00083124 </v>
   <v>       0.00940244      -0.00625999       0.00062227 </v>
   <v>       0.00940574      -0.00625882       0.00062231 </v>
   <v>       0.00940573      -0.00626307       0.00062382 </v>
   <v>      -0.01168690       0.00752986      -0.00039724 </v>
   <v>      -0.01132938       0.00750731      -0.00032643 </v>
   <v>      -0.01148406       0.00722275      -0.00039569 </v>
   <v>      -0.01151929       0.00740367      -0.00073887 </v>
   <v>      -0.01002324       0.00500906      -0.00026718 </v>
   <v>      -0.01038470       0.00497997      -0.00046139 </v>
   <v>      -0.01017410       0.00530267      -0.00040247 </v>
   <v>      -0.01027053       0.00511629      -0.00075298 </v>
  </varray>
  <varray name="stress" >
   <v>      -3.63100851       2.86605706       0.10821696 </v>
   <v>       2.86605708      -0.45732234      -0.05077394 </v>
   <v>       0.10821696      -0.05077392       3.16530696 </v>
  </varray>
  <energy>
   <i name="e_fr_energy">   -299.83425914 </i>
   <i name="e_wo_entrp">   -299.83425914 </i>
   <i name="e_0_energy">      0.00000000 </i>
  </energy>
  <time name="totalsc">13009.4526030.10</time>
  <eigenvalues>
   <array>
    <dimension dim="1">band</dimension>
    <dimension dim="2">kpoint</dimension>
    <dimension dim="3">spin</dimension>
    <field>eigene</field>
    <field>occ</field>
    <set>
     <set comment="spin 1">
      <set comment="kpoint 1">
       <r>  -14.8640    1.0000 </r>
       <r>  -14.7060    1.0000 </r>
       <r>  -14.7054    1.0000 </r>
       <r>  -14.5356    1.0000 </r>
       <r>   -9.5354    1.0000 </r>
       <r>   -9.5252    1.0000 </r>
       <r>   -9.5222    1.0000 </r>
       <r>   -9.4691    1.0000 </r>
       <r>   -9.4675    1.0000 </r>
       <r>   -9.4573    1.0000 </r>
       <r>   -9.4558    1.0000 </r>
       <r>   -9.4558    1.0000 </r>
       <r>   -9.4518    1.0000 </r>
       <r>   -9.4137    1.0000 </r>
       <r>   -9.4007    1.0000 </r>
       <r>   -9.3982    1.0000 </r>
       <r>   -8.4528    1.0000 </r>
       <r>   -8.4514    1.0000 </r>
       <r>   -8.4504    1.0000 </r>
       <r>   -8.4194    1.0000 </r>
       <r>   -8.4186    1.0000 </r>
       <r>   -8.4164    1.0000 </r>
       <r>   -8.4160    1.0000 </r>
       <r>   -8.4160    1.0000 </r>
       <r>   -8.4134    1.0000 </r>
       <r>   -8.3601    1.0000 </r>
       <r>   -8.3592    1.0000 </r>
       <r>   -8.3567    1.0000 </r>
       <r>   -3.7722    1.0000 </r>
       <r>   -2.8354    1.0000 </r>
       <r>   -2.8335    1.0000 </r>
       <r>   -1.6878    1.0000 </r>
       <r>   -1.6270    1.0000 </r>
       <r>   -1.6246    1.0000 </r>
       <r>   -1.6090    1.0000 </r>
       <r>   -1.5966    1.0000 </r>
       <r>   -1.5957    1.0000 </r>
       <r>   -1.5957    1.0000 </r>
       <r>   -1.5916    1.0000 </r>
       <r>   -1.5789    1.0000 </r>
       <r>   -1.5770    1.0000 </r>
       <r>   -1.5649    1.0000 </r>
       <r>   -1.5621    1.0000 </r>
       <r>   -1.5468    1.0000 </r>
       <r>    1.7720    1.0000 </r>
       <r>    1.7798    1.0000 </r>
       <r>    1.7812    1.0000 </r>
       <r>    1.7867    1.0000 </r>
       <r>    1.7924    1.0000 </r>
       <r>    1.7974    1.0000 </r>
       <r>    1.7991    1.0000 </r>
       <r>    1.8065    1.0000 </r>
       <r>    1.9849    1.0000 </r>
       <r>    1.9877    1.0000 </r>
       <r>    1.9897    1.0000 </r>
       <r>    2.4177    1.0000 </r>
       <r>    2.4203    1.0000 </r>
       <r>    2.4275    1.0000 </r>
       <r>    2.4279    1.0000 </r>
       <r>    2.4280    1.0000 </r>
       <r>    2.4320    1.0000 </r>
       <r>    2.7034    1.0000 </r>
       <r>    2.7220    1.0000 </r>
       <r>    2.7237    1.0000 </r>
       <r>    6.2971    0.0000 </r>
       <r>    6.2992    0.0000 </r>
       <r>    6.3060    0.0000 </r>
       <r>    6.4287    0.0000 </r>
       <r>    6.4318    0.0000 </r>
       <r>    6.4340    0.0000 </r>
       <r>    6.4362    0.0000 </r>
       <r>    6.4366    0.0000 </r>
       <r>    6.4403    0.0000 </r>
       <r>    6.9943    0.0000 </r>
       <r>    7.0008    0.0000 </r>
       <r>    7.0042    0.0000 </r>
       <r>    9.1853    0.0000 </r>
       <r>   11.9140    0.0000 </r>
       <r>   11.9173    0.0000 </r>
       <r>   11.9603    0.0000 </r>
       <r>   11.9643    0.0000 </r>
       <r>   11.9960    0.0000 </r>
       <r>   12.1697    0.0000 </r>
       <r>   12.1720    0.0000 </r>
      </set>
      <set comment="kpoint 2">
       <r>  -14.6982    1.0000 </r>
       <r>  -14.5417    1.0000 </r>
       <r>  -14.5411    1.0000 </r>
       <r>  -14.3730    1.0000 </r>
       <r>  -10.8403    1.0000 </r>
       <r>  -10.7199    1.0000 </r>
       <r>  -10.7193    1.0000 </r>
       <r>  -10.5926    1.0000 </r>
       <r>   -9.9671    1.0000 </r>
       <r>   -9.9598    1.0000 </r>
       <r>   -9.8610    1.0000 </r>
       <r>   -9.8603    1.0000 </r>
       <r>   -9.8533    1.0000 </r>
       <r>   -9.8523    1.0000 </r>
       <r>   -9.7505    1.0000 </r>
       <r>   -9.7424    1.0000 </r>
       <r>   -7.8408    1.0000 </r>
       <r>   -7.8349    1.0000 </r>
       <r>   -7.7570    1.0000 </r>
       <r>   -7.7549    1.0000 </r>
       <r>   -7.7500    1.0000 </r>
       <r>   -7.7491    1.0000 </r>
       <r>   -7.6642    1.0000 </r>
       <r>   -7.6579    1.0000 </r>
       <r>   -6.9975    1.0000 </r>
       <r>   -6.9106    1.0000 </r>
       <r>   -6.9092    1.0000 </r>
       <r>   -6.8181    1.0000 </r>
       <r>   -3.5710    1.0000 </r>
       <r>   -2.6398    1.0000 </r>
       <r>   -2.6379    1.0000 </r>
       <r>   -2.1193    1.0000 </r>
       <r>   -2.1026    1.0000 </r>
       <r>   -2.0814    1.0000 </r>
       <r>   -2.0812    1.0000 </r>
       <r>   -2.0654    1.0000 </r>
       <r>   -2.0635    1.0000 </r>
       <r>   -2.0425    1.0000 </r>
       <r>   -2.0257    1.0000 </r>
       <r>   -1.5004    1.0000 </r>
       <r>   -1.4624    1.0000 </r>
       <r>   -1.4333    1.0000 </r>
       <r>   -1.4303    1.0000 </r>
       <r>   -1.4009    1.0000 </r>
       <r>    0.8880    1.0000 </r>
       <r>    1.1195    1.0000 </r>
       <r>    1.1372    1.0000 </r>
       <r>    1.1414    1.0000 </r>
       <r>    1.1587    1.0000 </r>
       <r>    1.4325    1.0000 </r>
       <r>    1.4465    1.0000 </r>
       <r>    1.4513    1.0000 </r>
       <r>    1.4663    1.0000 </r>
       <r>    1.5803    1.0000 </r>
       <r>    1.5825    1.0000 </r>
       <r>    1.7539    1.0000 </r>
       <r>    1.7583    1.0000 </r>
       <r>    2.3101    1.0000 </r>
       <r>    2.3127    1.0000 </r>
       <r>    2.3188    1.0000 </r>
       <r>    2.3195    1.0000 </r>
       <r>    2.3303    1.0000 </r>
       <r>    2.8090    1.0000 </r>
       <r>    2.8229    1.0000 </r>
       <r>    6.4632    0.0000 </r>
       <r>    6.4663    0.0000 </r>
       <r>    6.7110    0.0000 </r>
       <r>    6.7146    0.0000 </r>
       <r>    6.7166    0.0000 </r>
       <r>    6.7206    0.0000 </r>
       <r>    7.1249    0.0000 </r>
       <r>    7.2733    0.0000 </r>
       <r>    7.2800    0.0000 </r>
       <r>    7.5348    0.0000 </r>
       <r>    7.5388    0.0000 </r>
       <r>    8.1725    0.0000 </r>
       <r>    9.3841    0.0000 </r>
       <r>   12.0540    0.0000 </r>
       <r>   12.0807    0.0000 </r>
       <r>   12.0840    0.0000 </r>
       <r>   12.2565    0.0000 </r>
       <r>   12.2580    0.0000 </r>
       <r>   12.4616    0.0000 </r>
       <r>   12.6940    0.0000 </r>
      </set>
      <set comment="kpoint 3">
       <r>  -14.2027    1.0000 </r>
       <r>  -14.0506    1.0000 </r>
       <r>  -14.0501    1.0000 </r>
       <r>  -13.8872    1.0000 </r>
       <r>  -12.2524    1.0000 </r>
       <r>  -12.1179    1.0000 </r>
       <r>  -12.1174    1.0000 </r>
       <r>  -11.9747    1.0000 </r>
       <r>  -10.3907    1.0000 </r>
       <r>  -10.3870    1.0000 </r>
       <r>  -10.2751    1.0000 </r>
       <r>  -10.2745    1.0000 </r>
       <r>  -10.2713    1.0000 </r>
       <r>  -10.2701    1.0000 </r>
       <r>  -10.1527    1.0000 </r>
       <r>  -10.1488    1.0000 </r>
       <r>   -6.6667    1.0000 </r>
       <r>   -6.6577    1.0000 </r>
       <r>   -6.5882    1.0000 </r>
       <r>   -6.5860    1.0000 </r>
       <r>   -6.5786    1.0000 </r>
       <r>   -6.5774    1.0000 </r>
       <r>   -6.5041    1.0000 </r>
       <r>   -6.4952    1.0000 </r>
       <r>   -4.8799    1.0000 </r>
       <r>   -4.8080    1.0000 </r>
       <r>   -4.8063    1.0000 </r>
       <r>   -4.7320    1.0000 </r>
       <r>   -3.2780    1.0000 </r>
       <r>   -3.2640    1.0000 </r>
       <r>   -3.2287    1.0000 </r>
       <r>   -3.2284    1.0000 </r>
       <r>   -3.2153    1.0000 </r>
       <r>   -3.2133    1.0000 </r>
       <r>   -3.1771    1.0000 </r>
       <r>   -3.1629    1.0000 </r>
       <r>   -2.9715    1.0000 </r>
       <r>   -2.0583    1.0000 </r>
       <r>   -2.0564    1.0000 </r>
       <r>   -0.9882    1.0000 </r>
       <r>   -0.9604    1.0000 </r>
       <r>   -0.9572    1.0000 </r>
       <r>   -0.9445    1.0000 </r>
       <r>   -0.9292    1.0000 </r>
       <r>   -0.6632    1.0000 </r>
       <r>   -0.5361    1.0000 </r>
       <r>   -0.5018    1.0000 </r>
       <r>   -0.4986    1.0000 </r>
       <r>   -0.4641    1.0000 </r>
[...]
       <r>   -4.1080    1.0000 </r>
       <r>   -4.1080    1.0000 </r>
       <r>   -4.1065    1.0000 </r>
       <r>   -4.1032    1.0000 </r>
       <r>   -2.6517    1.0000 </r>
       <r>   -2.6514    1.0000 </r>
       <r>   -2.6514    1.0000 </r>
       <r>   -2.6459    1.0000 </r>
       <r>   -2.5736    1.0000 </r>
       <r>   -2.5733    1.0000 </r>
       <r>   -2.5733    1.0000 </r>
       <r>   -2.5668    1.0000 </r>
       <r>   -1.7493    1.0000 </r>
       <r>   -1.7468    1.0000 </r>
       <r>   -1.7466    1.0000 </r>
       <r>   -1.7443    1.0000 </r>
       <r>   -0.3889    1.0000 </r>
       <r>   -0.3859    1.0000 </r>
       <r>   -0.3857    1.0000 </r>
       <r>   -0.3833    1.0000 </r>
       <r>   -0.2392    1.0000 </r>
       <r>   -0.2295    1.0000 </r>
       <r>   -0.2295    1.0000 </r>
       <r>   -0.2279    1.0000 </r>
       <r>   -0.1980    1.0000 </r>
       <r>   -0.1915    1.0000 </r>
       <r>   -0.1915    1.0000 </r>
       <r>   -0.1898    1.0000 </r>
       <r>    1.5303    1.0000 </r>
       <r>    1.5313    1.0000 </r>
       <r>    1.5314    1.0000 </r>
       <r>    1.5347    1.0000 </r>
       <r>    2.6082    1.0000 </r>
       <r>    2.6092    1.0000 </r>
       <r>    2.6094    1.0000 </r>
       <r>    2.6132    1.0000 </r>
       <r>    7.3645    0.0000 </r>
       <r>    7.3697    0.0000 </r>
       <r>    7.3697    0.0000 </r>
       <r>    7.3700    0.0000 </r>
       <r>    7.8130    0.0000 </r>
       <r>    7.8177    0.0000 </r>
       <r>    7.8177    0.0000 </r>
       <r>    7.8183    0.0000 </r>
       <r>   11.5246    0.0000 </r>
       <r>   11.5357    0.0000 </r>
       <r>   11.5368    0.0000 </r>
       <r>   11.5475    0.0000 </r>
       <r>   11.9035    0.0000 </r>
       <r>   11.9121    0.0000 </r>
       <r>   11.9147    0.0000 </r>
       <r>   11.9243    0.0000 </r>
       <r>   12.2425    0.0000 </r>
       <r>   12.2439    0.0000 </r>
       <r>   12.2449    0.0000 </r>
       <r>   12.2508    0.0000 </r>
      </set>
     </set>
    </set>
   </array>
  </eigenvalues>
  <separator name="orbital magnetization" >
   <v name="MAGDIPOLOUT">      0.00000000      0.00000000      0.00000000</v>
  </separator>
  <dos>
   <i name="efermi">      4.77145936 </i>
   <total>
    <array>
     <dimension dim="1">gridpoints</dimension>
     <dimension dim="2">spin</dimension>
     <field>energy</field>
     <field>total</field>
     <field>integrated</field>
     <set>
      <set comment="spin 1">
       <r>   -16.8640     0.0000     0.0000 </r>
       <r>   -16.7548     0.0000     0.0000 </r>
       <r>   -16.6455     0.0000     0.0000 </r>
       <r>   -16.5363     0.0000     0.0000 </r>
       <r>   -16.4271     0.0000     0.0000 </r>
       <r>   -16.3179     0.0000     0.0000 </r>
       <r>   -16.2086     0.0000     0.0000 </r>
       <r>   -16.0994     0.0000     0.0000 </r>
       <r>   -15.9902     0.0000     0.0000 </r>
       <r>   -15.8810     0.0000     0.0000 </r>
       <r>   -15.7718     0.0000     0.0000 </r>
       <r>   -15.6625     0.0000     0.0000 </r>
       <r>   -15.5533     0.0000     0.0000 </r>
       <r>   -15.4441     0.0000     0.0000 </r>
       <r>   -15.3349     0.0000     0.0000 </r>
       <r>   -15.2256     0.0000     0.0000 </r>
       <r>   -15.1164     0.0000     0.0000 </r>
       <r>   -15.0072     0.0000     0.0000 </r>
       <r>   -14.8980     0.0000     0.0000 </r>
       <r>   -14.7887     0.7602     0.0222 </r>
       <r>   -14.6795     2.4280     0.2154 </r>
       <r>   -14.5703     3.3068     0.5213 </r>
       <r>   -14.4611     4.8914     0.9709 </r>
       <r>   -14.3518     4.8315     1.5222 </r>
       <r>   -14.2426     4.9790     2.0606 </r>
       <r>   -14.1334     4.9743     2.6037 </r>
       <r>   -14.0242     4.9108     3.1455 </r>
       <r>   -13.9150     4.8756     3.6778 </r>
       <r>   -13.8057     5.1205     4.2225 </r>
       <r>   -13.6965     6.0998     4.8024 </r>
       <r>   -13.5873     7.2646     5.5476 </r>
       <r>   -13.4781     7.2201     6.3414 </r>
       <r>   -13.3688     5.9265     7.1348 </r>
       <r>   -13.2596     2.3524     7.5376 </r>
       <r>   -13.1504     1.8437     7.7596 </r>
       <r>   -13.0412     2.0482     7.9660 </r>
       <r>   -12.9319     2.4629     8.2124 </r>
       <r>   -12.8227     3.5302     8.5159 </r>
       <r>   -12.7135     8.0629     9.3556 </r>
       <r>   -12.6043     7.9196    10.1844 </r>
       <r>   -12.4950     6.7541    11.0218 </r>
       <r>   -12.3858     4.0539    11.5385 </r>
       <r>   -12.2766     4.1678    11.9875 </r>
       <r>   -12.1674     4.3070    12.4498 </r>
       <r>   -12.0582     4.4691    12.9290 </r>
       <r>   -11.9489     4.6184    13.4257 </r>
       <r>   -11.8397     4.7506    13.9373 </r>
       <r>   -11.7305     5.1356    14.4719 </r>
       <r>   -11.6213     5.5097    15.0539 </r>
       <r>   -11.5120     6.3525    15.6833 </r>
       <r>   -11.4028     5.9644    16.3590 </r>
       <r>   -11.2936     5.6286    16.9909 </r>
       <r>   -11.1844     5.5443    17.5969 </r>
       <r>   -11.0751     5.7122    18.2117 </r>
       <r>   -10.9659     5.8804    18.8448 </r>
       <r>   -10.8567     6.0487    19.4962 </r>
       <r>   -10.7475     5.7361    20.1365 </r>
       <r>   -10.6382     5.6078    20.7559 </r>
       <r>   -10.5290     5.5179    21.3605 </r>
       <r>   -10.4198     4.5412    21.9208 </r>
       <r>   -10.3106     3.8157    22.3593 </r>
       <r>   -10.2014     4.6512    22.8211 </r>
       <r>   -10.0921     4.9915    23.3528 </r>
       <r>    -9.9829     5.1811    23.9084 </r>
       <r>    -9.8737     6.9379    24.5720 </r>
       <r>    -9.7645     9.8532    25.4671 </r>
       <r>    -9.6552     9.7549    26.6331 </r>
       <r>    -9.5460     7.4029    27.5702 </r>
       <r>    -9.4368     5.2814    28.2563 </r>
       <r>    -9.3276     4.5465    28.7833 </r>
       <r>    -9.2183     4.0542    29.2530 </r>
       <r>    -9.1091     3.5671    29.6689 </r>
       <r>    -8.9999     5.1266    30.3510 </r>
       <r>    -8.8907     2.1176    30.8822 </r>
       <r>    -8.7814     1.8567    31.0964 </r>
       <r>    -8.6722     1.6480    31.2878 </r>
       <r>    -8.5630     1.4393    31.4564 </r>
       <r>    -8.4538     1.2306    31.6022 </r>
       <r>    -8.3445     1.5524    31.7492 </r>
       <r>    -8.2353     2.0537    31.9461 </r>
       <r>    -8.1261     2.5548    32.1978 </r>
       <r>    -8.0169     3.5208    32.5100 </r>
       <r>    -7.9077     8.2634    33.1268 </r>
       <r>    -7.7984     7.5350    34.1766 </r>
       <r>    -7.6892     5.1022    34.7789 </r>
       <r>    -7.5800     5.7389    35.3506 </r>
       <r>    -7.4708     6.9273    36.0423 </r>
       <r>    -7.3615     8.1156    36.8638 </r>
       <r>    -7.2523     9.3040    37.8152 </r>
       <r>    -7.1431     8.0552    38.8148 </r>
       <r>    -7.0339     5.6091    39.5570 </r>
       <r>    -6.9246     5.5784    40.1675 </r>
       <r>    -6.8154     5.6078    40.7761 </r>
       <r>    -6.7062     5.4517    41.3801 </r>
       <r>    -6.5970     5.2817    41.9667 </r>
       <r>    -6.4877     5.1118    42.5334 </r>
       <r>    -6.3785     4.9931    43.0853 </r>
       <r>    -6.2693     4.8744    43.6241 </r>
       <r>    -6.1601     4.7557    44.1501 </r>
       <r>    -6.0509     4.6370    44.6630 </r>
       <r>    -5.9416     4.5183    45.1630 </r>
       <r>    -5.8324     4.3979    45.6500 </r>
       <r>    -5.7232     4.4211    46.1263 </r>
       <r>    -5.6140     5.0913    46.6480 </r>
       <r>    -5.5047     5.6900    47.2368 </r>
       <r>    -5.3955     6.2888    47.8910 </r>
       <r>    -5.2863     6.8876    48.6106 </r>
       <r>    -5.1771     7.4864    49.3956 </r>
       <r>    -5.0678     8.0852    50.2460 </r>
       <r>    -4.9586     8.6841    51.1618 </r>
       <r>    -4.8494     6.6494    52.0761 </r>
       <r>    -4.7402     4.2571    52.6212 </r>
       <r>    -4.6309     6.7943    53.2450 </r>
       <r>    -4.5217     6.2060    53.9947 </r>
       <r>    -4.4125     4.7112    54.5909 </r>
       <r>    -4.3033     3.2163    55.0238 </r>
       <r>    -4.1941     1.7212    55.2935 </r>
       <r>    -4.0848     1.4004    55.4309 </r>
       <r>    -3.9756     2.9403    55.6680 </r>
       <r>    -3.8664     4.4801    56.0732 </r>
       <r>    -3.7572     6.0267    56.6467 </r>
       <r>    -3.6479    10.5298    57.5676 </r>
       <r>    -3.5387    12.5430    58.8768 </r>
       <r>    -3.4295    12.9388    60.2980 </r>
       <r>    -3.3203     9.3153    61.5744 </r>
       <r>    -3.2110     4.3489    62.2478 </r>
       <r>    -3.1018     5.7755    62.8010 </r>
       <r>    -2.9926     6.5991    63.4768 </r>
       <r>    -2.8834     9.1257    64.2793 </r>
       <r>    -2.7741    14.8341    65.5856 </r>
       <r>    -2.6649    25.6485    67.6176 </r>
       <r>    -2.5557     6.8598    69.1802 </r>
       <r>    -2.4465     7.1935    69.9493 </r>
       <r>    -2.3372     7.4835    70.7485 </r>
       <r>    -2.2280     7.9694    71.5906 </r>
       <r>    -2.1188     8.8764    72.5020 </r>
       <r>    -2.0096    16.1859    73.8942 </r>
       <r>    -1.9004    12.6812    75.4639 </r>
       <r>    -1.7911    10.4571    76.7143 </r>
       <r>    -1.6819    16.9436    77.9816 </r>
       <r>    -1.5727    16.9404    81.0895 </r>
       <r>    -1.4635    21.9189    83.0353 </r>
       <r>    -1.3542    14.0895    84.8395 </r>
       <r>    -1.2450    15.4678    86.4450 </r>
       <r>    -1.1358    15.9055    88.3371 </r>
       <r>    -1.0266     8.9687    89.6302 </r>
       <r>    -0.9173     6.1838    90.4168 </r>
       <r>    -0.8081     7.1910    91.1467 </r>
       <r>    -0.6989     8.0968    91.9843 </r>
       <r>    -0.5897     9.2382    92.9279 </r>
       <r>    -0.4804    10.6302    94.0131 </r>
       <r>    -0.3712    11.2443    95.2278 </r>
       <r>    -0.2620    11.2979    96.4635 </r>
       <r>    -0.1528    11.0631    98.2090 </r>
       <r>    -0.0436    13.3776    99.5952 </r>
       <r>     0.0657    11.5244   100.9101 </r>
       <r>     0.1749     9.2371   102.0636 </r>
       <r>     0.2841     9.5480   103.0799 </r>
       <r>     0.3933     9.1881   104.1270 </r>
       <r>     0.5026     9.6758   105.1486 </r>
       <r>     0.6118     9.8125   106.2209 </r>
       <r>     0.7210     9.6411   107.2798 </r>
       <r>     0.8302     9.4780   108.3290 </r>
       <r>     0.9395     9.3356   109.3565 </r>
       <r>     1.0487     9.2564   110.3706 </r>
       <r>     1.1579     9.8684   111.4011 </r>
       <r>     1.2671     9.6935   112.4706 </r>
       <r>     1.3764     9.5868   113.5222 </r>
       <r>     1.4856    10.3690   114.6025 </r>
       <r>     1.5948    10.2467   115.7191 </r>
       <r>     1.7040     8.8709   116.7968 </r>
       <r>     1.8132     6.7889   117.6376 </r>
       <r>     1.9225     6.4560   118.3609 </r>
       <r>     2.0317     4.7179   118.9738 </r>
       <r>     2.1409     3.2533   119.4022 </r>
       <r>     2.2501     2.7739   119.7232 </r>
       <r>     2.3594     3.5553   120.0662 </r>
       <r>     2.4686     4.7361   120.5128 </r>
       <r>     2.5778     7.0711   121.1491 </r>
       <r>     2.6870     8.8314   122.0143 </r>
       <r>     2.7963     8.9586   122.9547 </r>
       <r>     2.9055     7.9492   123.8987 </r>
       <r>     3.0147     5.9669   124.6517 </r>
       <r>     3.1239     4.6607   125.2267 </r>
       <r>     3.2332     3.7666   125.6836 </r>
       <r>     3.3424     3.2699   126.0644 </r>
       <r>     3.4516     2.8923   126.4011 </r>
       <r>     3.5608     2.5106   126.6958 </r>
       <r>     3.6701     2.1756   126.9510 </r>
       <r>     3.7793     1.8845   127.1726 </r>
       <r>     3.8885     1.6150   127.3637 </r>
       <r>     3.9977     1.3502   127.5250 </r>
       <r>     4.1069     1.1079   127.6593 </r>
       <r>     4.2162     0.8884   127.7680 </r>
       <r>     4.3254     0.6894   127.8540 </r>
       <r>     4.4346     0.5030   127.9191 </r>
       <r>     4.5438     0.3276   127.9643 </r>
       <r>     4.6531     0.1617   127.9910 </r>
       <r>     4.7623     0.0061   128.0000 </r>
       <r>     4.8715     0.0939   128.0041 </r>
       <r>     4.9807     0.2199   128.0211 </r>
       <r>     5.0900     0.3563   128.0525 </r>
       <r>     5.1992     0.5056   128.0995 </r>
       <r>     5.3084     0.6683   128.1634 </r>
       <r>     5.4176     0.8504   128.2462 </r>
       <r>     5.5269     1.0615   128.3502 </r>
       <r>     5.6361     1.3151   128.4799 </r>
       <r>     5.7453     1.5706   128.6375 </r>
       <r>     5.8545     2.0574   128.8242 </r>
       <r>     5.9637     2.9416   129.1048 </r>
       <r>     6.0730     3.5066   129.4583 </r>
       <r>     6.1822     3.8315   129.8626 </r>
       <r>     6.2914     5.4591   130.3562 </r>
       <r>     6.4006    11.3546   131.2485 </r>
       <r>     6.5099    10.4170   132.6183 </r>
       <r>     6.6191     8.3996   133.6447 </r>
       <r>     6.7283     6.5949   134.4622 </r>
       <r>     6.8375     5.8447   135.1403 </r>
       <r>     6.9468     5.2832   135.7450 </r>
       <r>     7.0560     5.1016   136.3095 </r>
       <r>     7.1652     4.5265   136.8423 </r>
       <r>     7.2744     3.7929   137.3049 </r>
       <r>     7.3837     3.5989   137.7043 </r>
       <r>     7.4929     3.7254   138.1022 </r>
       <r>     7.6021     4.0960   138.5270 </r>
       <r>     7.7113     4.5013   138.9976 </r>
       <r>     7.8205     4.8273   139.5084 </r>
       <r>     7.9298     4.8679   140.0422 </r>
       <r>     8.0390     4.6596   140.5623 </r>
       <r>     8.1482     4.4986   141.0611 </r>
       <r>     8.2574     4.3533   141.5450 </r>
       <r>     8.3667     4.2348   142.0137 </r>
       <r>     8.4759     4.1453   142.4711 </r>
       <r>     8.5851     4.0733   142.9198 </r>
       <r>     8.6943     4.0074   143.3611 </r>
       <r>     8.8036     3.9517   143.7956 </r>
       <r>     8.9128     3.7076   144.2209 </r>
       <r>     9.0220     3.4539   144.6099 </r>
       <r>     9.1312     3.3400   144.9798 </r>
       <r>     9.2405     3.2916   145.3412 </r>
       <r>     9.3497     3.4488   145.7068 </r>
       <r>     9.4589     3.6382   146.0970 </r>
       <r>     9.5681     3.5855   146.4936 </r>
       <r>     9.6773     3.6166   146.8859 </r>
       <r>     9.7866     3.6780   147.2842 </r>
       <r>     9.8958     3.7248   147.6888 </r>
       <r>    10.0050     3.7369   148.0967 </r>
       <r>    10.1142     3.6976   148.5032 </r>
       <r>    10.2235     3.6499   148.9038 </r>
       <r>    10.3327     3.6524   149.3026 </r>
       <r>    10.4419     4.7462   149.7577 </r>
       <r>    10.5511     5.1276   150.2980 </r>
       <r>    10.6604     5.3500   150.9066 </r>
       <r>    10.7696     5.6954   151.4908 </r>
       <r>    10.8788     5.6454   152.1109 </r>
       <r>    10.9880     5.3660   152.7186 </r>
       <r>    11.0973     6.3556   153.2526 </r>
       <r>    11.2065     3.9537   153.8321 </r>
       <r>    11.3157     3.1037   154.2149 </r>
       <r>    11.4249     2.4350   154.4986 </r>
       <r>    11.5342     2.5394   154.7700 </r>
       <r>    11.6434     2.7186   155.0556 </r>
       <r>    11.7526     3.1154   155.3715 </r>
       <r>    11.8618     3.5049   155.7521 </r>
       <r>    11.9710     2.4448   156.0792 </r>
       <r>    12.0803     6.6115   156.5652 </r>
       <r>    12.1895     6.8019   157.2830 </r>
       <r>    12.2987     8.5355   158.1228 </r>
       <r>    12.4079    10.5786   159.1522 </r>
       <r>    12.5172    13.2062   160.4555 </r>
       <r>    12.6264    13.7149   161.9489 </r>
       <r>    12.7356    13.7528   163.4499 </r>
       <r>    12.8448    11.6590   164.8927 </r>
       <r>    12.9541     9.9327   166.0156 </r>
       <r>    13.0633    11.7224   167.0367 </r>
       <r>    13.1725     0.6769   167.9164 </r>
       <r>    13.2817     0.2433   167.9496 </r>
       <r>    13.3910     0.1653   167.9718 </r>
       <r>    13.5002     0.1023   167.9863 </r>
       <r>    13.6094     0.0544   167.9947 </r>
       <r>    13.7186     0.0214   167.9987 </r>
       <r>    13.8278     0.0036   167.9999 </r>
       <r>    13.9371     0.0000   168.0000 </r>
       <r>    14.0463     0.0000   168.0000 </r>
       <r>    14.1555     0.0000   168.0000 </r>
       <r>    14.2647     0.0000   168.0000 </r>
       <r>    14.3740     0.0000   168.0000 </r>
       <r>    14.4832     0.0000   168.0000 </r>
       <r>    14.5924     0.0000   168.0000 </r>
       <r>    14.7016     0.0000   168.0000 </r>
       <r>    14.8109     0.0000   168.0000 </r>
       <r>    14.9201     0.0000   168.0000 </r>
       <r>    15.0293     0.0000   168.0000 </r>
       <r>    15.1385     0.0000   168.0000 </r>
       <r>    15.2478     0.0000   168.0000 </r>
       <r>    15.3570     0.0000   168.0000 </r>
       <r>    15.4662     0.0000   168.0000 </r>
       <r>    15.5754     0.0000   168.0000 </r>
       <r>    15.6846     0.0000   168.0000 </r>
       <r>    15.7939     0.0000   168.0000 </r>
       <r>    15.9031     0.0000   168.0000 </r>
      </set>
     </set>
    </array>
   </total>
  </dos>
 </calculation>
 <structure name="finalpos" >
  <crystal>
   <varray name="basis" >
    <v>       4.93287450      -0.00191929       0.00000000 </v>
    <v>      -2.46809940       4.27103499       0.00000000 </v>
    <v>       0.00000000       0.00000000      13.26350146 </v>
   </varray>
   <i name="volume">    279.37898030 </i>
   <varray name="rec_basis" >
    <v>       0.20276715       0.11717288       0.00000000 </v>
    <v>       0.00009112       0.23418794       0.00000000 </v>
    <v>       0.00000000       0.00000000       0.07539487 </v>
   </varray>
  </crystal>
  <varray name="positions" >
   <v>       0.49967330       0.00032672       0.12500000 </v>
   <v>       0.99967330       0.00032672       0.12500000 </v>
   <v>       0.49967330       0.50032672       0.12500000 </v>
   <v>       0.99967330       0.50032672       0.12500000 </v>
   <v>       0.49967330       0.00032672       0.62500000 </v>
   <v>       0.99967330       0.00032672       0.62500000 </v>
   <v>       0.49967330       0.50032672       0.62500000 </v>
   <v>       0.99967330       0.50032672       0.62500000 </v>
   <v>       0.00032672       0.49967330       0.37500000 </v>
   <v>       0.50032672       0.49967330       0.37500000 </v>
   <v>       0.00032672       0.99967330       0.37500000 </v>
   <v>       0.50032672       0.99967330       0.37500000 </v>
   <v>       0.00032672       0.49967330       0.87500000 </v>
   <v>       0.50032672       0.49967330       0.87500000 </v>
   <v>       0.00032672       0.99967330       0.87500000 </v>
   <v>       0.50032672       0.99967330       0.87500000 </v>
   <v>       0.16699912       0.33370753       0.12570666 </v>
   <v>       0.66629246       0.33370753       0.12500000 </v>
   <v>       0.16629246       0.83370753       0.12500000 </v>
   <v>       0.66629246       0.83370753       0.12500000 </v>
   <v>       0.16629246       0.33370753       0.62500000 </v>
   <v>       0.66629246       0.33370753       0.62500000 </v>
   <v>       0.16629246       0.83370753       0.62500000 </v>
   <v>       0.66629246       0.83370753       0.62500000 </v>
   <v>       0.33370753       0.16629246       0.37500000 </v>
   <v>       0.83370753       0.16629246       0.37500000 </v>
   <v>       0.33370753       0.66629246       0.37500000 </v>
   <v>       0.83370753       0.66629246       0.37500000 </v>
   <v>       0.33370753       0.16629246       0.87500000 </v>
   <v>       0.83370753       0.16629246       0.87500000 </v>
   <v>       0.33370753       0.66629246       0.87500000 </v>
   <v>       0.83370753       0.66629246       0.87500000 </v>
  </varray>
 </structure>
</modeling>
