    4    4  200    1
  0.9341735E+01  0.2466437E-09  0.2466437E-09  0.7095973E-09  0.5000000E-15
  1.000000000000000E-004
  CAR 
 graphite                                
     16    455     12
 
  0.0000000E+00  0.0000000E+00  0.0000000E+00  0.3858025E-03
    1      -15.386317
    2      -15.194236
    3       -4.085923
    4       -2.621649
    5        1.185632
    6        1.195840
    7        1.202059
    8        1.211936
    9        8.091125
   10       12.530159
   11       12.544660
   12       12.562408
 
  0.5555556E-01 -0.1040834E-16  0.0000000E+00  0.1543210E-02
    1      -15.312806
    2      -15.121700
    3       -3.997000
    4       -2.536983
    5        0.897394
    6        0.911758
    7        1.031993
    8        1.045017
    9        8.181966
   10       12.565541
   11       12.610211
   12       12.848843
 
  0.1111111E+00 -0.2081668E-16  0.0000000E+00  0.1543210E-02
    1      -15.092686
    2      -14.904323
    3       -3.730670
    4       -2.284574
    5        0.074116
    6        0.098983
    7        0.613267
    8        0.631569
    9        8.455024
   10       12.585236
   11       12.660330
   12       13.742174
 
  0.1666667E+00  0.1387779E-16  0.0000000E+00  0.1543210E-02
    1      -14.727117
    2      -14.543248
    3       -3.289834
    4       -1.868258
    5       -1.107795
    6       -1.069729
    7        0.051483
    8        0.074157
    9        8.910446
   10       12.492784
   11       12.616418
   12       13.441998
 
  0.2222222E+00 -0.2775558E-16  0.0000000E+00  0.1543210E-02
    1      -14.217940
    2      -14.040398
    3       -2.679907
    4       -2.490142
    5       -2.437943
    6       -1.295477
    7       -0.544816
    8       -0.518749
    9        9.546348
   10       12.009983
   11       12.293658
   12       12.463204
 
  0.2777778E+00  0.0000000E+00  0.0000000E+00  0.1543210E-02
    1      -13.568310
    2      -13.398631
    3       -3.958412
    4       -3.891713
    5       -1.910592
    6       -1.099605
    7       -1.071461
    8       -0.580526
    9       10.356620
   10       10.434896
   11       10.948015
   12       12.051044
 
  0.3333333E+00  0.2775558E-16  0.0000000E+00  0.1543210E-02
    1      -12.783451
    2      -12.623239
    3       -5.435588
    4       -5.354165
    5       -1.565695
    6       -1.535740
    7       -1.000803
    8        0.247655
    9        8.823802
   10        9.470752
   11       11.306334
   12       11.829009
 
  0.3888889E+00  0.0000000E+00  0.0000000E+00  0.1543210E-02
    1      -11.872907
    2      -11.724172
    3       -6.866040
    4       -6.771170
    5       -1.914398
    6       -1.883409
    7        0.008262
    8        1.120350
    9        7.314634
   10        8.047103
   11       11.609873
   12       11.829247
 
  0.4444444E+00 -0.5551115E-16  0.0000000E+00  0.1543210E-02
    1      -10.865293
    2      -10.733226
    3       -8.190074
    4       -8.086871
    5       -2.129201
    6       -2.097628
    7        1.004048
    8        1.845328
    9        6.142258
   10        6.834482
   11       11.499381
   12       11.751114
 
  0.5000000E+00 -0.5551115E-16  0.0000000E+00  0.7716049E-03
    1      -10.081379
    2      -10.011014
    3       -9.026351
    4       -8.972680
    5       -2.201584
    6       -2.170006
    7        1.565556
    8        2.070770
    9        5.709972
   10        6.252934
   11       11.459797
   12       11.718273
 
  0.5555556E-01  0.5555556E-01  0.0000000E+00  0.7716049E-03
    1      -15.165901
    2      -14.976633
    3       -3.819259
    4       -2.368467
    5        0.368592
    6        0.382862
    7        0.717117
    8        0.728647
    9        8.364206
   10       12.668935
   11       12.726750
   12       13.387624
 
  0.1111111E+00  0.5555556E-01  0.0000000E+00  0.1543210E-02
    1      -14.872957
    2      -14.687321
    3       -3.465491
    4       -2.033831
    5       -0.582972
    6       -0.557450
    7        0.174508
    8        0.192265
    9        8.729230
   10       12.760715
   11       12.855220
   12       13.899659
 
  0.1666667E+00  0.5555556E-01  0.0000000E+00  0.1543210E-02
    1      -14.435471
    2      -14.255246
    3       -2.939752
    4       -1.825254
    5       -1.783832
    6       -1.538756
    7       -0.448172
    8       -0.423523
    9        9.276304
   10       12.633771
   11       12.681168
   12       12.827783
 
  0.2222222E+00  0.5555556E-01  0.0000000E+00  0.1543210E-02
    1      -13.855952
    2      -13.682820
    3       -3.225677
    4       -3.168172
    5       -2.249192
    6       -1.051533
    7       -1.022180
    8       -0.893405
    9       10.002195
   10       11.158975
   11       11.575244
   12       12.482000
 
  0.2777778E+00  0.5555556E-01  0.0000000E+00  0.1543210E-02
    1      -13.138426
    2      -12.973984
    3       -4.683456
    4       -4.610902
    5       -1.578054
    6       -1.545803
    7       -1.407166
    8       -0.117560
    9        9.580706
   10       10.136460
   11       10.897841
   12       12.250828
 
  0.3333333E+00  0.5555556E-01  0.0000000E+00  0.1543210E-02
    1      -12.290000
    2      -12.136015
    3       -6.129593
    4       -6.042488
    5       -1.994282
    6       -1.960269
    7       -0.440876
    8        0.745815
    9        8.021793
   10        8.694814
   11       11.865559
   12       12.078128
 
  0.3888889E+00  0.5555556E-01  0.0000000E+00  0.1543210E-02
    1      -11.325685
    2      -11.184729
    3       -7.508478
    4       -7.408693
    5       -2.280899
    6       -2.245724
    7        0.584863
    8        1.584501
    9        6.651272
   10        7.363394
   11       11.870046
   12       12.117141
 
  0.4444444E+00  0.5555556E-01  0.0000000E+00  0.1543210E-02
    1      -10.321698
    2      -10.209569
    3       -8.707496
    4       -8.613672
    5       -2.426851
    6       -2.391123
    7        1.461687
    8        2.094432
    9        5.807918
   10        6.384448
   11       11.793195
   12       12.058171
 
  0.5000000E+00  0.5555556E-01  0.0000000E+00  0.1543210E-02
    1      -10.323144
    2      -10.210921
    3       -8.705938
    4       -8.611998
    5       -2.427250
    6       -2.391517
    7        1.460935
    8        2.094220
    9        5.808051
   10        6.385260
   11       11.793663
   12       12.058643
 
 -0.4444444E+00  0.5555556E-01  0.0000000E+00  0.1543210E-02
    1      -11.327266
    2      -11.186300
    3       -7.506282
    4       -7.406470
    5       -2.282073
    6       -2.246875
    7        0.583641
    8        1.583622
    9        6.651874
   10        7.364771
   11       11.871440
   12       12.118448
 
 -0.3888889E+00  0.5555556E-01  0.0000000E+00  0.1543210E-02
    1      -12.291397
    2      -12.137410
    3       -6.127221
    4       -6.040091
    5       -1.996125
    6       -1.962081
    7       -0.442118
    8        0.744731
    9        8.022343
   10        8.696169
   11       11.865159
   12       12.079474
 
 -0.3333333E+00  0.5555556E-01  0.0000000E+00  0.1543210E-02
    1      -13.139613
    2      -12.975167
    3       -4.681103
    4       -4.608523
    5       -1.580333
    6       -1.548046
    7       -1.408300
    8       -0.118609
    9        9.580776
   10       10.137568
   11       10.896271
   12       12.253821
 
 -0.2777778E+00  0.5555556E-01  0.0000000E+00  0.1543210E-02
    1      -13.856923
    2      -13.683785
    3       -3.223733
    4       -3.166211
    5       -2.250162
    6       -1.053716
    7       -1.024353
    8       -0.894324
    9       10.000881
   10       11.158248
   11       11.575999
   12       12.485643
 
 -0.2222222E+00  0.5555556E-01  0.0000000E+00  0.1543210E-02
    1      -14.436227
    2      -14.256009
    3       -2.940529
    4       -1.824661
    5       -1.783263
    6       -1.539499
    7       -0.449160
    8       -0.424547
    9        9.275266
   10       12.642160
   11       12.688195
   12       12.832212
 
 -0.1666667E+00  0.5555556E-01  0.0000000E+00  0.1543210E-02
    1      -14.873495
    2      -14.687854
    3       -3.466055
    4       -2.034375
    5       -0.585926
    6       -0.560484
    7        0.177357
    8        0.194859
    9        8.728472
   10       12.763968
   11       12.859226
   12       13.883012
 
 -0.1111111E+00  0.5555556E-01  0.0000000E+00  0.1543210E-02
    1      -15.166227
    2      -14.976962
    3       -3.819601
    4       -2.368798
    5        0.358358
    6        0.373032
    7        0.727094
    8        0.738526
    9        8.363738
   10       12.670886
   11       12.729554
   12       13.368607
 
 -0.5555556E-01  0.5555556E-01  0.0000000E+00  0.7716049E-03
    1      -15.312913
    2      -15.121806
    3       -3.997116
    4       -2.537093
    5        0.885076
    6        0.899671
    7        1.044301
    8        1.057177
    9        8.181807
   10       12.565729
   11       12.608454
   12       12.856834
 
  0.1111111E+00  0.1111111E+00  0.0000000E+00  0.7716049E-03
    1      -14.508102
    2      -14.327011
    3       -3.026647
    4       -1.620250
    5       -1.483405
    6       -1.460336
    7       -0.528465
    8       -0.512311
    9        9.186907
   10       12.874674
   11       13.127195
   12       13.175863
 
  0.1666667E+00  0.1111111E+00  0.0000000E+00  0.1543210E-02
    1      -14.000278
    2      -13.825371
    3       -2.629159
    4       -2.591341
    5       -2.419539
    6       -1.273273
    7       -1.248258
    8       -1.051200
    9        9.825910
   10       11.609842
   11       11.919021
   12       13.345591
 
  0.2222222E+00  0.1111111E+00  0.0000000E+00  0.1543210E-02
    1      -13.352780
    2      -13.185792
    3       -3.952929
    4       -3.895125
    5       -1.919355
    6       -1.884546
    7       -1.653850
    8       -0.340513
    9       10.175254
   10       10.591712
   11       10.641732
   12       13.224552
 
  0.2777778E+00  0.1111111E+00  0.0000000E+00  0.1543210E-02
    1      -12.571116
    2      -12.413722
    3       -5.347009
    4       -5.271655
    5       -2.432322
    6       -2.391915
    7       -0.747783
    8        0.484461
    9        8.672702
   10        9.215129
   11       11.624847
   12       13.026611
 
  0.3333333E+00  0.1111111E+00  0.0000000E+00  0.1543210E-02
    1      -11.665687
    2      -11.519468
    3       -6.728967
    4       -6.638464
    5       -2.804311
    6       -2.760835
    7        0.259345
    8        1.359350
    9        7.233544
   10        7.869334
   11       12.689611
   12       12.887352
 
  0.3888889E+00  0.1111111E+00  0.0000000E+00  0.1543210E-02
    1      -10.665719
    2      -10.536329
    3       -8.023568
    4       -7.923889
    5       -3.030230
    6       -2.984967
    7        1.259992
    8        2.098748
    9        6.092887
   10        6.694268
   11       12.713062
   12       13.002203
 
  0.4444444E+00  0.1111111E+00  0.0000000E+00  0.1543210E-02
    1       -9.893153
    2       -9.824117
    3       -8.843240
    4       -8.791772
    5       -3.106435
    6       -3.060694
    7        1.832534
    8        2.333461
    9        5.678861
   10        6.103282
   11       12.674432
   12       12.974837
 
  0.5000000E+00  0.1111111E+00  0.0000000E+00  0.1543210E-02
    1      -10.668968
    2      -10.539397
    3       -8.019533
    4       -7.919766
    5       -3.031580
    6       -2.986479
    7        1.257810
    8        2.097523
    9        6.093426
   10        6.696830
   11       12.714700
   12       13.003729
 
 -0.4444444E+00  0.1111111E+00  0.0000000E+00  0.1543210E-02
    1      -11.668551
    2      -11.522453
    3       -6.724415
    4       -6.633823
    5       -2.806934
    6       -2.763400
    7        0.256840
    8        1.357275
    9        7.234390
   10        7.872177
   11       12.688046
   12       12.888488
 
 -0.3888889E+00  0.1111111E+00  0.0000000E+00  0.1543210E-02
    1      -12.573703
    2      -12.416302
    3       -5.342446
    4       -5.267023
    5       -2.435775
    6       -2.395301
    7       -0.750167
    8        0.482285
    9        8.672756
   10        9.217648
   11       11.621385
   12       13.031240
 
 -0.3333333E+00  0.1111111E+00  0.0000000E+00  0.1543210E-02
    1      -13.354938
    2      -13.187940
    3       -3.949208
    4       -3.891337
    5       -1.922609
    6       -1.887769
    7       -1.655953
    8       -0.342502
    9       10.173754
   10       10.593653
   11       10.638834
   12       13.230864
 
 -0.2777778E+00  0.1111111E+00  0.0000000E+00  0.1543210E-02
    1      -14.002001
    2      -13.827085
    3       -2.628403
    4       -2.590491
    5       -2.421281
    6       -1.273943
    7       -1.248964
    8       -1.052875
    9        9.823582
   10       11.606449
   11       11.920215
   12       13.352477
 
 -0.2222222E+00  0.1111111E+00  0.0000000E+00  0.1543210E-02
    1      -14.509424
    2      -14.328303
    3       -3.027984
    4       -1.621548
    5       -1.489135
    6       -1.465641
    7       -0.523091
    8       -0.506793
    9        9.185137
   10       12.870281
   11       13.122164
   12       13.201802
 
 -0.1666667E+00  0.1111111E+00  0.0000000E+00  0.1543210E-02
    1      -14.873815
    2      -14.688173
    3       -3.466395
    4       -2.034711
    5       -0.594808
    6       -0.568858
    7        0.186373
    8        0.204184
    9        8.728033
   10       12.774007
   11       12.868808
   12       13.895298
 
 -0.1111111E+00  0.1111111E+00  0.0000000E+00  0.7716049E-03
    1      -15.093115
    2      -14.904749
    3       -3.731124
    4       -2.285020
    5        0.060953
    6        0.086006
    7        0.626738
    8        0.644929
    9        8.454416
   10       12.594443
   11       12.669511
   12       13.741998
 
  0.1666667E+00  0.1666667E+00  0.0000000E+00  0.7716049E-03
    1      -13.424451
    2      -13.256543
    3       -3.547635
    4       -3.515561
    5       -2.192022
    6       -2.168625
    7       -1.736450
    8       -0.415510
    9       10.418470
   10       10.554943
   11       10.746572
   12       14.137731
 
  0.2222222E+00  0.1666667E+00  0.0000000E+00  0.1543210E-02
    1      -12.712619
    2      -12.553331
    3       -4.669209
    4       -4.618664
    5       -2.961817
    6       -2.925919
    7       -0.903274
    8        0.350544
    9        9.102273
   10        9.494233
   11       11.456619
   12       14.340603
 
  0.2777778E+00  0.1666667E+00  0.0000000E+00  0.1543210E-02
    1      -11.872747
    2      -11.723849
    3       -5.935267
    4       -5.861446
    5       -3.501557
    6       -3.453564
    7        0.055340
    8        1.209621
    9        7.737281
   10        8.226658
   11       12.519620
   12       14.199696
 
  0.3333333E+00  0.1666667E+00  0.0000000E+00  0.1543210E-02
    1      -10.921359
    2      -10.785578
    3       -7.218323
    4       -7.128041
    5       -3.842251
    6       -3.788179
    7        1.081505
    8        2.064408
    9        6.474849
   10        7.017218
   11       13.704207
   12       14.062586
 
  0.3888889E+00  0.1666667E+00  0.0000000E+00  0.1543210E-02
    1       -9.936371
    2       -9.828877
    3       -8.364522
    4       -8.277827
    5       -4.009046
    6       -3.952416
    7        1.982088
    8        2.613589
    9        5.676323
   10        6.054694
   11       13.950753
   12       14.334718
 
  0.4444444E+00  0.1666667E+00  0.0000000E+00  0.1543210E-02
    1       -9.940687
    2       -9.832938
    3       -8.359913
    4       -8.272829
    5       -4.009911
    6       -3.953253
    7        1.979750
    8        2.612904
    9        5.675519
   10        6.058074
   11       13.951720
   12       14.335465
 
  0.5000000E+00  0.1666667E+00  0.0000000E+00  0.1543210E-02
    1      -10.926097
    2      -10.790297
    3       -7.211948
    4       -7.121528
    5       -3.844686
    6       -3.790542
    7        1.077868
    8        2.061631
    9        6.475168
   10        7.021750
   11       13.698243
   12       14.064586
 
 -0.4444444E+00  0.1666667E+00  0.0000000E+00  0.1543210E-02
    1      -11.876923
    2      -11.728028
    3       -5.928926
    4       -5.854954
    5       -3.504884
    6       -3.456685
    7        0.051669
    8        1.206303
    9        7.736706
   10        8.230936
   11       12.513912
   12       14.204549
 
 -0.3888889E+00  0.1666667E+00  0.0000000E+00  0.1543210E-02
    1      -12.716179
    2      -12.556880
    3       -4.664850
    4       -4.614071
    5       -2.964076
    6       -2.928077
    7       -0.906626
    8        0.347364
    9        9.099503
   10        9.497780
   11       11.451859
   12       14.353181
 
 -0.3333333E+00  0.1666667E+00  0.0000000E+00  0.1543210E-02
    1      -13.427358
    2      -13.259441
    3       -3.548976
    4       -3.516141
    5       -2.189651
    6       -2.165804
    7       -1.739322
    8       -0.418287
    9       10.413326
   10       10.551075
   11       10.748689
   12       14.156086
 
 -0.2777778E+00  0.1666667E+00  0.0000000E+00  0.1543210E-02
    1      -14.002534
    2      -13.827618
    3       -2.636930
    4       -2.598472
    5       -2.421840
    6       -1.264693
    7       -1.239346
    8       -1.053445
    9        9.822900
   10       11.603348
   11       11.918824
   12       13.371961
 
 -0.2222222E+00  0.1666667E+00  0.0000000E+00  0.1543210E-02
    1      -14.437078
    2      -14.256847
    3       -2.941426
    4       -1.837037
    5       -1.795316
    6       -1.540389
    7       -0.435191
    8       -0.410504
    9        9.274143
   10       12.626838
   11       12.704750
   12       12.852719
 
 -0.1666667E+00  0.1666667E+00  0.0000000E+00  0.7716049E-03
    1      -14.728079
    2      -14.544207
    3       -3.290852
    4       -1.869257
    5       -1.121260
    6       -1.083005
    7        0.066134
    8        0.088727
    9        8.909137
   10       12.511116
   11       12.634432
   12       13.419542
 
  0.2222222E+00  0.2222222E+00  0.0000000E+00  0.7716049E-03
    1      -11.942316
    2      -11.792564
    3       -5.466113
    4       -5.425142
    5       -3.926924
    6       -3.895945
    7       -0.014050
    8        1.157455
    9        7.953053
   10        8.345670
   11       12.435104
   12       15.457238
 
  0.2777778E+00  0.2222222E+00  0.0000000E+00  0.1543210E-02
    1      -11.053330
    2      -10.915302
    3       -6.477658
    4       -6.414523
    5       -4.593757
    6       -4.546988
    7        0.981505
    8        2.032282
    9        6.767054
   10        7.206236
   11       13.558027
   12       15.524079
 
  0.3333333E+00  0.2222222E+00  0.0000000E+00  0.1543210E-02
    1      -10.078455
    2       -9.956650
    3       -7.599602
    4       -7.516069
    5       -4.942590
    6       -4.882743
    7        1.997779
    8        2.828331
    9        5.725129
   10        6.148374
   11       14.777716
   12       15.395435
 
  0.3888889E+00  0.2222222E+00  0.0000000E+00  0.1543210E-02
    1       -9.329233
    2       -9.264205
    3       -8.357717
    4       -8.319610
    5       -5.050030
    6       -4.986612
    7        2.625288
    8        3.111569
    9        5.409931
   10        5.453338
   11       15.318942
   12       15.896868
 
  0.4444444E+00  0.2222222E+00  0.0000000E+00  0.1543210E-02
    1      -10.084942
    2       -9.963082
    3       -7.592032
    4       -7.508157
    5       -4.944153
    6       -4.884219
    7        1.993383
    8        2.825458
    9        5.723627
   10        6.155011
   11       14.767828
   12       15.396377
 
  0.5000000E+00  0.2222222E+00  0.0000000E+00  0.1543210E-02
    1      -11.059329
    2      -10.921290
    3       -6.470566
    4       -6.407072
    5       -4.595509
    6       -4.548546
    7        0.976641
    8        2.027859
    9        6.765275
   10        7.212543
   11       13.549676
   12       15.527878
 
 -0.4444444E+00  0.2222222E+00  0.0000000E+00  0.1543210E-02
    1      -11.947501
    2      -11.797742
    3       -5.463717
    4       -5.421766
    5       -3.925378
    6       -3.893826
    7       -0.018689
    8        1.152969
    9        7.949088
   10        8.350639
   11       12.428175
   12       15.478168
 
 -0.3888889E+00  0.2222222E+00  0.0000000E+00  0.1543210E-02
    1      -12.716935
    2      -12.557761
    3       -4.672977
    4       -4.621600
    5       -2.954864
    6       -2.918439
    7       -0.907380
    8        0.346494
    9        9.096388
   10        9.496524
   11       11.450952
   12       14.375613
 
 -0.3333333E+00  0.2222222E+00  0.0000000E+00  0.1543210E-02
    1      -13.356223
    2      -13.189223
    3       -3.961035
    4       -3.902822
    5       -1.908157
    6       -1.873189
    7       -1.657270
    8       -0.343907
    9       10.168139
   10       10.590699
   11       10.637258
   12       13.257698
 
 -0.2777778E+00  0.2222222E+00  0.0000000E+00  0.1543210E-02
    1      -13.858516
    2      -13.685383
    3       -3.236856
    4       -3.179119
    5       -2.251825
    6       -1.037358
    7       -1.008010
    8       -0.895990
    9        9.998867
   10       11.151285
   11       11.571694
   12       12.511348
 
 -0.2222222E+00  0.2222222E+00  0.0000000E+00  0.7716049E-03
    1      -14.219654
    2      -14.042102
    3       -2.681692
    4       -2.503307
    5       -2.450961
    6       -1.297255
    7       -0.529005
    8       -0.503004
    9        9.544119
   10       12.002761
   11       12.319078
   12       12.478531
 
  0.2777778E+00  0.2777778E+00  0.0000000E+00  0.7716049E-03
    1      -10.133918
    2      -10.009575
    3       -7.102499
    4       -7.052713
    5       -5.465206
    6       -5.430174
    7        1.992187
    8        2.901606
    9        5.760642
   10        6.202395
   11       14.698474
   12       15.467082
 
  0.3333333E+00  0.2777778E+00  0.0000000E+00  0.1543210E-02
    1       -9.187907
    2       -9.088626
    3       -7.920402
    4       -7.859814
    5       -5.902929
    6       -5.854945
    7        2.964302
    8        3.607161
    9        4.926089
   10        5.302957
   11       15.293183
   12       15.464468
 
  0.3888889E+00  0.2777778E+00  0.0000000E+00  0.1543210E-02
    1       -9.195525
    2       -9.095972
    3       -7.913421
    4       -7.851640
    5       -5.903052
    6       -5.854932
    7        2.960005
    8        3.605377
    9        4.922525
   10        5.310711
   11       15.304726
   12       15.452116
 
  0.4444444E+00  0.2777778E+00  0.0000000E+00  0.1543210E-02
    1      -10.141934
    2      -10.017620
    3       -7.097043
    4       -7.046082
    5       -5.463305
    6       -5.427605
    7        1.986500
    8        2.895959
    9        5.758396
   10        6.210159
   11       14.686931
   12       15.478614
 
  0.5000000E+00  0.2777778E+00  0.0000000E+00  0.1543210E-02
    1      -11.060383
    2      -10.922334
    3       -6.477620
    4       -6.413604
    5       -4.587159
    6       -4.539772
    7        0.975788
    8        2.026287
    9        6.763245
   10        7.211640
   11       13.548586
   12       15.562217
 
 -0.4444444E+00  0.2777778E+00  0.0000000E+00  0.1543210E-02
    1      -11.878711
    2      -11.729820
    3       -5.939496
    4       -5.865377
    5       -3.491139
    6       -3.442912
    7        0.050020
    8        1.204062
    9        7.732002
   10        8.228358
   11       12.511951
   12       14.237703
 
 -0.3888889E+00  0.2777778E+00  0.0000000E+00  0.1543210E-02
    1      -12.575975
    2      -12.418579
    3       -5.354474
    4       -5.278860
    5       -2.419168
    6       -2.378694
    7       -0.752399
    8        0.479678
    9        8.666041
   10        9.213163
   11       11.618867
   12       13.062358
 
 -0.3333333E+00  0.2777778E+00  0.0000000E+00  0.1543210E-02
    1      -13.142191
    2      -12.977740
    3       -4.693593
    4       -4.620848
    5       -1.562686
    6       -1.530452
    7       -1.410897
    8       -0.121401
    9        9.572929
   10       10.131837
   11       10.893384
   12       12.283406
 
 -0.2777778E+00  0.2777778E+00  0.0000000E+00  0.7716049E-03
    1      -13.570989
    2      -13.401303
    3       -3.970675
    4       -3.903800
    5       -1.913356
    6       -1.082768
    7       -1.054682
    8       -0.583326
    9       10.353380
   10       10.426770
   11       10.942433
   12       12.080206
 
  0.3333333E+00  0.3333333E+00  0.0000000E+00  0.7716049E-03
    1       -8.425516
    2       -8.366420
    3       -8.364469
    4       -8.307820
    5       -6.320244
    6       -6.319635
    7        3.748701
    8        4.191282
    9        4.197695
   10        4.707459
   11       15.151904
   12       15.171652
 
  0.3888889E+00  0.3333333E+00  0.0000000E+00  0.1543210E-02
    1       -9.198300
    2       -9.099382
    3       -7.915864
    4       -7.854445
    5       -5.897204
    6       -5.848524
    7        2.959552
    8        3.598343
    9        4.925584
   10        5.311235
   11       15.309206
   12       15.449186
 
  0.4444444E+00  0.3333333E+00  0.0000000E+00  0.1543210E-02
    1      -10.087770
    2       -9.966137
    3       -7.599555
    4       -7.515651
    5       -4.932634
    6       -4.872519
    7        1.991822
    8        2.819918
    9        5.722904
   10        6.153579
   11       14.765998
   12       15.432801
 
  0.5000000E+00  0.3333333E+00  0.0000000E+00  0.1543210E-02
    1      -10.929299
    2      -10.793597
    3       -7.221692
    4       -7.131193
    5       -3.829627
    6       -3.775462
    7        1.075374
    8        2.056791
    9        6.471325
   10        7.018104
   11       13.697066
   12       14.099095
 
 -0.4444444E+00  0.3333333E+00  0.0000000E+00  0.1543210E-02
    1      -11.672245
    2      -11.526060
    3       -6.735183
    4       -6.644519
    5       -2.789612
    6       -2.746121
    7        0.253662
    8        1.352753
    9        7.228351
   10        7.866542
   11       12.693606
   12       12.916881
 
 -0.3888889E+00  0.3333333E+00  0.0000000E+00  0.1543210E-02
    1      -12.295204
    2      -12.141234
    3       -6.138322
    4       -6.051078
    5       -1.977830
    6       -1.943843
    7       -0.445732
    8        0.740394
    9        8.014976
   10        8.689419
   11       11.871289
   12       12.107921
 
 -0.3333333E+00  0.3333333E+00  0.0000000E+00  0.7716049E-03
    1      -12.787330
    2      -12.627377
    3       -5.446572
    4       -5.364966
    5       -1.548027
    6       -1.518126
    7       -1.004600
    8        0.243515
    9        8.815895
   10        9.464216
   11       11.304253
   12       11.860321
 
  0.3888889E+00  0.3888889E+00  0.0000000E+00  0.7716049E-03
    1       -9.338696
    2       -9.275164
    3       -8.357444
    4       -8.320259
    5       -5.038473
    6       -4.974915
    7        2.623668
    8        3.098866
    9        5.414212
   10        5.452162
   11       15.354628
   12       15.803095
 
  0.4444444E+00  0.3888889E+00  0.0000000E+00  0.1543210E-02
    1       -9.947047
    2       -9.839971
    3       -8.365704
    4       -8.279215
    5       -3.994955
    6       -3.938303
    7        1.977493
    8        2.602151
    9        5.676525
   10        6.053273
   11       13.988123
   12       14.372160
 
  0.5000000E+00  0.3888889E+00  0.0000000E+00  0.1543210E-02
    1      -10.674495
    2      -10.545316
    3       -8.027817
    4       -7.928154
    5       -3.014325
    6       -2.969080
    7        1.254186
    8        2.089194
    9        6.090766
   10        6.690124
   11       12.749364
   12       13.038401
 
 -0.4444444E+00  0.3888889E+00  0.0000000E+00  0.1543210E-02
    1      -11.332710
    2      -11.191838
    3       -7.515372
    4       -7.415540
    5       -2.263550
    6       -2.228415
    7        0.579226
    8        1.576712
    9        6.646808
   10        7.357215
   11       11.904541
   12       12.151287
 
 -0.3888889E+00  0.3888889E+00  0.0000000E+00  0.7716049E-03
    1      -11.878289
    2      -11.729592
    3       -6.875238
    4       -6.780280
    5       -1.896114
    6       -1.865183
    7        0.003458
    8        1.114288
    9        7.308265
   10        8.039904
   11       11.642018
   12       11.860354
 
  0.4444444E+00  0.4444444E+00  0.0000000E+00  0.7716049E-03
    1       -9.903631
    2       -9.836150
    3       -8.844992
    4       -8.794622
    5       -3.089415
    6       -3.043948
    7        1.830104
    8        2.319582
    9        5.681182
   10        6.095295
   11       12.710412
   12       13.011077
 
  0.5000000E+00  0.4444444E+00  0.0000000E+00  0.1543210E-02
    1      -10.331512
    2      -10.220011
    3       -8.711239
    4       -8.617803
    5       -2.408840
    6       -2.373161
    7        1.457353
    8        2.082250
    9        5.808096
   10        6.375961
   11       11.828129
   12       12.093175
 
 -0.4444444E+00  0.4444444E+00  0.0000000E+00  0.7716049E-03
    1      -10.872780
    2      -10.740941
    3       -8.196839
    4       -8.093726
    5       -2.110549
    6       -2.079030
    7        0.999025
    8        1.835867
    9        6.139512
   10        6.826159
   11       11.533322
   12       11.785028
 
  0.5000000E+00  0.5000000E+00  0.0000000E+00  0.3858025E-03
    1      -10.092304
    2      -10.023483
    3       -9.028922
    4       -8.976133
    5       -2.182809
    6       -2.151293
    7        1.562832
    8        2.056500
    9        5.711666
   10        6.242316
   11       11.494095
   12       11.752594
 