  32  32   0   0
  0.6647258E+01  0.4934311E-09  0.4934311E-09  0.1008861E-08  0.5000000E-15
  1.000000000000000E-004
  CAR 
 graphite                                
     19.06318611    -14.37048587  301      7.60475483      1.00000000
    -14.370  0.0000E+00  0.0000E+00
    -14.259  0.0000E+00  0.0000E+00
    -14.148  0.0000E+00  0.0000E+00
    -14.036  0.0000E+00  0.0000E+00
    -13.925  0.0000E+00  0.0000E+00
    -13.813  0.0000E+00  0.0000E+00
    -13.702  0.0000E+00  0.0000E+00
    -13.590  0.0000E+00  0.0000E+00
    -13.479  0.0000E+00  0.0000E+00
    -13.367  0.7588E-14  0.8457E-15
    -13.256  0.2822E-09  0.3145E-10
    -13.145  0.9753E-06  0.1087E-06
    -13.033  0.3644E-03  0.4071E-04
    -12.922  0.2035E-01  0.2309E-02
    -12.810  0.2382E+00  0.2885E-01
    -12.699  0.7066E+00  0.1076E+00
    -12.587  0.1144E+01  0.2351E+00
    -12.476  0.1507E+01  0.4030E+00
    -12.364  0.1476E+01  0.5675E+00
    -12.253  0.2144E+01  0.8064E+00
    -12.142  0.2121E+01  0.1043E+01
    -12.030  0.2235E+01  0.1292E+01
    -11.919  0.2163E+01  0.1533E+01
    -11.807  0.3207E+01  0.1890E+01
    -11.696  0.2996E+01  0.2224E+01
    -11.584  0.2672E+01  0.2522E+01
    -11.473  0.2919E+01  0.2847E+01
    -11.361  0.3915E+01  0.3284E+01
    -11.250  0.3457E+01  0.3669E+01
    -11.139  0.4281E+01  0.4146E+01
    -11.027  0.4220E+01  0.4616E+01
    -10.916  0.3743E+01  0.5034E+01
    -10.804  0.4505E+01  0.5536E+01
    -10.693  0.5853E+01  0.6188E+01
    -10.581  0.4849E+01  0.6728E+01
    -10.470  0.5346E+01  0.7324E+01
    -10.358  0.4956E+01  0.7876E+01
    -10.247  0.4283E+01  0.8354E+01
    -10.136  0.4335E+01  0.8837E+01
    -10.024  0.5736E+01  0.9476E+01
     -9.913  0.5427E+01  0.1008E+02
     -9.801  0.4958E+01  0.1063E+02
     -9.690  0.5134E+01  0.1121E+02
     -9.578  0.5285E+01  0.1179E+02
     -9.467  0.4696E+01  0.1232E+02
     -9.355  0.4342E+01  0.1280E+02
     -9.244  0.4454E+01  0.1330E+02
     -9.133  0.5767E+01  0.1394E+02
     -9.021  0.6063E+01  0.1462E+02
     -8.910  0.5600E+01  0.1524E+02
     -8.798  0.5145E+01  0.1581E+02
     -8.687  0.3976E+01  0.1626E+02
     -8.575  0.4703E+01  0.1678E+02
     -8.464  0.5503E+01  0.1739E+02
     -8.352  0.4537E+01  0.1790E+02
     -8.241  0.6105E+01  0.1858E+02
     -8.130  0.5936E+01  0.1924E+02
     -8.018  0.4749E+01  0.1977E+02
     -7.907  0.6172E+01  0.2046E+02
     -7.795  0.4721E+01  0.2099E+02
     -7.684  0.4771E+01  0.2152E+02
     -7.572  0.5836E+01  0.2217E+02
     -7.461  0.5125E+01  0.2274E+02
     -7.349  0.5351E+01  0.2333E+02
     -7.238  0.5987E+01  0.2400E+02
     -7.127  0.6304E+01  0.2470E+02
     -7.015  0.6254E+01  0.2540E+02
     -6.904  0.6204E+01  0.2609E+02
     -6.792  0.5069E+01  0.2666E+02
     -6.681  0.6116E+01  0.2734E+02
     -6.569  0.5004E+01  0.2790E+02
     -6.458  0.6351E+01  0.2860E+02
     -6.346  0.5715E+01  0.2924E+02
     -6.235  0.3680E+01  0.2965E+02
     -6.124  0.3951E+01  0.3009E+02
     -6.012  0.4161E+01  0.3056E+02
     -5.901  0.3445E+01  0.3094E+02
     -5.789  0.2464E+01  0.3121E+02
     -5.678  0.1873E+01  0.3142E+02
     -5.566  0.3905E+01  0.3186E+02
     -5.455  0.4623E+01  0.3237E+02
     -5.343  0.4471E+01  0.3287E+02
     -5.232  0.5495E+01  0.3348E+02
     -5.121  0.5829E+01  0.3413E+02
     -5.009  0.6192E+01  0.3482E+02
     -4.898  0.5148E+01  0.3540E+02
     -4.786  0.5501E+01  0.3601E+02
     -4.675  0.7252E+01  0.3682E+02
     -4.563  0.7737E+01  0.3768E+02
     -4.452  0.5906E+01  0.3834E+02
     -4.340  0.5883E+01  0.3899E+02
     -4.229  0.5966E+01  0.3966E+02
     -4.117  0.5931E+01  0.4032E+02
     -4.006  0.5274E+01  0.4091E+02
     -3.895  0.4799E+01  0.4144E+02
     -3.783  0.5101E+01  0.4201E+02
     -3.672  0.4864E+01  0.4255E+02
     -3.560  0.4919E+01  0.4310E+02
     -3.449  0.5395E+01  0.4370E+02
     -3.337  0.4469E+01  0.4420E+02
     -3.226  0.4240E+01  0.4467E+02
     -3.114  0.4161E+01  0.4514E+02
     -3.003  0.4018E+01  0.4559E+02
     -2.892  0.5316E+01  0.4618E+02
     -2.780  0.5848E+01  0.4683E+02
     -2.669  0.6642E+01  0.4757E+02
     -2.557  0.5437E+01  0.4818E+02
     -2.446  0.4836E+01  0.4871E+02
     -2.334  0.6107E+01  0.4940E+02
     -2.223  0.6391E+01  0.5011E+02
     -2.111  0.8007E+01  0.5100E+02
     -2.000  0.7558E+01  0.5184E+02
     -1.889  0.5866E+01  0.5250E+02
     -1.777  0.6689E+01  0.5324E+02
     -1.666  0.6969E+01  0.5402E+02
     -1.554  0.7326E+01  0.5483E+02
     -1.443  0.7469E+01  0.5567E+02
     -1.331  0.8047E+01  0.5656E+02
     -1.220  0.7507E+01  0.5740E+02
     -1.108  0.6341E+01  0.5811E+02
     -0.997  0.7238E+01  0.5891E+02
     -0.886  0.8622E+01  0.5987E+02
     -0.774  0.9420E+01  0.6092E+02
     -0.663  0.8907E+01  0.6192E+02
     -0.551  0.7517E+01  0.6275E+02
     -0.440  0.6559E+01  0.6349E+02
     -0.328  0.7804E+01  0.6436E+02
     -0.217  0.1042E+02  0.6552E+02
     -0.105  0.1139E+02  0.6679E+02
      0.006  0.9364E+01  0.6783E+02
      0.117  0.8410E+01  0.6877E+02
      0.229  0.7342E+01  0.6958E+02
      0.340  0.9972E+01  0.7070E+02
      0.452  0.9265E+01  0.7173E+02
      0.563  0.1014E+02  0.7286E+02
      0.675  0.1258E+02  0.7426E+02
      0.786  0.1376E+02  0.7579E+02
      0.898  0.1263E+02  0.7720E+02
      1.009  0.1244E+02  0.7859E+02
      1.120  0.1076E+02  0.7979E+02
      1.232  0.1232E+02  0.8116E+02
      1.343  0.1721E+02  0.8308E+02
      1.455  0.1439E+02  0.8468E+02
      1.566  0.1152E+02  0.8596E+02
      1.678  0.1199E+02  0.8730E+02
      1.789  0.1336E+02  0.8879E+02
      1.901  0.1160E+02  0.9008E+02
      2.012  0.9338E+01  0.9112E+02
      2.123  0.1220E+02  0.9248E+02
      2.235  0.1077E+02  0.9368E+02
      2.346  0.8932E+01  0.9468E+02
      2.458  0.8076E+01  0.9558E+02
      2.569  0.7884E+01  0.9646E+02
      2.681  0.9996E+01  0.9757E+02
      2.792  0.9510E+01  0.9863E+02
      2.904  0.1094E+02  0.9985E+02
      3.015  0.9968E+01  0.1010E+03
      3.126  0.8923E+01  0.1020E+03
      3.238  0.8540E+01  0.1029E+03
      3.349  0.8217E+01  0.1038E+03
      3.461  0.7876E+01  0.1047E+03
      3.572  0.7681E+01  0.1056E+03
      3.684  0.1065E+02  0.1067E+03
      3.795  0.1184E+02  0.1081E+03
      3.907  0.9322E+01  0.1091E+03
      4.018  0.5848E+01  0.1098E+03
      4.129  0.6980E+01  0.1105E+03
      4.241  0.1005E+02  0.1117E+03
      4.352  0.1050E+02  0.1128E+03
      4.464  0.8733E+01  0.1138E+03
      4.575  0.7471E+01  0.1146E+03
      4.687  0.6003E+01  0.1153E+03
      4.798  0.4334E+01  0.1158E+03
      4.910  0.3306E+01  0.1161E+03
      5.021  0.5070E+01  0.1167E+03
      5.132  0.6499E+01  0.1174E+03
      5.244  0.5087E+01  0.1180E+03
      5.355  0.4959E+01  0.1186E+03
      5.467  0.4300E+01  0.1190E+03
      5.578  0.4323E+01  0.1195E+03
      5.690  0.5379E+01  0.1201E+03
      5.801  0.5458E+01  0.1207E+03
      5.913  0.7274E+01  0.1215E+03
      6.024  0.7713E+01  0.1224E+03
      6.135  0.7259E+01  0.1232E+03
      6.247  0.7027E+01  0.1240E+03
      6.358  0.5553E+01  0.1246E+03
      6.470  0.3373E+01  0.1250E+03
      6.581  0.3452E+01  0.1254E+03
      6.693  0.4369E+01  0.1259E+03
      6.804  0.4763E+01  0.1264E+03
      6.916  0.3926E+01  0.1268E+03
      7.027  0.2671E+01  0.1271E+03
      7.139  0.1521E+01  0.1273E+03
      7.250  0.2794E+01  0.1276E+03
      7.361  0.1926E+01  0.1278E+03
      7.473  0.6984E+00  0.1279E+03
      7.584  0.7613E+00  0.1280E+03
      7.696  0.8918E+00  0.1281E+03
      7.807  0.3056E+00  0.1281E+03
      7.919  0.5930E+00  0.1282E+03
      8.030  0.1848E+01  0.1284E+03
      8.142  0.1878E+01  0.1286E+03
      8.253  0.1108E+01  0.1287E+03
      8.364  0.4316E+00  0.1288E+03
      8.476  0.9827E+00  0.1289E+03
      8.587  0.7974E+00  0.1290E+03
      8.699  0.7618E+00  0.1290E+03
      8.810  0.2751E+01  0.1294E+03
      8.922  0.3349E+01  0.1297E+03
      9.033  0.3280E+01  0.1301E+03
      9.145  0.3751E+01  0.1305E+03
      9.256  0.4678E+01  0.1310E+03
      9.367  0.6515E+01  0.1318E+03
      9.479  0.6054E+01  0.1324E+03
      9.590  0.4730E+01  0.1330E+03
      9.702  0.6899E+01  0.1337E+03
      9.813  0.8156E+01  0.1346E+03
      9.925  0.6194E+01  0.1353E+03
     10.036  0.5309E+01  0.1359E+03
     10.148  0.4910E+01  0.1365E+03
     10.259  0.4876E+01  0.1370E+03
     10.370  0.7235E+01  0.1378E+03
     10.482  0.5649E+01  0.1384E+03
     10.593  0.4756E+01  0.1390E+03
     10.705  0.4095E+01  0.1394E+03
     10.816  0.4755E+01  0.1400E+03
     10.928  0.4979E+01  0.1405E+03
     11.039  0.5204E+01  0.1411E+03
     11.151  0.4417E+01  0.1416E+03
     11.262  0.3997E+01  0.1420E+03
     11.373  0.3887E+01  0.1425E+03
     11.485  0.3976E+01  0.1429E+03
     11.596  0.4832E+01  0.1435E+03
     11.708  0.5061E+01  0.1440E+03
     11.819  0.3240E+01  0.1444E+03
     11.931  0.2157E+01  0.1446E+03
     12.042  0.2523E+01  0.1449E+03
     12.154  0.4085E+01  0.1454E+03
     12.265  0.3580E+01  0.1458E+03
     12.376  0.2659E+01  0.1460E+03
     12.488  0.4290E+01  0.1465E+03
     12.599  0.3808E+01  0.1470E+03
     12.711  0.3508E+01  0.1473E+03
     12.822  0.3210E+01  0.1477E+03
     12.934  0.3307E+01  0.1481E+03
     13.045  0.2667E+01  0.1484E+03
     13.157  0.1706E+01  0.1486E+03
     13.268  0.2335E+01  0.1488E+03
     13.379  0.2652E+01  0.1491E+03
     13.491  0.3933E+01  0.1495E+03
     13.602  0.4395E+01  0.1500E+03
     13.714  0.2902E+01  0.1504E+03
     13.825  0.1637E+01  0.1505E+03
     13.937  0.3477E+01  0.1509E+03
     14.048  0.4142E+01  0.1514E+03
     14.160  0.3575E+01  0.1518E+03
     14.271  0.4606E+01  0.1523E+03
     14.382  0.5958E+01  0.1530E+03
     14.494  0.5281E+01  0.1536E+03
     14.605  0.5452E+01  0.1542E+03
     14.717  0.6177E+01  0.1549E+03
     14.828  0.4708E+01  0.1554E+03
     14.940  0.5574E+01  0.1560E+03
     15.051  0.6964E+01  0.1568E+03
     15.163  0.7171E+01  0.1576E+03
     15.274  0.8039E+01  0.1585E+03
     15.385  0.8140E+01  0.1594E+03
     15.497  0.7618E+01  0.1602E+03
     15.608  0.7689E+01  0.1611E+03
     15.720  0.1043E+02  0.1622E+03
     15.831  0.1139E+02  0.1635E+03
     15.943  0.9358E+01  0.1646E+03
     16.054  0.6130E+01  0.1652E+03
     16.166  0.4277E+01  0.1657E+03
     16.277  0.5843E+01  0.1664E+03
     16.388  0.4553E+01  0.1669E+03
     16.500  0.2635E+01  0.1672E+03
     16.611  0.2297E+01  0.1674E+03
     16.723  0.7900E+00  0.1675E+03
     16.834  0.9064E+00  0.1676E+03
     16.946  0.1219E+01  0.1678E+03
     17.057  0.8008E+00  0.1678E+03
     17.169  0.5858E+00  0.1679E+03
     17.280  0.3402E+00  0.1679E+03
     17.392  0.1631E+00  0.1680E+03
     17.503  0.1389E+00  0.1680E+03
     17.614  0.1559E+00  0.1680E+03
     17.726  0.3038E-01  0.1680E+03
     17.837  0.7939E-03  0.1680E+03
     17.949  0.2289E-05  0.1680E+03
     18.060  0.6449E-09  0.1680E+03
     18.172  0.1669E-13  0.1680E+03
     18.283  0.0000E+00  0.1680E+03
     18.395  0.0000E+00  0.1680E+03
     18.506  0.0000E+00  0.1680E+03
     18.617  0.0000E+00  0.1680E+03
     18.729  0.0000E+00  0.1680E+03
     18.840  0.0000E+00  0.1680E+03
     18.952  0.0000E+00  0.1680E+03
     19.063  0.0000E+00  0.1680E+03
