       N       E                     dE             d eps       ncg     rms          rms(c)
DAV:   1     0.489719314822E+03    0.48972E+03   -0.74829E+04 27384   0.165E+03
DAV:   2    -0.263948393368E+03   -0.75367E+03   -0.72280E+03 34068   0.306E+02
DAV:   3    -0.302491968013E+03   -0.38544E+02   -0.38097E+02 33324   0.669E+01
DAV:   4    -0.303108335249E+03   -0.61637E+00   -0.61488E+00 32964   0.922E+00
DAV:   5    -0.303124239085E+03   -0.15904E-01   -0.15896E-01 33444   0.140E+00    0.220E+01
DAV:   6    -0.290578490628E+03    0.12546E+02   -0.11963E+01 31260   0.103E+01    0.115E+01
DAV:   7    -0.286661911646E+03    0.39166E+01   -0.11979E+01 30912   0.104E+01    0.170E+00
DAV:   8    -0.286688577856E+03   -0.26666E-01   -0.21054E-01 31932   0.149E+00    0.417E-01
DAV:   9    -0.286691387254E+03   -0.28094E-02   -0.48321E-03 33156   0.288E-01    0.728E-02
DAV:  10    -0.286691632019E+03   -0.24476E-03   -0.33693E-04 32568   0.613E-02    0.233E-02
DAV:  11    -0.286691638508E+03   -0.64890E-05   -0.73633E-05 31404   0.298E-02    0.274E-03
DAV:  12    -0.286691637735E+03    0.77286E-06   -0.12360E-06 23088   0.418E-03
   1 F= -.29045573E+03 E0= -.29045316E+03  d E =-.514540E-02
