  80  80   0   0
  0.8827842E+01  0.1130385E-08  0.7906682E-09  0.7901759E-09  0.5000000E-15
  1.000000000000000E-004
  CAR 
 diamond                                 
      9.39125275    -16.59991147  301     -5.74860041      1.00000000
    -16.600  0.0000E+00  0.0000E+00
    -16.513  0.0000E+00  0.0000E+00
    -16.427  0.0000E+00  0.0000E+00
    -16.340  0.0000E+00  0.0000E+00
    -16.253  0.0000E+00  0.0000E+00
    -16.167  0.0000E+00  0.0000E+00
    -16.080  0.0000E+00  0.0000E+00
    -15.993  0.0000E+00  0.0000E+00
    -15.907  0.0000E+00  0.0000E+00
    -15.820  0.0000E+00  0.0000E+00
    -15.734  0.0000E+00  0.0000E+00
    -15.647  0.0000E+00  0.0000E+00
    -15.560  0.0000E+00  0.0000E+00
    -15.474  0.0000E+00  0.0000E+00
    -15.387  0.0000E+00  0.0000E+00
    -15.300  0.0000E+00  0.0000E+00
    -15.214  0.0000E+00  0.0000E+00
    -15.127  0.0000E+00  0.0000E+00
    -15.040  0.0000E+00  0.0000E+00
    -14.954  0.0000E+00  0.0000E+00
    -14.867  0.0000E+00  0.0000E+00
    -14.781  0.0000E+00  0.0000E+00
    -14.694  0.0000E+00  0.0000E+00
    -14.607  0.0000E+00  0.0000E+00
    -14.521  0.3956E-01  0.1541E-02
    -14.434  0.7444E-01  0.6212E-02
    -14.347  0.1054E+00  0.1565E-01
    -14.261  0.2142E+00  0.2451E-01
    -14.174  0.1334E+00  0.4026E-01
    -14.087  0.3440E+00  0.6829E-01
    -14.001  0.2642E+00  0.1002E+00
    -13.914  0.7714E+00  0.1316E+00
    -13.828  0.0000E+00  0.1600E+00
    -13.741  0.0000E+00  0.1600E+00
    -13.654  0.0000E+00  0.1600E+00
    -13.568  0.0000E+00  0.1600E+00
    -13.481  0.0000E+00  0.1600E+00
    -13.394  0.0000E+00  0.1600E+00
    -13.308  0.0000E+00  0.1600E+00
    -13.221  0.0000E+00  0.1600E+00
    -13.134  0.0000E+00  0.1600E+00
    -13.048  0.0000E+00  0.1600E+00
    -12.961  0.0000E+00  0.1600E+00
    -12.875  0.0000E+00  0.1600E+00
    -12.788  0.0000E+00  0.1600E+00
    -12.701  0.0000E+00  0.1600E+00
    -12.615  0.0000E+00  0.1600E+00
    -12.528  0.0000E+00  0.1600E+00
    -12.441  0.0000E+00  0.1600E+00
    -12.355  0.0000E+00  0.1600E+00
    -12.268  0.0000E+00  0.1600E+00
    -12.181  0.0000E+00  0.1600E+00
    -12.095  0.0000E+00  0.1600E+00
    -12.008  0.0000E+00  0.1600E+00
    -11.922  0.0000E+00  0.1600E+00
    -11.835  0.0000E+00  0.1600E+00
    -11.748  0.0000E+00  0.1600E+00
    -11.662  0.0000E+00  0.1600E+00
    -11.575  0.0000E+00  0.1600E+00
    -11.488  0.0000E+00  0.1600E+00
    -11.402  0.0000E+00  0.1600E+00
    -11.315  0.0000E+00  0.1600E+00
    -11.228  0.0000E+00  0.1600E+00
    -11.142  0.0000E+00  0.1600E+00
    -11.055  0.0000E+00  0.1600E+00
    -10.968  0.0000E+00  0.1600E+00
    -10.882  0.0000E+00  0.1600E+00
    -10.795  0.0000E+00  0.1600E+00
    -10.709  0.0000E+00  0.1600E+00
    -10.622  0.0000E+00  0.1600E+00
    -10.535  0.0000E+00  0.1600E+00
    -10.449  0.0000E+00  0.1600E+00
    -10.362  0.0000E+00  0.1600E+00
    -10.275  0.0000E+00  0.1600E+00
    -10.189  0.0000E+00  0.1600E+00
    -10.102  0.0000E+00  0.1600E+00
    -10.015  0.0000E+00  0.1600E+00
     -9.929  0.0000E+00  0.1600E+00
     -9.842  0.0000E+00  0.1600E+00
     -9.756  0.0000E+00  0.1600E+00
     -9.669  0.0000E+00  0.1600E+00
     -9.582  0.0000E+00  0.1600E+00
     -9.496  0.0000E+00  0.1600E+00
     -9.409  0.0000E+00  0.1600E+00
     -9.322  0.0000E+00  0.1600E+00
     -9.236  0.0000E+00  0.1600E+00
     -9.149  0.0000E+00  0.1600E+00
     -9.062  0.0000E+00  0.1600E+00
     -8.976  0.0000E+00  0.1600E+00
     -8.889  0.0000E+00  0.1600E+00
     -8.803  0.0000E+00  0.1600E+00
     -8.716  0.0000E+00  0.1600E+00
     -8.629  0.0000E+00  0.1600E+00
     -8.543  0.0000E+00  0.1600E+00
     -8.456  0.0000E+00  0.1600E+00
     -8.369  0.0000E+00  0.1600E+00
     -8.283  0.0000E+00  0.1600E+00
     -8.196  0.0000E+00  0.1600E+00
     -8.109  0.0000E+00  0.1600E+00
     -8.023  0.0000E+00  0.1600E+00
     -7.936  0.0000E+00  0.1600E+00
     -7.850  0.0000E+00  0.1600E+00
     -7.763  0.0000E+00  0.1600E+00
     -7.676  0.0000E+00  0.1600E+00
     -7.590  0.0000E+00  0.1600E+00
     -7.503  0.0000E+00  0.1600E+00
     -7.416  0.2830E-01  0.1603E+00
     -7.330  0.1461E+00  0.1690E+00
     -7.243  0.2065E+00  0.1837E+00
     -7.156  0.2687E+00  0.2049E+00
     -7.070  0.2379E+00  0.2292E+00
     -6.983  0.2466E+00  0.2482E+00
     -6.897  0.2920E+00  0.2733E+00
     -6.810  0.2082E+00  0.2906E+00
     -6.723  0.1256E+00  0.3074E+00
     -6.637  0.2045E+00  0.3213E+00
     -6.550  0.2703E+00  0.3423E+00
     -6.463  0.3291E+00  0.3676E+00
     -6.377  0.2963E+00  0.3951E+00
     -6.290  0.4377E+00  0.4283E+00
     -6.203  0.4068E+00  0.4663E+00
     -6.117  0.4791E+00  0.5116E+00
     -6.030  0.6764E+00  0.5675E+00
     -5.944  0.4778E+00  0.6134E+00
     -5.857  0.8456E-01  0.6390E+00
     -5.770  0.0000E+00  0.6400E+00
     -5.684  0.0000E+00  0.6400E+00
     -5.597  0.0000E+00  0.6400E+00
     -5.510  0.0000E+00  0.6400E+00
     -5.424  0.0000E+00  0.6400E+00
     -5.337  0.0000E+00  0.6400E+00
     -5.250  0.0000E+00  0.6400E+00
     -5.164  0.0000E+00  0.6400E+00
     -5.077  0.0000E+00  0.6400E+00
     -4.991  0.0000E+00  0.6400E+00
     -4.904  0.0000E+00  0.6400E+00
     -4.817  0.0000E+00  0.6400E+00
     -4.731  0.0000E+00  0.6400E+00
     -4.644  0.0000E+00  0.6400E+00
     -4.557  0.0000E+00  0.6400E+00
     -4.471  0.0000E+00  0.6400E+00
     -4.384  0.0000E+00  0.6400E+00
     -4.297  0.0000E+00  0.6400E+00
     -4.211  0.0000E+00  0.6400E+00
     -4.124  0.0000E+00  0.6400E+00
     -4.038  0.0000E+00  0.6400E+00
     -3.951  0.0000E+00  0.6400E+00
     -3.864  0.0000E+00  0.6400E+00
     -3.778  0.0000E+00  0.6400E+00
     -3.691  0.0000E+00  0.6400E+00
     -3.604  0.0000E+00  0.6400E+00
     -3.518  0.0000E+00  0.6400E+00
     -3.431  0.0000E+00  0.6400E+00
     -3.344  0.0000E+00  0.6400E+00
     -3.258  0.0000E+00  0.6400E+00
     -3.171  0.0000E+00  0.6400E+00
     -3.085  0.0000E+00  0.6400E+00
     -2.998  0.0000E+00  0.6400E+00
     -2.911  0.0000E+00  0.6400E+00
     -2.825  0.0000E+00  0.6400E+00
     -2.738  0.0000E+00  0.6400E+00
     -2.651  0.0000E+00  0.6400E+00
     -2.565  0.0000E+00  0.6400E+00
     -2.478  0.0000E+00  0.6400E+00
     -2.391  0.0000E+00  0.6400E+00
     -2.305  0.0000E+00  0.6400E+00
     -2.218  0.0000E+00  0.6400E+00
     -2.131  0.0000E+00  0.6400E+00
     -2.045  0.0000E+00  0.6400E+00
     -1.958  0.0000E+00  0.6400E+00
     -1.872  0.0000E+00  0.6400E+00
     -1.785  0.0000E+00  0.6400E+00
     -1.698  0.0000E+00  0.6400E+00
     -1.612  0.0000E+00  0.6400E+00
     -1.525  0.0000E+00  0.6400E+00
     -1.438  0.0000E+00  0.6400E+00
     -1.352  0.0000E+00  0.6400E+00
     -1.265  0.0000E+00  0.6400E+00
     -1.178  0.0000E+00  0.6400E+00
     -1.092  0.0000E+00  0.6400E+00
     -1.005  0.0000E+00  0.6400E+00
     -0.919  0.0000E+00  0.6400E+00
     -0.832  0.0000E+00  0.6400E+00
     -0.745  0.0000E+00  0.6400E+00
     -0.659  0.0000E+00  0.6400E+00
     -0.572  0.0000E+00  0.6400E+00
     -0.485  0.0000E+00  0.6400E+00
     -0.399  0.0000E+00  0.6400E+00
     -0.312  0.0000E+00  0.6400E+00
     -0.225  0.0000E+00  0.6400E+00
     -0.139  0.0000E+00  0.6400E+00
     -0.052  0.0000E+00  0.6400E+00
      0.034  0.0000E+00  0.6400E+00
      0.121  0.0000E+00  0.6400E+00
      0.208  0.0000E+00  0.6400E+00
      0.294  0.0000E+00  0.6400E+00
      0.381  0.0000E+00  0.6400E+00
      0.468  0.0000E+00  0.6400E+00
      0.554  0.0000E+00  0.6400E+00
      0.641  0.0000E+00  0.6400E+00
      0.728  0.0000E+00  0.6400E+00
      0.814  0.0000E+00  0.6400E+00
      0.901  0.0000E+00  0.6400E+00
      0.987  0.0000E+00  0.6400E+00
      1.074  0.0000E+00  0.6400E+00
      1.161  0.0000E+00  0.6400E+00
      1.247  0.0000E+00  0.6400E+00
      1.334  0.0000E+00  0.6400E+00
      1.421  0.0000E+00  0.6400E+00
      1.507  0.0000E+00  0.6400E+00
      1.594  0.0000E+00  0.6400E+00
      1.681  0.0000E+00  0.6400E+00
      1.767  0.0000E+00  0.6400E+00
      1.854  0.8616E-05  0.6400E+00
      1.940  0.9404E-03  0.6400E+00
      2.027  0.3144E-02  0.6402E+00
      2.114  0.5904E-02  0.6406E+00
      2.200  0.7593E-02  0.6412E+00
      2.287  0.8657E-02  0.6419E+00
      2.374  0.9792E-02  0.6427E+00
      2.460  0.1120E-01  0.6436E+00
      2.547  0.1273E-01  0.6446E+00
      2.634  0.1505E-01  0.6458E+00
      2.720  0.1830E-01  0.6473E+00
      2.807  0.2290E-01  0.6490E+00
      2.893  0.2715E-01  0.6512E+00
      2.980  0.2832E-01  0.6537E+00
      3.067  0.2268E-01  0.6559E+00
      3.153  0.1934E-01  0.6577E+00
      3.240  0.2166E-01  0.6594E+00
      3.327  0.2689E-01  0.6615E+00
      3.413  0.5573E-01  0.6649E+00
      3.500  0.9374E-01  0.6712E+00
      3.587  0.6813E-01  0.6792E+00
      3.673  0.7498E-01  0.6845E+00
      3.760  0.1322E+00  0.6932E+00
      3.846  0.1025E+00  0.7028E+00
      3.933  0.1076E+00  0.7130E+00
      4.020  0.5605E-01  0.7197E+00
      4.106  0.7027E-01  0.7248E+00
      4.193  0.9288E-01  0.7322E+00
      4.280  0.8782E-01  0.7395E+00
      4.366  0.1146E+00  0.7492E+00
      4.453  0.8747E-01  0.7574E+00
      4.540  0.5806E-01  0.7636E+00
      4.626  0.1292E+00  0.7704E+00
      4.713  0.2429E+00  0.7865E+00
      4.799  0.1082E+00  0.8046E+00
      4.886  0.1286E+00  0.8148E+00
      4.973  0.1236E+00  0.8259E+00
      5.059  0.9760E-01  0.8351E+00
      5.146  0.1274E+00  0.8447E+00
      5.233  0.1181E+00  0.8566E+00
      5.319  0.1085E+00  0.8661E+00
      5.406  0.8135E-01  0.8748E+00
      5.493  0.1146E+00  0.8823E+00
      5.579  0.1265E+00  0.8930E+00
      5.666  0.1516E+00  0.9054E+00
      5.752  0.1105E+00  0.9149E+00
      5.839  0.1569E+00  0.9271E+00
      5.926  0.1127E+00  0.9391E+00
      6.012  0.1063E+00  0.9478E+00
      6.099  0.7228E-01  0.9578E+00
      6.186  0.1164E+00  0.9637E+00
      6.272  0.1306E+00  0.9769E+00
      6.359  0.7222E-01  0.9847E+00
      6.446  0.9339E-01  0.9922E+00
      6.532  0.1115E+00  0.1002E+01
      6.619  0.1316E+00  0.1012E+01
      6.705  0.1469E+00  0.1024E+01
      6.792  0.6690E-01  0.1033E+01
      6.879  0.1101E+00  0.1040E+01
      6.965  0.9541E-01  0.1049E+01
      7.052  0.6515E-01  0.1056E+01
      7.139  0.1436E-01  0.1059E+01
      7.225  0.1969E-02  0.1060E+01
      7.312  0.3452E-03  0.1060E+01
      7.399  0.0000E+00  0.1060E+01
      7.485  0.0000E+00  0.1060E+01
      7.572  0.0000E+00  0.1060E+01
      7.659  0.0000E+00  0.1060E+01
      7.745  0.0000E+00  0.1060E+01
      7.832  0.0000E+00  0.1060E+01
      7.918  0.0000E+00  0.1060E+01
      8.005  0.0000E+00  0.1060E+01
      8.092  0.0000E+00  0.1060E+01
      8.178  0.0000E+00  0.1060E+01
      8.265  0.0000E+00  0.1060E+01
      8.352  0.0000E+00  0.1060E+01
      8.438  0.0000E+00  0.1060E+01
      8.525  0.0000E+00  0.1060E+01
      8.612  0.0000E+00  0.1060E+01
      8.698  0.0000E+00  0.1060E+01
      8.785  0.0000E+00  0.1060E+01
      8.871  0.0000E+00  0.1060E+01
      8.958  0.0000E+00  0.1060E+01
      9.045  0.0000E+00  0.1060E+01
      9.131  0.0000E+00  0.1060E+01
      9.218  0.0000E+00  0.1060E+01
      9.305  0.0000E+00  0.1060E+01
      9.391  0.0000E+00  0.1060E+01
