  72  72   0   0
  0.9808713E+01  0.1130385E-08  0.7906682E-09  0.7901759E-09  0.5000000E-15
  1.000000000000000E-004
  CAR 
 diamond                                 
      8.64671558    -16.54700940  301     -1.72470120      1.00000000
    -16.547  0.0000E+00  0.0000E+00
    -16.463  0.0000E+00  0.0000E+00
    -16.379  0.0000E+00  0.0000E+00
    -16.295  0.0000E+00  0.0000E+00
    -16.211  0.0000E+00  0.0000E+00
    -16.127  0.0000E+00  0.0000E+00
    -16.043  0.0000E+00  0.0000E+00
    -15.959  0.0000E+00  0.0000E+00
    -15.875  0.0000E+00  0.0000E+00
    -15.791  0.0000E+00  0.0000E+00
    -15.707  0.0000E+00  0.0000E+00
    -15.623  0.0000E+00  0.0000E+00
    -15.539  0.0000E+00  0.0000E+00
    -15.455  0.0000E+00  0.0000E+00
    -15.371  0.0000E+00  0.0000E+00
    -15.287  0.0000E+00  0.0000E+00
    -15.203  0.0000E+00  0.0000E+00
    -15.119  0.0000E+00  0.0000E+00
    -15.035  0.0000E+00  0.0000E+00
    -14.951  0.0000E+00  0.0000E+00
    -14.867  0.0000E+00  0.0000E+00
    -14.783  0.0000E+00  0.0000E+00
    -14.699  0.0000E+00  0.0000E+00
    -14.615  0.0000E+00  0.0000E+00
    -14.532  0.4333E-02  0.2239E-04
    -14.448  0.5601E-01  0.2925E-02
    -14.364  0.1661E+00  0.1065E-01
    -14.280  0.1077E+00  0.2102E-01
    -14.196  0.1167E+00  0.3924E-01
    -14.112  0.1758E+00  0.6290E-01
    -14.028  0.1599E+00  0.7799E-01
    -13.944  0.6036E-01  0.8139E-01
    -13.860  0.3470E+00  0.9660E-01
    -13.776  0.7311E+00  0.1292E+00
    -13.692  0.2759E-01  0.1599E+00
    -13.608  0.0000E+00  0.1600E+00
    -13.524  0.0000E+00  0.1600E+00
    -13.440  0.0000E+00  0.1600E+00
    -13.356  0.0000E+00  0.1600E+00
    -13.272  0.0000E+00  0.1600E+00
    -13.188  0.0000E+00  0.1600E+00
    -13.104  0.0000E+00  0.1600E+00
    -13.020  0.0000E+00  0.1600E+00
    -12.936  0.0000E+00  0.1600E+00
    -12.852  0.0000E+00  0.1600E+00
    -12.768  0.0000E+00  0.1600E+00
    -12.684  0.0000E+00  0.1600E+00
    -12.600  0.0000E+00  0.1600E+00
    -12.516  0.0000E+00  0.1600E+00
    -12.432  0.0000E+00  0.1600E+00
    -12.348  0.0000E+00  0.1600E+00
    -12.264  0.0000E+00  0.1600E+00
    -12.180  0.0000E+00  0.1600E+00
    -12.096  0.0000E+00  0.1600E+00
    -12.012  0.0000E+00  0.1600E+00
    -11.928  0.0000E+00  0.1600E+00
    -11.844  0.0000E+00  0.1600E+00
    -11.760  0.0000E+00  0.1600E+00
    -11.676  0.0000E+00  0.1600E+00
    -11.592  0.0000E+00  0.1600E+00
    -11.508  0.0000E+00  0.1600E+00
    -11.424  0.0000E+00  0.1600E+00
    -11.340  0.0000E+00  0.1600E+00
    -11.256  0.0000E+00  0.1600E+00
    -11.172  0.0000E+00  0.1600E+00
    -11.088  0.0000E+00  0.1600E+00
    -11.004  0.0000E+00  0.1600E+00
    -10.920  0.0000E+00  0.1600E+00
    -10.836  0.0000E+00  0.1600E+00
    -10.752  0.0000E+00  0.1600E+00
    -10.668  0.0000E+00  0.1600E+00
    -10.584  0.0000E+00  0.1600E+00
    -10.501  0.0000E+00  0.1600E+00
    -10.417  0.0000E+00  0.1600E+00
    -10.333  0.0000E+00  0.1600E+00
    -10.249  0.0000E+00  0.1600E+00
    -10.165  0.0000E+00  0.1600E+00
    -10.081  0.0000E+00  0.1600E+00
     -9.997  0.0000E+00  0.1600E+00
     -9.913  0.0000E+00  0.1600E+00
     -9.829  0.0000E+00  0.1600E+00
     -9.745  0.0000E+00  0.1600E+00
     -9.661  0.0000E+00  0.1600E+00
     -9.577  0.0000E+00  0.1600E+00
     -9.493  0.0000E+00  0.1600E+00
     -9.409  0.0000E+00  0.1600E+00
     -9.325  0.0000E+00  0.1600E+00
     -9.241  0.0000E+00  0.1600E+00
     -9.157  0.0000E+00  0.1600E+00
     -9.073  0.0000E+00  0.1600E+00
     -8.989  0.0000E+00  0.1600E+00
     -8.905  0.0000E+00  0.1600E+00
     -8.821  0.0000E+00  0.1600E+00
     -8.737  0.0000E+00  0.1600E+00
     -8.653  0.0000E+00  0.1600E+00
     -8.569  0.0000E+00  0.1600E+00
     -8.485  0.0000E+00  0.1600E+00
     -8.401  0.0000E+00  0.1600E+00
     -8.317  0.0000E+00  0.1600E+00
     -8.233  0.0000E+00  0.1600E+00
     -8.149  0.0000E+00  0.1600E+00
     -8.065  0.0000E+00  0.1600E+00
     -7.981  0.1528E-01  0.1603E+00
     -7.897  0.6065E-01  0.1632E+00
     -7.813  0.2282E+00  0.1759E+00
     -7.729  0.3472E+00  0.1990E+00
     -7.645  0.2871E+00  0.2249E+00
     -7.561  0.2968E+00  0.2505E+00
     -7.477  0.2762E+00  0.2700E+00
     -7.393  0.1428E+00  0.2855E+00
     -7.309  0.9122E-01  0.2937E+00
     -7.225  0.1368E+00  0.3021E+00
     -7.141  0.1575E+00  0.3149E+00
     -7.057  0.0000E+00  0.3200E+00
     -6.973  0.4162E-02  0.3201E+00
     -6.889  0.6612E-01  0.3221E+00
     -6.805  0.1978E+00  0.3338E+00
     -6.721  0.2921E+00  0.3575E+00
     -6.637  0.2813E+00  0.3795E+00
     -6.553  0.3480E+00  0.4096E+00
     -6.470  0.2565E+00  0.4437E+00
     -6.386  0.2983E+00  0.4801E+00
     -6.302  0.2995E+00  0.5085E+00
     -6.218  0.3438E+00  0.5356E+00
     -6.134  0.9914E-01  0.5562E+00
     -6.050  0.0000E+00  0.5600E+00
     -5.966  0.0000E+00  0.5600E+00
     -5.882  0.0000E+00  0.5600E+00
     -5.798  0.0000E+00  0.5600E+00
     -5.714  0.0000E+00  0.5600E+00
     -5.630  0.0000E+00  0.5600E+00
     -5.546  0.0000E+00  0.5600E+00
     -5.462  0.0000E+00  0.5600E+00
     -5.378  0.0000E+00  0.5600E+00
     -5.294  0.0000E+00  0.5600E+00
     -5.210  0.0000E+00  0.5600E+00
     -5.126  0.0000E+00  0.5600E+00
     -5.042  0.0000E+00  0.5600E+00
     -4.958  0.0000E+00  0.5600E+00
     -4.874  0.0000E+00  0.5600E+00
     -4.790  0.0000E+00  0.5600E+00
     -4.706  0.0000E+00  0.5600E+00
     -4.622  0.0000E+00  0.5600E+00
     -4.538  0.0000E+00  0.5600E+00
     -4.454  0.0000E+00  0.5600E+00
     -4.370  0.0000E+00  0.5600E+00
     -4.286  0.0000E+00  0.5600E+00
     -4.202  0.0000E+00  0.5600E+00
     -4.118  0.0000E+00  0.5600E+00
     -4.034  0.0000E+00  0.5600E+00
     -3.950  0.0000E+00  0.5600E+00
     -3.866  0.0000E+00  0.5600E+00
     -3.782  0.0000E+00  0.5600E+00
     -3.698  0.0000E+00  0.5600E+00
     -3.614  0.0000E+00  0.5600E+00
     -3.530  0.0000E+00  0.5600E+00
     -3.446  0.0000E+00  0.5600E+00
     -3.362  0.0000E+00  0.5600E+00
     -3.278  0.0000E+00  0.5600E+00
     -3.194  0.0000E+00  0.5600E+00
     -3.110  0.0000E+00  0.5600E+00
     -3.026  0.0000E+00  0.5600E+00
     -2.942  0.0000E+00  0.5600E+00
     -2.858  0.0000E+00  0.5600E+00
     -2.774  0.0000E+00  0.5600E+00
     -2.690  0.0000E+00  0.5600E+00
     -2.606  0.0000E+00  0.5600E+00
     -2.523  0.0000E+00  0.5600E+00
     -2.439  0.0000E+00  0.5600E+00
     -2.355  0.6846E-02  0.5601E+00
     -2.271  0.2497E-01  0.5614E+00
     -2.187  0.5859E-01  0.5646E+00
     -2.103  0.1096E+00  0.5715E+00
     -2.019  0.1071E+00  0.5809E+00
     -1.935  0.7956E-01  0.5884E+00
     -1.851  0.7470E-01  0.5950E+00
     -1.767  0.2896E-01  0.5998E+00
     -1.683  0.3021E-01  0.6003E+00
     -1.599  0.6252E-01  0.6048E+00
     -1.515  0.6253E-01  0.6101E+00
     -1.431  0.6255E-01  0.6153E+00
     -1.347  0.8173E-01  0.6211E+00
     -1.263  0.1145E+00  0.6301E+00
     -1.179  0.8256E-01  0.6395E+00
     -1.095  0.0000E+00  0.6400E+00
     -1.011  0.0000E+00  0.6400E+00
     -0.927  0.0000E+00  0.6400E+00
     -0.843  0.0000E+00  0.6400E+00
     -0.759  0.0000E+00  0.6400E+00
     -0.675  0.0000E+00  0.6400E+00
     -0.591  0.0000E+00  0.6400E+00
     -0.507  0.0000E+00  0.6400E+00
     -0.423  0.0000E+00  0.6400E+00
     -0.339  0.0000E+00  0.6400E+00
     -0.255  0.0000E+00  0.6400E+00
     -0.171  0.0000E+00  0.6400E+00
     -0.087  0.0000E+00  0.6400E+00
     -0.003  0.0000E+00  0.6400E+00
      0.081  0.0000E+00  0.6400E+00
      0.165  0.0000E+00  0.6400E+00
      0.249  0.0000E+00  0.6400E+00
      0.333  0.0000E+00  0.6400E+00
      0.417  0.0000E+00  0.6400E+00
      0.501  0.0000E+00  0.6400E+00
      0.585  0.0000E+00  0.6400E+00
      0.669  0.0000E+00  0.6400E+00
      0.753  0.0000E+00  0.6400E+00
      0.837  0.0000E+00  0.6400E+00
      0.921  0.0000E+00  0.6400E+00
      1.005  0.0000E+00  0.6400E+00
      1.089  0.0000E+00  0.6400E+00
      1.173  0.0000E+00  0.6400E+00
      1.257  0.0000E+00  0.6400E+00
      1.341  0.0000E+00  0.6400E+00
      1.425  0.0000E+00  0.6400E+00
      1.508  0.0000E+00  0.6400E+00
      1.592  0.0000E+00  0.6400E+00
      1.676  0.0000E+00  0.6400E+00
      1.760  0.0000E+00  0.6400E+00
      1.844  0.0000E+00  0.6400E+00
      1.928  0.9068E-04  0.6400E+00
      2.012  0.1360E-02  0.6401E+00
      2.096  0.3655E-02  0.6403E+00
      2.180  0.6423E-02  0.6407E+00
      2.264  0.8067E-02  0.6413E+00
      2.348  0.9233E-02  0.6420E+00
      2.432  0.1048E-01  0.6429E+00
      2.516  0.1196E-01  0.6438E+00
      2.600  0.1378E-01  0.6449E+00
      2.684  0.1646E-01  0.6461E+00
      2.768  0.2007E-01  0.6477E+00
      2.852  0.2669E-01  0.6496E+00
      2.936  0.3432E-01  0.6521E+00
      3.020  0.3256E-01  0.6551E+00
      3.104  0.2518E-01  0.6575E+00
      3.188  0.2582E-01  0.6596E+00
      3.272  0.3463E-01  0.6620E+00
      3.356  0.6228E-01  0.6660E+00
      3.440  0.8932E-01  0.6729E+00
      3.524  0.7034E-01  0.6797E+00
      3.608  0.8967E-01  0.6851E+00
      3.692  0.9192E-01  0.6945E+00
      3.776  0.6322E-01  0.7003E+00
      3.860  0.8791E-01  0.7070E+00
      3.944  0.7123E-01  0.7135E+00
      4.028  0.5127E-01  0.7187E+00
      4.112  0.3629E-01  0.7220E+00
      4.196  0.6505E-01  0.7259E+00
      4.280  0.9885E-01  0.7334E+00
      4.364  0.8973E-01  0.7413E+00
      4.448  0.9189E-01  0.7487E+00
      4.532  0.1055E+00  0.7568E+00
      4.616  0.9086E-01  0.7657E+00
      4.700  0.1063E+00  0.7737E+00
      4.784  0.1678E+00  0.7852E+00
      4.868  0.9384E-01  0.7975E+00
      4.952  0.7076E-01  0.8014E+00
      5.036  0.1716E+00  0.8124E+00
      5.120  0.1376E+00  0.8257E+00
      5.204  0.9025E-01  0.8356E+00
      5.288  0.7689E-01  0.8413E+00
      5.372  0.1780E+00  0.8528E+00
      5.456  0.1190E+00  0.8663E+00
      5.539  0.1016E+00  0.8749E+00
      5.623  0.1467E+00  0.8867E+00
      5.707  0.1187E+00  0.8975E+00
      5.791  0.8924E-01  0.9060E+00
      5.875  0.1006E+00  0.9150E+00
      5.959  0.1325E+00  0.9218E+00
      6.043  0.1683E+00  0.9391E+00
      6.127  0.9705E-01  0.9490E+00
      6.211  0.1144E+00  0.9586E+00
      6.295  0.9016E-01  0.9671E+00
      6.379  0.6626E-01  0.9739E+00
      6.463  0.3509E-01  0.9782E+00
      6.547  0.4890E-02  0.9798E+00
      6.631  0.1099E-03  0.9800E+00
      6.715  0.0000E+00  0.9800E+00
      6.799  0.0000E+00  0.9800E+00
      6.883  0.0000E+00  0.9800E+00
      6.967  0.0000E+00  0.9800E+00
      7.051  0.0000E+00  0.9800E+00
      7.135  0.0000E+00  0.9800E+00
      7.219  0.0000E+00  0.9800E+00
      7.303  0.0000E+00  0.9800E+00
      7.387  0.0000E+00  0.9800E+00
      7.471  0.0000E+00  0.9800E+00
      7.555  0.0000E+00  0.9800E+00
      7.639  0.0000E+00  0.9800E+00
      7.723  0.0000E+00  0.9800E+00
      7.807  0.0000E+00  0.9800E+00
      7.891  0.0000E+00  0.9800E+00
      7.975  0.0000E+00  0.9800E+00
      8.059  0.0000E+00  0.9800E+00
      8.143  0.0000E+00  0.9800E+00
      8.227  0.0000E+00  0.9800E+00
      8.311  0.0000E+00  0.9800E+00
      8.395  0.0000E+00  0.9800E+00
      8.479  0.0000E+00  0.9800E+00
      8.563  0.0000E+00  0.9800E+00
      8.647  0.0000E+00  0.9800E+00
