   2   2   0   0
  0.5698463E+01  0.2526005E-09  0.2526005E-09  0.2526005E-09  0.5000000E-15
  1.000000000000000E-004
  CAR 
 graphite                                
     28.41828381    -13.72490416  301      9.73919372      1.00000000
    -13.725  0.0000E+00  0.0000E+00
    -13.584  0.0000E+00  0.0000E+00
    -13.444  0.0000E+00  0.0000E+00
    -13.303  0.0000E+00  0.0000E+00
    -13.163  0.0000E+00  0.0000E+00
    -13.023  0.0000E+00  0.0000E+00
    -12.882  0.0000E+00  0.0000E+00
    -12.742  0.0000E+00  0.0000E+00
    -12.601  0.0000E+00  0.0000E+00
    -12.461  0.0000E+00  0.0000E+00
    -12.320  0.0000E+00  0.0000E+00
    -12.180  0.0000E+00  0.0000E+00
    -12.039  0.0000E+00  0.0000E+00
    -11.899  0.0000E+00  0.0000E+00
    -11.758  0.0000E+00  0.0000E+00
    -11.618  0.5262E-04  0.1879E-05
    -11.477  0.2304E-03  0.2209E-04
    -11.337  0.3160E-03  0.6115E-04
    -11.196  0.3695E-03  0.1087E-03
    -11.056  0.4327E-03  0.1652E-03
    -10.915  0.4767E-03  0.2295E-03
    -10.775  0.5205E-03  0.2994E-03
    -10.634  0.5710E-03  0.3760E-03
    -10.494  0.6195E-03  0.4599E-03
    -10.353  0.6546E-03  0.5493E-03
    -10.213  0.6894E-03  0.6437E-03
    -10.072  0.7167E-03  0.7426E-03
     -9.932  0.7476E-03  0.8453E-03
     -9.792  0.7819E-03  0.9527E-03
     -9.651  0.8161E-03  0.1065E-02
     -9.511  0.8469E-03  0.1182E-02
     -9.370  0.8782E-03  0.1303E-02
     -9.230  0.9128E-03  0.1429E-02
     -9.089  0.9474E-03  0.1559E-02
     -8.949  0.9724E-03  0.1694E-02
     -8.808  0.9987E-03  0.1833E-02
     -8.668  0.1025E-02  0.1975E-02
     -8.527  0.1052E-02  0.2121E-02
     -8.387  0.1079E-02  0.2270E-02
     -8.246  0.1107E-02  0.2424E-02
     -8.106  0.1136E-02  0.2581E-02
     -7.965  0.1166E-02  0.2743E-02
     -7.825  0.1198E-02  0.2909E-02
     -7.684  0.1231E-02  0.3080E-02
     -7.544  0.1263E-02  0.3255E-02
     -7.403  0.1296E-02  0.3435E-02
     -7.263  0.1332E-02  0.3619E-02
     -7.122  0.1369E-02  0.3809E-02
     -6.982  0.1410E-02  0.4004E-02
     -6.842  0.1458E-02  0.4206E-02
     -6.701  0.1512E-02  0.4414E-02
     -6.561  0.1582E-02  0.4631E-02
     -6.420  0.1682E-02  0.4860E-02
     -6.280  0.1798E-02  0.5104E-02
     -6.139  0.1939E-02  0.5366E-02
     -5.999  0.2124E-02  0.5658E-02
     -5.858  0.1901E-02  0.5932E-02
     -5.718  0.1856E-02  0.6196E-02
     -5.577  0.1836E-02  0.6455E-02
     -5.437  0.1824E-02  0.6713E-02
     -5.296  0.1748E-02  0.6963E-02
     -5.156  0.1679E-02  0.7204E-02
     -5.015  0.1653E-02  0.7437E-02
     -4.875  0.1638E-02  0.7670E-02
     -4.734  0.1559E-02  0.7895E-02
     -4.594  0.1480E-02  0.8108E-02
     -4.453  0.1443E-02  0.8313E-02
     -4.313  0.1430E-02  0.8514E-02
     -4.172  0.1443E-02  0.8716E-02
     -4.032  0.1445E-02  0.8919E-02
     -3.891  0.1422E-02  0.9121E-02
     -3.751  0.1381E-02  0.9318E-02
     -3.611  0.1262E-02  0.9505E-02
     -3.470  0.1101E-02  0.9671E-02
     -3.330  0.9427E-03  0.9814E-02
     -3.189  0.6595E-03  0.9926E-02
     -3.049  0.6251E-03  0.1001E-01
     -2.908  0.7130E-03  0.1011E-01
     -2.768  0.8434E-03  0.1022E-01
     -2.627  0.9032E-03  0.1034E-01
     -2.487  0.1041E-02  0.1048E-01
     -2.346  0.1254E-02  0.1063E-01
     -2.206  0.1508E-02  0.1083E-01
     -2.065  0.2040E-02  0.1107E-01
     -1.925  0.2782E-02  0.1141E-01
     -1.784  0.3524E-02  0.1186E-01
     -1.644  0.3811E-02  0.1238E-01
     -1.503  0.3551E-02  0.1290E-01
     -1.363  0.2873E-02  0.1335E-01
     -1.222  0.2476E-02  0.1373E-01
     -1.082  0.2185E-02  0.1405E-01
     -0.941  0.1970E-02  0.1434E-01
     -0.801  0.1797E-02  0.1461E-01
     -0.661  0.1681E-02  0.1485E-01
     -0.520  0.1572E-02  0.1508E-01
     -0.380  0.1488E-02  0.1529E-01
     -0.239  0.1433E-02  0.1550E-01
     -0.099  0.1394E-02  0.1570E-01
      0.042  0.1354E-02  0.1589E-01
      0.182  0.1300E-02  0.1608E-01
      0.323  0.1235E-02  0.1626E-01
      0.463  0.1172E-02  0.1642E-01
      0.604  0.1269E-02  0.1659E-01
      0.744  0.1534E-02  0.1679E-01
      0.885  0.1912E-02  0.1703E-01
      1.025  0.2457E-02  0.1733E-01
      1.166  0.2861E-02  0.1771E-01
      1.306  0.3001E-02  0.1812E-01
      1.447  0.2764E-02  0.1853E-01
      1.587  0.2719E-02  0.1891E-01
      1.728  0.2713E-02  0.1929E-01
      1.868  0.2719E-02  0.1967E-01
      2.009  0.2657E-02  0.2005E-01
      2.149  0.2637E-02  0.2042E-01
      2.290  0.2658E-02  0.2079E-01
      2.430  0.2716E-02  0.2117E-01
      2.570  0.2768E-02  0.2156E-01
      2.711  0.2945E-02  0.2196E-01
      2.851  0.3089E-02  0.2238E-01
      2.992  0.3244E-02  0.2283E-01
      3.132  0.3354E-02  0.2329E-01
      3.273  0.3553E-02  0.2377E-01
      3.413  0.3858E-02  0.2429E-01
      3.554  0.4139E-02  0.2486E-01
      3.694  0.4114E-02  0.2544E-01
      3.835  0.3982E-02  0.2601E-01
      3.975  0.3948E-02  0.2657E-01
      4.116  0.3928E-02  0.2712E-01
      4.256  0.3904E-02  0.2767E-01
      4.397  0.3866E-02  0.2822E-01
      4.537  0.3837E-02  0.2876E-01
      4.678  0.3793E-02  0.2929E-01
      4.818  0.3739E-02  0.2982E-01
      4.959  0.3702E-02  0.3034E-01
      5.099  0.3682E-02  0.3086E-01
      5.240  0.3651E-02  0.3138E-01
      5.380  0.3610E-02  0.3189E-01
      5.520  0.3563E-02  0.3239E-01
      5.661  0.3533E-02  0.3289E-01
      5.801  0.3506E-02  0.3339E-01
      5.942  0.3475E-02  0.3388E-01
      6.082  0.3437E-02  0.3436E-01
      6.223  0.3413E-02  0.3484E-01
      6.363  0.3381E-02  0.3532E-01
      6.504  0.3319E-02  0.3579E-01
      6.644  0.3290E-02  0.3625E-01
      6.785  0.3004E-02  0.3670E-01
      6.925  0.2568E-02  0.3709E-01
      7.066  0.2244E-02  0.3742E-01
      7.206  0.2007E-02  0.3772E-01
      7.347  0.1812E-02  0.3799E-01
      7.487  0.1684E-02  0.3823E-01
      7.628  0.1569E-02  0.3846E-01
      7.768  0.1443E-02  0.3868E-01
      7.909  0.1300E-02  0.3887E-01
      8.049  0.1172E-02  0.3904E-01
      8.190  0.1067E-02  0.3920E-01
      8.330  0.9622E-03  0.3934E-01
      8.471  0.8588E-03  0.3947E-01
      8.611  0.7622E-03  0.3958E-01
      8.751  0.6970E-03  0.3968E-01
      8.892  0.5963E-03  0.3977E-01
      9.032  0.5150E-03  0.3985E-01
      9.173  0.4182E-03  0.3992E-01
      9.313  0.2662E-03  0.3997E-01
      9.454  0.9547E-04  0.3999E-01
      9.594  0.1514E-04  0.4000E-01
      9.735  0.0000E+00  0.4000E-01
      9.875  0.0000E+00  0.4000E-01
     10.016  0.0000E+00  0.4000E-01
     10.156  0.0000E+00  0.4000E-01
     10.297  0.0000E+00  0.4000E-01
     10.437  0.0000E+00  0.4000E-01
     10.578  0.0000E+00  0.4000E-01
     10.718  0.0000E+00  0.4000E-01
     10.859  0.0000E+00  0.4000E-01
     10.999  0.0000E+00  0.4000E-01
     11.140  0.0000E+00  0.4000E-01
     11.280  0.0000E+00  0.4000E-01
     11.421  0.0000E+00  0.4000E-01
     11.561  0.0000E+00  0.4000E-01
     11.701  0.0000E+00  0.4000E-01
     11.842  0.0000E+00  0.4000E-01
     11.982  0.0000E+00  0.4000E-01
     12.123  0.0000E+00  0.4000E-01
     12.263  0.0000E+00  0.4000E-01
     12.404  0.0000E+00  0.4000E-01
     12.544  0.0000E+00  0.4000E-01
     12.685  0.0000E+00  0.4000E-01
     12.825  0.0000E+00  0.4000E-01
     12.966  0.0000E+00  0.4000E-01
     13.106  0.0000E+00  0.4000E-01
     13.247  0.0000E+00  0.4000E-01
     13.387  0.0000E+00  0.4000E-01
     13.528  0.0000E+00  0.4000E-01
     13.668  0.0000E+00  0.4000E-01
     13.809  0.0000E+00  0.4000E-01
     13.949  0.2109E-04  0.4000E-01
     14.090  0.1788E-03  0.4001E-01
     14.230  0.4089E-03  0.4005E-01
     14.371  0.6578E-03  0.4013E-01
     14.511  0.8732E-03  0.4024E-01
     14.652  0.1029E-02  0.4037E-01
     14.792  0.1175E-02  0.4053E-01
     14.932  0.1354E-02  0.4070E-01
     15.073  0.1549E-02  0.4091E-01
     15.213  0.1752E-02  0.4114E-01
     15.354  0.2015E-02  0.4140E-01
     15.494  0.2251E-02  0.4170E-01
     15.635  0.2357E-02  0.4203E-01
     15.775  0.2440E-02  0.4237E-01
     15.916  0.2573E-02  0.4272E-01
     16.056  0.2689E-02  0.4309E-01
     16.197  0.2814E-02  0.4347E-01
     16.337  0.2900E-02  0.4388E-01
     16.478  0.3019E-02  0.4429E-01
     16.618  0.3156E-02  0.4472E-01
     16.759  0.3316E-02  0.4518E-01
     16.899  0.3517E-02  0.4566E-01
     17.040  0.3781E-02  0.4617E-01
     17.180  0.4203E-02  0.4673E-01
     17.321  0.4844E-02  0.4736E-01
     17.461  0.5467E-02  0.4809E-01
     17.602  0.6102E-02  0.4890E-01
     17.742  0.6356E-02  0.4978E-01
     17.882  0.5448E-02  0.5063E-01
     18.023  0.3849E-02  0.5128E-01
     18.163  0.2922E-02  0.5173E-01
     18.304  0.3210E-02  0.5216E-01
     18.444  0.3877E-02  0.5264E-01
     18.585  0.4310E-02  0.5322E-01
     18.725  0.4642E-02  0.5386E-01
     18.866  0.4610E-02  0.5451E-01
     19.006  0.4533E-02  0.5514E-01
     19.147  0.4635E-02  0.5579E-01
     19.287  0.5002E-02  0.5646E-01
     19.428  0.5127E-02  0.5718E-01
     19.568  0.5032E-02  0.5790E-01
     19.709  0.4802E-02  0.5859E-01
     19.849  0.4660E-02  0.5925E-01
     19.990  0.4420E-02  0.5989E-01
     20.130  0.4047E-02  0.6049E-01
     20.271  0.3683E-02  0.6103E-01
     20.411  0.3497E-02  0.6153E-01
     20.552  0.3176E-02  0.6205E-01
     20.692  0.2831E-02  0.6247E-01
     20.833  0.2545E-02  0.6284E-01
     20.973  0.2301E-02  0.6318E-01
     21.113  0.2154E-02  0.6349E-01
     21.254  0.2058E-02  0.6379E-01
     21.394  0.2103E-02  0.6408E-01
     21.535  0.2279E-02  0.6439E-01
     21.675  0.2534E-02  0.6472E-01
     21.816  0.2793E-02  0.6510E-01
     21.956  0.3085E-02  0.6551E-01
     22.097  0.4023E-02  0.6603E-01
     22.237  0.4180E-02  0.6661E-01
     22.378  0.4416E-02  0.6721E-01
     22.518  0.4421E-02  0.6783E-01
     22.659  0.4238E-02  0.6845E-01
     22.799  0.4382E-02  0.6905E-01
     22.940  0.4484E-02  0.6968E-01
     23.080  0.5153E-02  0.7035E-01
     23.221  0.4765E-02  0.7105E-01
     23.361  0.4176E-02  0.7169E-01
     23.502  0.3942E-02  0.7226E-01
     23.642  0.4089E-02  0.7282E-01
     23.783  0.4511E-02  0.7342E-01
     23.923  0.5086E-02  0.7410E-01
     24.063  0.5408E-02  0.7484E-01
     24.204  0.5272E-02  0.7559E-01
     24.344  0.4921E-02  0.7631E-01
     24.485  0.4266E-02  0.7696E-01
     24.625  0.3468E-02  0.7750E-01
     24.766  0.3025E-02  0.7795E-01
     24.906  0.2718E-02  0.7836E-01
     25.047  0.2568E-02  0.7873E-01
     25.187  0.2350E-02  0.7908E-01
     25.328  0.1202E-02  0.7934E-01
     25.468  0.1065E-02  0.7950E-01
     25.609  0.9525E-03  0.7964E-01
     25.749  0.8505E-03  0.7977E-01
     25.890  0.6758E-03  0.7988E-01
     26.030  0.3730E-03  0.7995E-01
     26.171  0.1518E-03  0.7999E-01
     26.311  0.2843E-04  0.8000E-01
     26.452  0.0000E+00  0.8000E-01
     26.592  0.0000E+00  0.8000E-01
     26.733  0.0000E+00  0.8000E-01
     26.873  0.0000E+00  0.8000E-01
     27.014  0.0000E+00  0.8000E-01
     27.154  0.0000E+00  0.8000E-01
     27.294  0.0000E+00  0.8000E-01
     27.435  0.0000E+00  0.8000E-01
     27.575  0.0000E+00  0.8000E-01
     27.716  0.0000E+00  0.8000E-01
     27.856  0.0000E+00  0.8000E-01
     27.997  0.0000E+00  0.8000E-01
     28.137  0.0000E+00  0.8000E-01
     28.278  0.0000E+00  0.8000E-01
     28.418  0.0000E+00  0.8000E-01
