   80   80  200    1
  0.8827842E+01  0.1130385E-08  0.7906682E-09  0.7901759E-09  0.5000000E-15
  1.000000000000000E-004
  CAR 
 diamond                                 
    128     27    106
 
  0.0000000E+00  0.0000000E+00  0.0000000E+00  0.1562500E-01
    1      -14.599911
    2      -14.299700
    3      -14.233591
    4      -14.171263
    5      -14.142016
    6      -14.131242
    7      -14.068895
    8      -14.062476
    9      -14.062329
   10      -14.045972
   11      -14.044674
   12      -13.965977
   13      -13.887194
   14      -13.883595
   15      -13.883010
   16      -13.843380
   17       -7.412014
   18       -7.382484
   19       -7.372227
   20       -7.342819
   21       -7.325639
   22       -7.316682
   23       -7.311177
   24       -7.135102
   25       -6.915087
   26       -6.902501
   27       -6.880933
   28       -6.764452
   29       -6.759770
   30       -6.724054
   31       -6.645101
   32       -6.620630
   33       -6.617030
   34       -6.595404
   35       -6.587406
   36       -6.567653
   37       -6.533920
   38       -6.494889
   39       -6.424791
   40       -6.390325
   41       -6.360542
   42       -6.289800
   43       -6.278528
   44       -6.216319
   45       -6.208514
   46       -6.192622
   47       -6.175839
   48       -6.169106
   49       -6.121382
   50       -6.076122
   51       -6.070695
   52       -6.054407
   53       -6.049511
   54       -6.008298
   55       -6.006012
   56       -5.992035
   57       -5.986459
   58       -5.975734
   59       -5.966530
   60       -5.949626
   61       -5.938598
   62       -5.920444
   63       -5.883617
   64       -5.804756
   65        1.844644
   66        3.227811
   67        3.291868
   68        3.293790
   69        3.504286
   70        3.670116
   71        3.840231
   72        3.852842
   73        3.949018
   74        4.089531
   75        4.168501
   76        4.364048
   77        4.434335
   78        4.537057
   79        4.558910
   80        4.596102
   81        4.698430
   82        4.741393
   83        4.811032
   84        5.240434
   85        5.385052
   86        5.435563
   87        5.511542
   88        5.564074
   89        5.674687
   90        5.868319
   91        5.895245
   92        5.985922
   93        6.013375
   94        6.061656
   95        6.062003
   96        6.250957
   97        6.290461
   98        6.305522
   99        6.353153
  100        6.624820
  101        6.685296
  102        6.762970
  103        6.910961
  104        6.938968
  105        7.004275
  106        7.035877
 
  0.2500000E+00  0.0000000E+00  0.0000000E+00  0.3125000E-01
    1      -14.576175
    2      -14.402388
    3      -14.159934
    4      -14.140410
    5      -14.132832
    6      -14.123859
    7      -14.084151
    8      -14.067942
    9      -14.063277
   10      -14.053757
   11      -14.046438
   12      -13.934272
   13      -13.915863
   14      -13.886367
   15      -13.882530
   16      -13.855143
   17       -7.403752
   18       -7.399241
   19       -7.369231
   20       -7.335090
   21       -7.294888
   22       -7.263674
   23       -7.189452
   24       -7.144305
   25       -7.010645
   26       -7.003491
   27       -6.976981
   28       -6.883219
   29       -6.877168
   30       -6.813728
   31       -6.617500
   32       -6.608191
   33       -6.564996
   34       -6.543073
   35       -6.530913
   36       -6.524073
   37       -6.409481
   38       -6.382088
   39       -6.376006
   40       -6.374964
   41       -6.332465
   42       -6.318618
   43       -6.273541
   44       -6.248772
   45       -6.200549
   46       -6.174507
   47       -6.165488
   48       -6.135415
   49       -6.117344
   50       -6.095989
   51       -6.069116
   52       -6.055704
   53       -6.052435
   54       -6.011628
   55       -5.996500
   56       -5.991972
   57       -5.987390
   58       -5.982997
   59       -5.981270
   60       -5.960974
   61       -5.959476
   62       -5.943237
   63       -5.898038
   64       -5.869325
   65        1.959894
   66        2.748271
   67        3.347895
   68        3.543515
   69        3.684278
   70        3.729528
   71        3.741620
   72        3.775334
   73        3.952428
   74        4.146244
   75        4.190614
   76        4.238545
   77        4.431577
   78        4.583078
   79        4.592126
   80        4.608658
   81        4.739333
   82        4.773928
   83        4.813177
   84        5.306310
   85        5.363239
   86        5.455124
   87        5.477251
   88        5.597220
   89        5.651410
   90        5.652603
   91        5.916808
   92        5.918797
   93        5.983869
   94        6.028627
   95        6.069719
   96        6.188883
   97        6.208642
   98        6.261008
   99        6.400976
  100        6.457257
  101        6.725454
  102        6.770978
  103        6.898602
  104        6.972885
  105        7.047760
  106        7.091562
 
  0.5000000E+00  0.0000000E+00  0.0000000E+00  0.1562500E-01
    1      -14.507496
    2      -14.507494
    3      -14.136634
    4      -14.136634
    5      -14.128156
    6      -14.128154
    7      -14.065608
    8      -14.065607
    9      -14.050606
   10      -14.050603
   11      -14.001777
   12      -14.001776
   13      -13.888157
   14      -13.888156
   15      -13.884457
   16      -13.884454
   17       -7.420289
   18       -7.420288
   19       -7.259639
   20       -7.259638
   21       -7.253691
   22       -7.253689
   23       -7.112268
   24       -7.112266
   25       -7.106522
   26       -7.106522
   27       -7.005482
   28       -7.005482
   29       -6.976160
   30       -6.976159
   31       -6.521873
   32       -6.521872
   33       -6.507930
   34       -6.507929
   35       -6.507266
   36       -6.507266
   37       -6.474166
   38       -6.474164
   39       -6.324314
   40       -6.324313
   41       -6.264689
   42       -6.264688
   43       -6.211513
   44       -6.211512
   45       -6.209927
   46       -6.209927
   47       -6.090877
   48       -6.090875
   49       -6.082857
   50       -6.082857
   51       -6.060776
   52       -6.060776
   53       -6.051120
   54       -6.051119
   55       -6.025433
   56       -6.025433
   57       -6.017190
   58       -6.017188
   59       -5.989597
   60       -5.989594
   61       -5.951131
   62       -5.951131
   63       -5.935725
   64       -5.935724
   65        2.282433
   66        2.282434
   67        3.510085
   68        3.510088
   69        3.648162
   70        3.648162
   71        3.904331
   72        3.904332
   73        3.946761
   74        3.946762
   75        4.211243
   76        4.211244
   77        4.597039
   78        4.597041
   79        4.603532
   80        4.603532
   81        4.695055
   82        4.695057
   83        5.109082
   84        5.109083
   85        5.460459
   86        5.460460
   87        5.503923
   88        5.503925
   89        5.699100
   90        5.699102
   91        5.703292
   92        5.703293
   93        5.895992
   94        5.895992
   95        6.145890
   96        6.145891
   97        6.200609
   98        6.200609
   99        6.555480
  100        6.555481
  101        6.714598
  102        6.714600
  103        6.967311
  104        6.967313
  105        7.234304
  106        7.241928
 
  0.0000000E+00  0.2500000E+00  0.0000000E+00  0.3125000E-01
    1      -14.555717
    2      -14.276344
    3      -14.271059
    4      -14.207259
    5      -14.162140
    6      -14.146123
    7      -14.073778
    8      -14.070780
    9      -14.055373
   10      -14.023175
   11      -13.998827
   12      -13.957803
   13      -13.908446
   14      -13.889414
   15      -13.886276
   16      -13.855292
   17       -7.421965
   18       -7.416853
   19       -7.316002
   20       -7.291575
   21       -7.272352
   22       -7.260444
   23       -7.255085
   24       -7.009189
   25       -6.929025
   26       -6.893446
   27       -6.869184
   28       -6.868520
   29       -6.731022
   30       -6.726980
   31       -6.708428
   32       -6.658374
   33       -6.625873
   34       -6.575556
   35       -6.541731
   36       -6.522285
   37       -6.520484
   38       -6.505924
   39       -6.421939
   40       -6.359777
   41       -6.345923
   42       -6.324512
   43       -6.301476
   44       -6.262250
   45       -6.190569
   46       -6.183900
   47       -6.162612
   48       -6.159654
   49       -6.123358
   50       -6.107478
   51       -6.106247
   52       -6.086995
   53       -6.059726
   54       -6.027395
   55       -6.021309
   56       -6.013987
   57       -6.008434
   58       -5.990268
   59       -5.984546
   60       -5.977124
   61       -5.968629
   62       -5.947803
   63       -5.897801
   64       -5.840346
   65        2.074892
   66        3.384136
   67        3.414706
   68        3.432548
   69        3.468162
   70        3.571101
   71        3.694230
   72        3.933744
   73        4.110504
   74        4.174462
   75        4.214484
   76        4.293485
   77        4.308320
   78        4.392910
   79        4.651691
   80        4.680857
   81        4.772508
   82        4.789730
   83        4.873556
   84        5.124357
   85        5.139192
   86        5.374077
   87        5.391646
   88        5.578314
   89        5.679016
   90        5.693599
   91        5.757293
   92        5.775225
   93        6.120507
   94        6.151943
   95        6.173816
   96        6.201542
   97        6.293974
   98        6.376833
   99        6.419476
  100        6.568544
  101        6.570822
  102        6.742859
  103        6.744448
  104        6.791453
  105        6.813728
  106        6.884118
 
  0.2500000E+00  0.2500000E+00  0.0000000E+00  0.6250000E-01
    1      -14.533254
    2      -14.369870
    3      -14.259852
    4      -14.185969
    5      -14.140700
    6      -14.108902
    7      -14.067696
    8      -14.065354
    9      -14.058026
   10      -14.046166
   11      -13.982709
   12      -13.940951
   13      -13.917312
   14      -13.902879
   15      -13.891858
   16      -13.866509
   17       -7.415118
   18       -7.390949
   19       -7.360413
   20       -7.328268
   21       -7.221847
   22       -7.190802
   23       -7.138847
   24       -7.097901
   25       -7.073217
   26       -6.936663
   27       -6.936526
   28       -6.844037
   29       -6.793735
   30       -6.761729
   31       -6.663564
   32       -6.623336
   33       -6.612037
   34       -6.511410
   35       -6.510022
   36       -6.505988
   37       -6.478424
   38       -6.470655
   39       -6.401481
   40       -6.357996
   41       -6.341053
   42       -6.331676
   43       -6.269863
   44       -6.257914
   45       -6.214160
   46       -6.202213
   47       -6.169251
   48       -6.147744
   49       -6.133053
   50       -6.106414
   51       -6.103015
   52       -6.085662
   53       -6.053102
   54       -6.048632
   55       -6.034152
   56       -6.030137
   57       -6.020763
   58       -6.008484
   59       -6.007792
   60       -5.973927
   61       -5.968205
   62       -5.926584
   63       -5.897310
   64       -5.838926
   65        2.178834
   66        2.909444
   67        3.412695
   68        3.505834
   69        3.517981
   70        3.749803
   71        3.840957
   72        3.871761
   73        4.148674
   74        4.190871
   75        4.217991
   76        4.273516
   77        4.406436
   78        4.431625
   79        4.629914
   80        4.653253
   81        4.713120
   82        4.797947
   83        4.859932
   84        5.119074
   85        5.243501
   86        5.337914
   87        5.343027
   88        5.596615
   89        5.656190
   90        5.658617
   91        5.799156
   92        5.835658
   93        5.930704
   94        6.015200
   95        6.114248
   96        6.245587
   97        6.250001
   98        6.265504
   99        6.461220
  100        6.472671
  101        6.558364
  102        6.686694
  103        6.713713
  104        6.836799
  105        6.840755
  106        7.025278
 
  0.5000000E+00  0.2500000E+00  0.0000000E+00  0.3125000E-01
    1      -14.468434
    2      -14.468432
    3      -14.228607
    4      -14.228606
    5      -14.110739
    6      -14.110737
    7      -14.064343
    8      -14.064342
    9      -14.006782
   10      -14.006780
   11      -13.994307
   12      -13.994306
   13      -13.897943
   14      -13.897941
   15      -13.897858
   16      -13.897856
   17       -7.401905
   18       -7.401904
   19       -7.328772
   20       -7.328771
   21       -7.174078
   22       -7.174077
   23       -7.112564
   24       -7.112562
   25       -7.043214
   26       -7.043213
   27       -6.957659
   28       -6.957659
   29       -6.843759
   30       -6.843757
   31       -6.568585
   32       -6.568584
   33       -6.563097
   34       -6.563097
   35       -6.479792
   36       -6.479792
   37       -6.435079
   38       -6.435078
   39       -6.325926
   40       -6.325925
   41       -6.313827
   42       -6.313826
   43       -6.308746
   44       -6.308745
   45       -6.211204
   46       -6.211203
   47       -6.181693
   48       -6.181693
   49       -6.109066
   50       -6.109065
   51       -6.099075
   52       -6.099072
   53       -6.088349
   54       -6.088347
   55       -6.050961
   56       -6.050960
   57       -6.008751
   58       -6.008748
   59       -5.983849
   60       -5.983849
   61       -5.940291
   62       -5.940290
   63       -5.867408
   64       -5.867408
   65        2.473395
   66        2.473396
   67        3.432437
   68        3.432438
   69        3.657132
   70        3.657135
   71        3.942127
   72        3.942128
   73        4.131974
   74        4.131975
   75        4.329385
   76        4.329385
   77        4.533693
   78        4.533695
   79        4.562056
   80        4.562057
   81        4.670337
   82        4.670338
   83        5.022542
   84        5.022542
   85        5.294338
   86        5.294338
   87        5.488052
   88        5.488053
   89        5.692001
   90        5.692003
   91        5.748306
   92        5.748307
   93        5.876044
   94        5.876045
   95        6.075418
   96        6.075418
   97        6.261083
   98        6.261084
   99        6.451954
  100        6.451954
  101        6.586010
  102        6.586011
  103        6.836760
  104        6.836760
  105        7.132942
  106        7.133216
 
  0.0000000E+00  0.5000000E+00  0.0000000E+00  0.1562500E-01
    1      -14.434738
    2      -14.434738
    3      -14.218645
    4      -14.218645
    5      -14.141916
    6      -14.141916
    7      -14.104915
    8      -14.104915
    9      -14.022801
   10      -14.022801
   11      -13.966821
   12      -13.966821
   13      -13.906335
   14      -13.906335
   15      -13.878999
   16      -13.878999
   17       -7.458915
   18       -7.458915
   19       -7.185658
   20       -7.185658
   21       -7.140566
   22       -7.140566
   23       -7.100632
   24       -7.100632
   25       -7.005405
   26       -7.005405
   27       -6.954328
   28       -6.954328
   29       -6.729822
   30       -6.729822
   31       -6.665146
   32       -6.665146
   33       -6.498958
   34       -6.498958
   35       -6.451929
   36       -6.451929
   37       -6.440437
   38       -6.440437
   39       -6.411351
   40       -6.411351
   41       -6.408998
   42       -6.408998
   43       -6.354222
   44       -6.354222
   45       -6.236461
   46       -6.236461
   47       -6.220215
   48       -6.220215
   49       -6.142269
   50       -6.142269
   51       -6.079203
   52       -6.079203
   53       -6.059130
   54       -6.059130
   55       -6.058336
   56       -6.058336
   57       -6.002421
   58       -6.002421
   59       -5.966898
   60       -5.966898
   61       -5.945374
   62       -5.945374
   63       -5.918360
   64       -5.918360
   65        2.673492
   66        2.673492
   67        3.611579
   68        3.611579
   69        3.741983
   70        3.741983
   71        3.891437
   72        3.891437
   73        3.912644
   74        3.912644
   75        4.292079
   76        4.292079
   77        4.444409
   78        4.444409
   79        4.631239
   80        4.631239
   81        4.905238
   82        4.905238
   83        5.034926
   84        5.034926
   85        5.158443
   86        5.158443
   87        5.348883
   88        5.348883
   89        5.428081
   90        5.428081
   91        5.923439
   92        5.923439
   93        5.979424
   94        5.979424
   95        6.008571
   96        6.008571
   97        6.409604
   98        6.409604
   99        6.425047
  100        6.425047
  101        6.530851
  102        6.530851
  103        6.687203
  104        6.687203
  105        6.791201
  106        6.791201
 
  0.2500000E+00  0.5000000E+00  0.0000000E+00  0.3125000E-01
    1      -14.416319
    2      -14.416319
    3      -14.285323
    4      -14.285323
    5      -14.101298
    6      -14.101298
    7      -14.068455
    8      -14.068455
    9      -14.045394
   10      -14.045394
   11      -13.943974
   12      -13.943974
   13      -13.927072
   14      -13.927072
   15      -13.887414
   16      -13.887414
   17       -7.433942
   18       -7.433942
   19       -7.272620
   20       -7.272620
   21       -7.124899
   22       -7.124899
   23       -7.107331
   24       -7.107331
   25       -7.017705
   26       -7.017705
   27       -6.828930
   28       -6.828930
   29       -6.751779
   30       -6.751779
   31       -6.655293
   32       -6.655293
   33       -6.503671
   34       -6.503671
   35       -6.489179
   36       -6.489179
   37       -6.463944
   38       -6.463944
   39       -6.401390
   40       -6.401390
   41       -6.394399
   42       -6.394399
   43       -6.314595
   44       -6.314595
   45       -6.294605
   46       -6.294605
   47       -6.220986
   48       -6.220986
   49       -6.130118
   50       -6.130118
   51       -6.112462
   52       -6.112462
   53       -6.059170
   54       -6.059170
   55       -6.055168
   56       -6.055168
   57       -6.009532
   58       -6.009532
   59       -6.009279
   60       -6.009279
   61       -5.904451
   62       -5.904451
   63       -5.879568
   64       -5.879568
   65        2.741383
   66        2.741383
   67        3.261823
   68        3.261823
   69        3.906994
   70        3.906994
   71        3.927729
   72        3.927729
   73        4.095936
   74        4.095936
   75        4.365840
   76        4.365840
   77        4.432361
   78        4.432361
   79        4.612771
   80        4.612771
   81        4.829606
   82        4.829606
   83        4.921499
   84        4.921499
   85        5.095211
   86        5.095211
   87        5.298784
   88        5.298784
   89        5.694871
   90        5.694871
   91        5.901294
   92        5.901294
   93        5.937858
   94        5.937858
   95        6.088604
   96        6.088604
   97        6.307508
   98        6.307508
   99        6.367909
  100        6.367909
  101        6.455619
  102        6.455619
  103        6.562035
  104        6.562035
  105        6.908258
  106        6.908259
 
  0.5000000E+00  0.5000000E+00  0.0000000E+00  0.1562500E-01
    1      -14.363629
    2      -14.363629
    3      -14.363628
    4      -14.363628
    5      -14.077448
    6      -14.077448
    7      -14.077447
    8      -14.077447
    9      -13.985644
   10      -13.985644
   11      -13.985642
   12      -13.985642
   13      -13.910901
   14      -13.910901
   15      -13.910899
   16      -13.910899
   17       -7.366098
   18       -7.366098
   19       -7.366097
   20       -7.366097
   21       -7.141263
   22       -7.141263
   23       -7.141263
   24       -7.141263
   25       -6.891318
   26       -6.891318
   27       -6.891317
   28       -6.891317
   29       -6.656039
   30       -6.656039
   31       -6.656038
   32       -6.656038
   33       -6.497334
   34       -6.497334
   35       -6.497333
   36       -6.497333
   37       -6.487297
   38       -6.487297
   39       -6.487296
   40       -6.487296
   41       -6.369351
   42       -6.369350
   43       -6.369350
   44       -6.369350
   45       -6.193221
   46       -6.193221
   47       -6.193220
   48       -6.193220
   49       -6.173130
   50       -6.173130
   51       -6.173130
   52       -6.173129
   53       -6.058296
   54       -6.058296
   55       -6.058293
   56       -6.058293
   57       -6.017546
   58       -6.017546
   59       -6.017545
   60       -6.017545
   61       -5.866409
   62       -5.866409
   63       -5.866408
   64       -5.866408
   65        2.942054
   66        2.942054
   67        2.942055
   68        2.942055
   69        3.934256
   70        3.934256
   71        3.934258
   72        3.934258
   73        4.328447
   74        4.328447
   75        4.328447
   76        4.328447
   77        4.614711
   78        4.614711
   79        4.614711
   80        4.614711
   81        4.703413
   82        4.703413
   83        4.703413
   84        4.703413
   85        5.184443
   86        5.184444
   87        5.184444
   88        5.184444
   89        5.884257
   90        5.884257
   91        5.884258
   92        5.884258
   93        6.060291
   94        6.060291
   95        6.060291
   96        6.060291
   97        6.220817
   98        6.220817
   99        6.220818
  100        6.220818
  101        6.447052
  102        6.447052
  103        6.447053
  104        6.447053
  105        7.053948
  106        7.053949
 
  0.0000000E+00  0.0000000E+00  0.2500000E+00  0.3125000E-01
    1      -14.554937
    2      -14.276139
    3      -14.268153
    4      -14.207418
    5      -14.118007
    6      -14.108911
    7      -14.101775
    8      -14.074842
    9      -14.043973
   10      -14.037844
   11      -14.022063
   12      -13.984310
   13      -13.912061
   14      -13.908245
   15      -13.875868
   16      -13.850734
   17       -7.351471
   18       -7.321825
   19       -7.256724
   20       -7.249894
   21       -7.245122
   22       -7.240877
   23       -7.186614
   24       -7.095421
   25       -6.942848
   26       -6.942338
   27       -6.893280
   28       -6.886798
   29       -6.833125
   30       -6.786747
   31       -6.744279
   32       -6.664705
   33       -6.632083
   34       -6.628696
   35       -6.592262
   36       -6.486737
   37       -6.418462
   38       -6.393827
   39       -6.358639
   40       -6.358052
   41       -6.352882
   42       -6.300303
   43       -6.285938
   44       -6.230457
   45       -6.225157
   46       -6.204385
   47       -6.177646
   48       -6.177130
   49       -6.135615
   50       -6.133659
   51       -6.132489
   52       -6.124502
   53       -6.084592
   54       -6.075728
   55       -6.030100
   56       -6.025540
   57       -6.020129
   58       -6.015293
   59       -6.014968
   60       -5.978726
   61       -5.975033
   62       -5.919149
   63       -5.866326
   64       -5.852440
   65        2.084954
   66        3.378929
   67        3.436303
   68        3.457066
   69        3.572443
   70        3.691827
   71        3.739166
   72        3.984532
   73        3.986379
   74        4.030055
   75        4.136647
   76        4.388831
   77        4.556122
   78        4.685085
   79        4.734172
   80        4.750686
   81        4.891676
   82        4.912912
   83        4.983914
   84        5.073593
   85        5.210819
   86        5.229146
   87        5.371503
   88        5.624424
   89        5.625428
   90        5.672113
   91        5.751896
   92        5.764331
   93        5.840149
   94        5.891708
   95        5.923552
   96        5.959289
   97        6.017858
   98        6.465990
   99        6.542706
  100        6.648141
  101        6.778319
  102        6.818473
  103        6.877211
  104        6.914995
  105        7.018798
  106        7.061473
 
  0.2500000E+00  0.0000000E+00  0.2500000E+00  0.6250000E-01
    1      -14.532172
    2      -14.366260
    3      -14.261320
    4      -14.157323
    5      -14.121713
    6      -14.110526
    7      -14.098070
    8      -14.058099
    9      -14.042109
   10      -14.024819
   11      -14.019830
   12      -13.962052
   13      -13.913224
   14      -13.911254
   15      -13.900559
   16      -13.866144
   17       -7.317193
   18       -7.312827
   19       -7.305803
   20       -7.257742
   21       -7.215887
   22       -7.173634
   23       -7.117817
   24       -7.113103
   25       -6.976820
   26       -6.963495
   27       -6.962374
   28       -6.953843
   29       -6.911153
   30       -6.893712
   31       -6.697259
   32       -6.616389
   33       -6.590526
   34       -6.567327
   35       -6.474969
   36       -6.471021
   37       -6.470452
   38       -6.397631
   39       -6.374504
   40       -6.370210
   41       -6.366075
   42       -6.303448
   43       -6.254999
   44       -6.239469
   45       -6.229145
   46       -6.177895
   47       -6.165098
   48       -6.161319
   49       -6.148737
   50       -6.146221
   51       -6.113505
   52       -6.093970
   53       -6.091048
   54       -6.080964
   55       -6.055354
   56       -6.043695
   57       -6.031075
   58       -6.011448
   59       -5.994836
   60       -5.972886
   61       -5.967435
   62       -5.938608
   63       -5.885699
   64       -5.870815
   65        2.191410
   66        2.925340
   67        3.488774
   68        3.556711
   69        3.671838
   70        3.766425
   71        3.812612
   72        3.944709
   73        3.945864
   74        4.122494
   75        4.132016
   76        4.409081
   77        4.604317
   78        4.669527
   79        4.734189
   80        4.737280
   81        4.871378
   82        4.871552
   83        4.936858
   84        5.121709
   85        5.211519
   86        5.278419
   87        5.378047
   88        5.413508
   89        5.662271
   90        5.740065
   91        5.777783
   92        5.811679
   93        5.848015
   94        5.874639
   95        5.893651
   96        5.968974
   97        5.991353
   98        6.224320
   99        6.622783
  100        6.670852
  101        6.758197
  102        6.758614
  103        6.910033
  104        6.959076
  105        6.959279
  106        7.077916
 
  0.5000000E+00  0.0000000E+00  0.2500000E+00  0.3125000E-01
    1      -14.466499
    2      -14.466498
    3      -14.219246
    4      -14.219245
    5      -14.114524
    6      -14.114523
    7      -14.050082
    8      -14.050081
    9      -14.017917
   10      -14.017915
   11      -13.986852
   12      -13.986851
   13      -13.909074
   14      -13.909071
   15      -13.908566
   16      -13.908565
   17       -7.328083
   18       -7.328082
   19       -7.210696
   20       -7.210694
   21       -7.188946
   22       -7.188945
   23       -7.100040
   24       -7.100038
   25       -7.044471
   26       -7.044470
   27       -6.975041
   28       -6.975040
   29       -6.961907
   30       -6.961907
   31       -6.625276
   32       -6.625276
   33       -6.574707
   34       -6.574706
   35       -6.440363
   36       -6.440362
   37       -6.434705
   38       -6.434705
   39       -6.332915
   40       -6.332915
   41       -6.332498
   42       -6.332497
   43       -6.274480
   44       -6.274479
   45       -6.228631
   46       -6.228630
   47       -6.134610
   48       -6.134609
   49       -6.105952
   50       -6.105951
   51       -6.100878
   52       -6.100877
   53       -6.095364
   54       -6.095363
   55       -6.066799
   56       -6.066798
   57       -6.036328
   58       -6.036327
   59       -5.990854
   60       -5.990853
   61       -5.924855
   62       -5.924855
   63       -5.916338
   64       -5.916338
   65        2.490584
   66        2.490585
   67        3.527172
   68        3.527172
   69        3.766055
   70        3.766057
   71        3.838542
   72        3.838542
   73        4.064547
   74        4.064548
   75        4.358423
   76        4.358424
   77        4.595947
   78        4.595948
   79        4.756348
   80        4.756350
   81        4.834695
   82        4.834697
   83        5.084816
   84        5.084817
   85        5.181552
   86        5.181554
   87        5.483462
   88        5.483463
   89        5.582421
   90        5.582421
   91        5.729362
   92        5.729362
   93        5.815575
   94        5.815576
   95        6.023290
   96        6.023291
   97        6.169557
   98        6.169557
   99        6.472957
  100        6.472957
  101        6.804313
  102        6.804313
  103        6.909623
  104        6.909623
  105        7.112771
  106        7.113306
 
  0.0000000E+00  0.2500000E+00  0.2500000E+00  0.6250000E-01
    1      -14.512258
    2      -14.250225
    3      -14.246824
    4      -14.234768
    5      -14.181592
    6      -14.132660
    7      -14.103923
    8      -14.051507
    9      -14.050603
   10      -14.043329
   11      -14.039636
   12      -13.950157
   13      -13.933745
   14      -13.890232
   15      -13.878854
   16      -13.857636
   17       -7.314034
   18       -7.301986
   19       -7.260543
   20       -7.223001
   21       -7.203404
   22       -7.197256
   23       -7.159829
   24       -6.930189
   25       -6.914971
   26       -6.900699
   27       -6.887925
   28       -6.843677
   29       -6.801331
   30       -6.771074
   31       -6.756215
   32       -6.743802
   33       -6.710229
   34       -6.652879
   35       -6.587942
   36       -6.528077
   37       -6.447603
   38       -6.391882
   39       -6.386921
   40       -6.362445
   41       -6.308364
   42       -6.302220
   43       -6.286517
   44       -6.286422
   45       -6.258966