# Thermal properties / unit cell (natom)

unit:
  temperature:   K
  free_energy:   kJ/mol
  entropy:       J/K/mol
  heat_capacity: J/K/mol

natom:     2
num_modes: 1944
num_integrated_modes: 1944

zero_point_energy:      34.5257670
high_T_entropy:        108.9233179

thermal_properties:
- temperature:         0.0000000
  free_energy:        34.5257670
  entropy:             0.0000000
  heat_capacity:       0.0000000
  energy:             34.5257670

- temperature:        10.0000000
  free_energy:        34.5257670
  entropy:             0.0000000
  heat_capacity:       0.0000000
  energy:             34.5257670

- temperature:        20.0000000
  free_energy:        34.5257670
  entropy:             0.0000054
  heat_capacity:       0.0000672
  energy:             34.5257671

- temperature:        30.0000000
  free_energy:        34.5257660
  entropy:             0.0003365
  heat_capacity:       0.0027865
  energy:             34.5257761

- temperature:        40.0000000
  free_energy:        34.5257535
  entropy:             0.0027093
  heat_capacity:       0.0171606
  energy:             34.5258619

- temperature:        50.0000000
  free_energy:        34.5256960
  entropy:             0.0098100
  heat_capacity:       0.0515606
  energy:             34.5261865

- temperature:        60.0000000
  free_energy:        34.5255335
  entropy:             0.0240486
  heat_capacity:       0.1109431
  energy:             34.5269764

- temperature:        70.0000000
  free_energy:        34.5251846
  entropy:             0.0474138
  heat_capacity:       0.1998229
  energy:             34.5285035

- temperature:        80.0000000
  free_energy:        34.5245486
  entropy:             0.0817583
  heat_capacity:       0.3236426
  energy:             34.5310893

- temperature:        90.0000000
  free_energy:        34.5235066
  entropy:             0.1289517
  heat_capacity:       0.4881856
  energy:             34.5351122

- temperature:       100.0000000
  free_energy:        34.5219206
  entropy:             0.1908491
  heat_capacity:       0.6984123
  energy:             34.5410055

- temperature:       110.0000000
  free_energy:        34.5196348
  entropy:             0.2691752
  heat_capacity:       0.9576566
  energy:             34.5492441

- temperature:       120.0000000
  free_energy:        34.5164773
  entropy:             0.3654161
  heat_capacity:       1.2674402
  energy:             34.5603273

- temperature:       130.0000000
  free_energy:        34.5122628
  entropy:             0.4807585
  heat_capacity:       1.6277366
  energy:             34.5747614

- temperature:       140.0000000
  free_energy:        34.5067955
  entropy:             0.6160796
  heat_capacity:       2.0374137
  energy:             34.5930467

- temperature:       150.0000000
  free_energy:        34.4998726
  entropy:             0.7719709
  heat_capacity:       2.4946487
  energy:             34.6156682

- temperature:       160.0000000
  free_energy:        34.4912864
  entropy:             0.9487777
  heat_capacity:       2.9972239
  energy:             34.6430908

- temperature:       170.0000000
  free_energy:        34.4808268
  entropy:             1.1466404
  heat_capacity:       3.5426921
  energy:             34.6757557

- temperature:       180.0000000
  free_energy:        34.4682835
  entropy:             1.3655305
  heat_capacity:       4.1284456
  energy:             34.7140789

- temperature:       190.0000000
  free_energy:        34.4534467
  entropy:             1.6052792
  heat_capacity:       4.7517297
  energy:             34.7584497

- temperature:       200.0000000
  free_energy:        34.4361093
  entropy:             1.8655983
  heat_capacity:       5.4096366
  energy:             34.8092290

- temperature:       210.0000000
  free_energy:        34.4160674
  entropy:             2.1460963
  heat_capacity:       6.0991024
  energy:             34.8667477

- temperature:       220.0000000
  free_energy:        34.3931217
  entropy:             2.4462901
  heat_capacity:       6.8169173
  energy:             34.9313055

- temperature:       230.0000000
  free_energy:        34.3670779
  entropy:             2.7656155
  heat_capacity:       7.5597524
  energy:             35.0031694

- temperature:       240.0000000
  free_energy:        34.3377477
  entropy:             3.1034370
  heat_capacity:       8.3241993
  energy:             35.0825726

- temperature:       250.0000000
  free_energy:        34.3049498
  entropy:             3.4590568
  heat_capacity:       9.1068181
  energy:             35.1697140

- temperature:       260.0000000
  free_energy:        34.2685098
  entropy:             3.8317245
  heat_capacity:       9.9041893
  energy:             35.2647581

- temperature:       270.0000000
  free_energy:        34.2282611
  entropy:             4.2206469
  heat_capacity:      10.7129632
  energy:             35.3678358

- temperature:       280.0000000
  free_energy:        34.1840454
  entropy:             4.6249972
  heat_capacity:      11.5299056
  energy:             35.4790446

- temperature:       290.0000000
  free_energy:        34.1357126
  entropy:             5.0439250
  heat_capacity:      12.3519363
  energy:             35.5984508

- temperature:       300.0000000
  free_energy:        34.0831212
  entropy:             5.4765648
  heat_capacity:      13.1761595
  energy:             35.7260906

- temperature:       310.0000000
  free_energy:        34.0261385
  entropy:             5.9220447
  heat_capacity:      13.9998869
  energy:             35.8619723

- temperature:       320.0000000
  free_energy:        33.9646404
  entropy:             6.3794939
  heat_capacity:      14.8206518
  energy:             36.0060785

- temperature:       330.0000000
  free_energy:        33.8985116
  entropy:             6.8480498
  heat_capacity:      15.6362172
  energy:             36.1583680

- temperature:       340.0000000
  free_energy:        33.8276452
  entropy:             7.3268634
  heat_capacity:      16.4445778
  energy:             36.3187788

- temperature:       350.0000000
  free_energy:        33.7519429
  entropy:             7.8151049
  heat_capacity:      17.2439563
  energy:             36.4872296

- temperature:       360.0000000
  free_energy:        33.6713144
  entropy:             8.3119677
  heat_capacity:      18.0327967
  energy:             36.6636227

- temperature:       370.0000000
  free_energy:        33.5856774
  entropy:             8.8166716
  heat_capacity:      18.8097541
  energy:             36.8478459

- temperature:       380.0000000
  free_energy:        33.4949573
  entropy:             9.3284659
  heat_capacity:      19.5736822
  energy:             37.0397744

- temperature:       390.0000000
  free_energy:        33.3990869
  entropy:             9.8466309
  heat_capacity:      20.3236199
  energy:             37.2392729

- temperature:       400.0000000
  free_energy:        33.2980058
  entropy:            10.3704793
  heat_capacity:      21.0587768
  energy:             37.4461975

- temperature:       410.0000000
  free_energy:        33.1916605
  entropy:            10.8993574
  heat_capacity:      21.7785185
  energy:             37.6603970

- temperature:       420.0000000
  free_energy:        33.0800039
  entropy:            11.4326450
  heat_capacity:      22.4823518
  energy:             37.8817148

- temperature:       430.0000000
  free_energy:        32.9629949
  entropy:            11.9697557
  heat_capacity:      23.1699108
  energy:             38.1099898

- temperature:       440.0000000
  free_energy:        32.8405979
  entropy:            12.5101364
  heat_capacity:      23.8409429
  energy:             38.3450579

- temperature:       450.0000000
  free_energy:        32.7127830
  entropy:            13.0532669
  heat_capacity:      24.4952959
  energy:             38.5867531

- temperature:       460.0000000
  free_energy:        32.5795250
  entropy:            13.5986587
  heat_capacity:      25.1329062
  energy:             38.8349080

- temperature:       470.0000000
  free_energy:        32.4408038
  entropy:            14.1458545
  heat_capacity:      25.7537876
  energy:             39.0893554

- temperature:       480.0000000
  free_energy:        32.2966034
  entropy:            14.6944269
  heat_capacity:      26.3580206
  energy:             39.3499283

- temperature:       490.0000000
  free_energy:        32.1469120
  entropy:            15.2439771
  heat_capacity:      26.9457437
  energy:             39.6164608

- temperature:       500.0000000
  free_energy:        31.9917218
  entropy:            15.7941339
  heat_capacity:      27.5171444
  energy:             39.8887887

- temperature:       510.0000000
  free_energy:        31.8310284
  entropy:            16.3445521
  heat_capacity:      28.0724517
  energy:             40.1667500

- temperature:       520.0000000
  free_energy:        31.6648310
  entropy:            16.8949116
  heat_capacity:      28.6119295
  energy:             40.4501850

- temperature:       530.0000000
  free_energy:        31.4931314
  entropy:            17.4449159
  heat_capacity:      29.1358701
  energy:             40.7389368

- temperature:       540.0000000
  free_energy:        31.3159347
  entropy:            17.9942906
  heat_capacity:      29.6445894
  energy:             41.0328517

- temperature:       550.0000000
  free_energy:        31.1332485
  entropy:            18.5427826
  heat_capacity:      30.1384212
  energy:             41.3317790

- temperature:       560.0000000
  free_energy:        30.9450828
  entropy:            19.0901586
  heat_capacity:      30.6177139
  energy:             41.6355716

- temperature:       570.0000000
  free_energy:        30.7514498
  entropy:            19.6362038
  heat_capacity:      31.0828263
  energy:             41.9440860

- temperature:       580.0000000
  free_energy:        30.5523638
  entropy:            20.1807212
  heat_capacity:      31.5341246
  energy:             42.2571821

- temperature:       590.0000000
  free_energy:        30.3478411
  entropy:            20.7235298
  heat_capacity:      31.9719797
  energy:             42.5747237

- temperature:       600.0000000
  free_energy:        30.1378995
  entropy:            21.2644644
  heat_capacity:      32.3967644
  energy:             42.8965781

- temperature:       610.0000000
  free_energy:        29.9225585
  entropy:            21.8033739
  heat_capacity:      32.8088519
  energy:             43.2226166

- temperature:       620.0000000
  free_energy:        29.7018392
  entropy:            22.3401208
  heat_capacity:      33.2086135
  energy:             43.5527141

- temperature:       630.0000000
  free_energy:        29.4757638
  entropy:            22.8745798
  heat_capacity:      33.5964177
  energy:             43.8867490

- temperature:       640.0000000
  free_energy:        29.2443556
  entropy:            23.4066378
  heat_capacity:      33.9726283
  energy:             44.2246038

- temperature:       650.0000000
  free_energy:        29.0076393
  entropy:            23.9361920
  heat_capacity:      34.3376038
  energy:             44.5661642

- temperature:       660.0000000
  free_energy:        28.7656404
  entropy:            24.4631502
  heat_capacity:      34.6916967
  energy:             44.9113196

- temperature:       670.0000000
  free_energy:        28.5183853
  entropy:            24.9874294
  heat_capacity:      35.0352521
  energy:             45.2599630

- temperature:       680.0000000
  free_energy:        28.2659010
  entropy:            25.5089553
  heat_capacity:      35.3686080
  energy:             45.6119906

- temperature:       690.0000000
  free_energy:        28.0082156
  entropy:            26.0276618
  heat_capacity:      35.6920940
  energy:             45.9673022

- temperature:       700.0000000
  free_energy:        27.7453574
  entropy:            26.5434904
  heat_capacity:      36.0060319
  energy:             46.3258007

- temperature:       710.0000000
  free_energy:        27.4773555
  entropy:            27.0563895
  heat_capacity:      36.3107346
  energy:             46.6873921

- temperature:       720.0000000
  free_energy:        27.2042395
  entropy:            27.5663140
  heat_capacity:      36.6065066
  energy:             47.0519856

- temperature:       730.0000000
  free_energy:        26.9260393
  entropy:            28.0732249
  heat_capacity:      36.8936434
  energy:             47.4194934

- temperature:       740.0000000
  free_energy:        26.6427852
  entropy:            28.5770885
  heat_capacity:      37.1724318
  energy:             47.7898307

- temperature:       750.0000000
  free_energy:        26.3545078
  entropy:            29.0778765
  heat_capacity:      37.4431498
  energy:             48.1629152

- temperature:       760.0000000
  free_energy:        26.0612380
  entropy:            29.5755654
  heat_capacity:      37.7060667
  energy:             48.5386676

- temperature:       770.0000000
  free_energy:        25.7630069
  entropy:            30.0701357
  heat_capacity:      37.9614432
  energy:             48.9170114

- temperature:       780.0000000
  free_energy:        25.4598457
  entropy:            30.5615725
  heat_capacity:      38.2095313
  energy:             49.2978722

- temperature:       790.0000000
  free_energy:        25.1517859
  entropy:            31.0498641
  heat_capacity:      38.4505749
  energy:             49.6811785

- temperature:       800.0000000
  free_energy:        24.8388589
  entropy:            31.5350026
  heat_capacity:      38.6848094
  energy:             50.0668610

- temperature:       810.0000000
  free_energy:        24.5210964
  entropy:            32.0169832
  heat_capacity:      38.9124624
  energy:             50.4548528

- temperature:       820.0000000
  free_energy:        24.1985298
  entropy:            32.4958040
  heat_capacity:      39.1337535
  energy:             50.8450891

- temperature:       830.0000000
  free_energy:        23.8711908
  entropy:            32.9714657
  heat_capacity:      39.3488948
  energy:             51.2375073

- temperature:       840.0000000
  free_energy:        23.5391110
  entropy:            33.4439716
  heat_capacity:      39.5580909
  energy:             51.6320471

- temperature:       850.0000000
  free_energy:        23.2023219
  entropy:            33.9133272
  heat_capacity:      39.7615391
  energy:             52.0286500

- temperature:       860.0000000
  free_energy:        22.8608549
  entropy:            34.3795401
  heat_capacity:      39.9594299
  energy:             52.4272594

- temperature:       870.0000000
  free_energy:        22.5147415
  entropy:            34.8426197
  heat_capacity:      40.1519467
  energy:             52.8278207

- temperature:       880.0000000
  free_energy:        22.1640129
  entropy:            35.3025773
  heat_capacity:      40.3392667
  energy:             53.2302810

- temperature:       890.0000000
  free_energy:        21.8087003
  entropy:            35.7594258
  heat_capacity:      40.5215604
  energy:             53.6345893

- temperature:       900.0000000
  free_energy:        21.4488347
  entropy:            36.2131792
  heat_capacity:      40.6989923
  energy:             54.0406960

- temperature:       910.0000000
  free_energy:        21.0844470
  entropy:            36.6638532
  heat_capacity:      40.8717210
  energy:             54.4485534

- temperature:       920.0000000
  free_energy:        20.7155679
  entropy:            37.1114645
  heat_capacity:      41.0398994
  energy:             54.8581153

- temperature:       930.0000000
  free_energy:        20.3422279
  entropy:            37.5560310
  heat_capacity:      41.2036746
  energy:             55.2693367

- temperature:       940.0000000
  free_energy:        19.9644574
  entropy:            37.9975715
  heat_capacity:      41.3631888
  energy:             55.6821746

- temperature:       950.0000000
  free_energy:        19.5822865
  entropy:            38.4361056
  heat_capacity:      41.5185786
  energy:             56.0965868

- temperature:       960.0000000
  free_energy:        19.1957452
  entropy:            38.8716538
  heat_capacity:      41.6699760
  energy:             56.5125328

- temperature:       970.0000000
  free_energy:        18.8048633
  entropy:            39.3042372
  heat_capacity:      41.8175080
  energy:             56.9299734

- temperature:       980.0000000
  free_energy:        18.4096703
  entropy:            39.7338778
  heat_capacity:      41.9612972
  energy:             57.3488705

- temperature:       990.0000000
  free_energy:        18.0101955
  entropy:            40.1605978
  heat_capacity:      42.1014616
  energy:             57.7691873

- temperature:      1000.0000000
  free_energy:        17.6064680
  entropy:            40.5844201
  heat_capacity:      42.2381151
  energy:             58.1908880
