diamond                                 
           1
     6.130858    0.000000    0.000000
     0.000000    6.130858    0.000000
     0.000000    0.000000    6.130858
   H    C 
  16   4
Direct configuration=     1
   0.60030001  0.52968001  0.15026000
   0.54931998  0.63409001  0.89600998
   0.56970000  0.35765001  0.93207002
   0.34876001  0.49586999  0.03313000
   0.96934003  0.10341001  0.13061000
   0.95473999  0.05858004  0.85507000
   0.16532004  0.94997001  0.00338000
   0.90644997  0.84893000  0.03353000
   0.07562006  0.53223002  0.66030997
   0.02463996  0.63664001  0.40605000
   0.04501998  0.36019999  0.44211999
   0.82406998  0.49842000  0.54316997
   0.57178003  0.02575004  0.62698001
   0.52079999  0.13015997  0.37272999
   0.54118002  0.85372001  0.40878999
   0.32023999  0.99194002  0.50984001
   0.51703000  0.50432998  0.00287000
   0.99896002  0.99023002  0.00565000
   0.99234003  0.50687998  0.51292002
   0.48850000  0.00039995  0.47959000
Direct configuration=     2
   0.62259312  0.53934165  0.19800260
   0.56363489  0.67258342  0.86223684
   0.58743379  0.31694298  0.91112973
   0.30079804  0.49658886  0.04044173
   0.95616546  0.13293160  0.16230196
   0.93905238  0.08201554  0.81529738
   0.21168226  0.93574963  0.00168744
   0.88068249  0.81164818  0.05100639
   0.10005935  0.53554942  0.70220043
   0.03564548  0.67119245  0.37220518
   0.05560039  0.32085759  0.41798435
   0.77698002  0.49359270  0.54949266
   0.59271410  0.03115763  0.66944488
   0.53626549  0.16367557  0.34173358
   0.55634191  0.81640863  0.38759021
   0.27130317  0.98688220  0.52298394
   0.51563214  0.50350836  0.00199206
   0.00005783  0.99071191  0.00559626
   0.99257736  0.50707189  0.51373481
   0.48889043  0.00066988  0.47801750
Direct configuration=     3
   0.62644068  0.54100915  0.20624248
   0.56610549  0.67922699  0.85640794
   0.59049446  0.30991736  0.90751565
   0.29252029  0.49671293  0.04170366
   0.95389167  0.13802672  0.16777167
   0.93634486  0.08606026  0.80843304
   0.21968390  0.93329534  0.00139532
   0.87623529  0.80521372  0.05402264
   0.10427732  0.53612232  0.70943029
   0.03754492  0.67715584  0.36636391
   0.05742646  0.31406749  0.41381879
   0.76885278  0.49275955  0.55058389
   0.59632710  0.03209092  0.67677388
   0.53893467  0.16946002  0.33638392
   0.55895870  0.80996907  0.38393135
   0.26285718  0.98600927  0.52525245
   0.51539089  0.50336656  0.00184054
   0.00024730  0.99079508  0.00558698
   0.99261832  0.50710501  0.51387544
   0.48895781  0.00071647  0.47774610
Direct configuration=     4
   0.63413580  0.54434415  0.22272224
   0.57104670  0.69251413  0.84475015
   0.59661580  0.29586613  0.90028750
   0.27596481  0.49696107  0.04422752
   0.94934408  0.14821697  0.17871108
   0.93092983  0.09414971  0.79470435
   0.23568718  0.92838675  0.00081108
   0.86734089  0.79234481  0.06005513
   0.11271326  0.53726811  0.72389001
   0.04134380  0.68908263  0.35468138
   0.06107860  0.30048730  0.40548767
   0.75259830  0.49109327  0.55276636
   0.60355311  0.03395751  0.69143188
   0.54427304  0.18102891  0.32568460
   0.56419227  0.79708995  0.37661362
   0.24596519  0.98426341  0.52978946
   0.51490837  0.50308295  0.00153749
   0.00062624  0.99096142  0.00556843
   0.99270025  0.50717125  0.51415669
   0.48909258  0.00080965  0.47720331
