diamond                                 
           1
    11.303853    0.000000    0.000000
     0.000000    7.906682    0.000000
     0.000000    0.000000    7.901759
   H    C 
  56  16
Direct configuration=     1
   0.80100000  0.57950002  0.93360001
   0.19900000  0.42049998  0.06639999
   0.19900000  0.92049998  0.43360001
   0.80100000  0.07950002  0.56639999
   0.19900000  0.07950002  0.56639999
   0.80100000  0.92049998  0.43360001
   0.80100000  0.42049998  0.06639999
   0.19900000  0.57950002  0.93360001
   0.30100000  0.07950002  0.93360001
   0.69900000  0.92049998  0.06639999
   0.69900000  0.42049998  0.43360001
   0.30100000  0.57950002  0.56639999
   0.69900000  0.57950002  0.56639999
   0.30100000  0.42049998  0.43360001
   0.30100000  0.92049998  0.06639999
   0.69900000  0.07950002  0.93360001
   0.69859999  0.56629997  0.07959998
   0.30140001  0.43370003  0.92040002
   0.30140001  0.93370003  0.57959998
   0.69859999  0.06629997  0.42040002
   0.30140001  0.06629997  0.42040002
   0.69859999  0.93370003  0.57959998
   0.69859999  0.43370003  0.92040002
   0.30140001  0.56629997  0.07959998
   0.19859999  0.06629997  0.07959998
   0.80140001  0.93370003  0.92040002
   0.80140001  0.43370003  0.57959998
   0.19859999  0.56629997  0.42040002
   0.80140001  0.56629997  0.42040002
   0.19859999  0.43370003  0.57959998
   0.19859999  0.93370003  0.92040002
   0.80140001  0.06629997  0.07959998
   0.07280000  0.78549999  0.18230000
   0.92720002  0.21450001  0.81770003
   0.92720002  0.71450001  0.68229997
   0.07280000  0.28549999  0.31770000
   0.92720002  0.28549999  0.31770000
   0.07280000  0.71450001  0.68229997
   0.07280000  0.21450001  0.81770003
   0.92720002  0.78549999  0.18230000
   0.57279998  0.28549999  0.18230000
   0.42719999  0.71450001  0.81770003
   0.42719999  0.21450001  0.68229997
   0.57279998  0.78549999  0.31770000
   0.42719999  0.78549999  0.31770000
   0.57279998  0.21450001  0.68229997
   0.57279998  0.71450001  0.81770003
   0.42719999  0.28549999  0.18230000
   0.00000000  0.60589999  0.19920000
   0.00000000  0.39410001  0.80079997
   0.00000000  0.89410001  0.69920003
   0.00000000  0.10589999  0.30080000
   0.50000000  0.10589999  0.19920000
   0.50000000  0.89410001  0.80079997
   0.50000000  0.39410001  0.69920003
   0.50000000  0.60589999  0.30080000
   0.00000000  0.72960001  0.23029999
   0.00000000  0.27039999  0.76969999
   0.00000000  0.77039999  0.73030001
   0.00000000  0.22960001  0.26969999
   0.50000000  0.22960001  0.23029999
   0.50000000  0.77039999  0.76969999
   0.50000000  0.27039999  0.73030001
   0.50000000  0.72960001  0.26969999
   0.74980003  0.50000000  0.00000000
   0.25019997  0.50000000  0.00000000
   0.25019997  0.00000000  0.50000000
   0.74980003  0.00000000  0.50000000
   0.24980003  0.00000000  0.00000000
   0.75019997  0.00000000  0.00000000
   0.75019997  0.50000000  0.50000000
   0.24980003  0.50000000  0.50000000
Direct configuration=     2
   0.81079409  0.59456399  0.92117097
   0.18920591  0.40543601  0.07882903
   0.18920591  0.90543601  0.42117097
   0.81079409  0.09456399  0.57882903
   0.18920591  0.09456399  0.57882903
   0.81079409  0.90543601  0.42117097
   0.81079409  0.40543601  0.07882903
   0.18920591  0.59456399  0.92117097
   0.31079409  0.09456399  0.92117097
   0.68920591  0.90543601  0.07882903
   0.68920591  0.40543601  0.42117097
   0.31079409  0.59456399  0.57882903
   0.68920591  0.59456399  0.57882903
   0.31079409  0.40543601  0.42117097
   0.31079409  0.90543601  0.07882903
   0.68920591  0.09456399  0.92117097
   0.68882343  0.57894254  0.09460775
   0.31117657  0.42105746  0.90539225
   0.31117657  0.92105746  0.59460775
   0.68882343  0.07894254  0.40539225
   0.31117657  0.07894254  0.40539225
   0.68882343  0.92105746  0.59460775
   0.68882343  0.42105746  0.90539225
   0.31117657  0.57894254  0.09460775
   0.18882343  0.07894254  0.09460775
   0.81117657  0.92105746  0.90539225
   0.81117657  0.42105746  0.59460775
   0.18882343  0.57894254  0.40539225
   0.81117657  0.57894254  0.40539225
   0.18882343  0.42105746  0.59460775
   0.18882343  0.92105746  0.90539225
   0.81117657  0.07894254  0.09460775
   0.08707368  0.79717614  0.17967590
   0.91292635  0.20282386  0.82032413
   0.91292635  0.70282386  0.67967587
   0.08707368  0.29717614  0.32032410
   0.91292635  0.29717614  0.32032410
   0.08707368  0.70282386  0.67967587
   0.08707368  0.20282386  0.82032413
   0.91292635  0.79717614  0.17967590
   0.58707365  0.29717614  0.17967590
   0.41292632  0.70282386  0.82032413
   0.41292632  0.20282386  0.67967587
   0.58707365  0.79717614  0.32032410
   0.41292632  0.79717614  0.32032410
   0.58707365  0.20282386  0.67967587
   0.58707365  0.70282386  0.82032413
   0.41292632  0.29717614  0.17967590
  -0.00000000  0.58232438  0.19994502
  -0.00000000  0.41767562  0.80005495
  -0.00000000  0.91767562  0.69994505
  -0.00000000  0.08232438  0.30005498
   0.50000000  0.08232438  0.19994502
   0.50000000  0.91767562  0.80005495
   0.50000000  0.41767562  0.69994505
   0.50000000  0.58232438  0.30005498
  -0.00000000  0.73019484  0.23471970
  -0.00000000  0.26980516  0.76528029
  -0.00000000  0.76980516  0.73471971
  -0.00000000  0.23019484  0.26528029
   0.50000000  0.23019484  0.23471970
   0.50000000  0.76980516  0.76528029
   0.50000000  0.26980516  0.73471971
   0.50000000  0.73019484  0.26528029
   0.74974672  0.50000000 -0.00000000
   0.25025328  0.50000000 -0.00000000
   0.25025328  0.00000000  0.50000000
   0.74974672 -0.00000000  0.50000000
   0.24974672 -0.00000000 -0.00000000
   0.75025328 -0.00000000 -0.00000000
   0.75025328  0.50000000  0.50000000
   0.24974672  0.50000000  0.50000000
Direct configuration=     3
   0.80572929  0.58677399  0.92759837
   0.19427071  0.41322601  0.07240163
   0.19427071  0.91322601  0.42759837
   0.80572929  0.08677399  0.57240163
   0.19427071  0.08677399  0.57240163
   0.80572929  0.91322601  0.42759837
   0.80572929  0.41322601  0.07240163
   0.19427071  0.58677399  0.92759837
   0.30572929  0.08677399  0.92759837
   0.69427071  0.91322601  0.07240163
   0.69427071  0.41322601  0.42759837
   0.30572929  0.58677399  0.57240163
   0.69427071  0.58677399  0.57240163
   0.30572929  0.41322601  0.42759837
   0.30572929  0.91322601  0.07240163
   0.69427071  0.08677399  0.92759837
   0.69387916  0.57240472  0.08684681
   0.30612084  0.42759528  0.91315319
   0.30612084  0.92759528  0.58684681
   0.69387916  0.07240472  0.41315319
   0.30612084  0.07240472  0.41315319
   0.69387916  0.92759528  0.58684681
   0.69387916  0.42759528  0.91315319
   0.30612084  0.57240472  0.08684681
   0.19387916  0.07240472  0.08684681
   0.80612084  0.92759528  0.91315319
   0.80612084  0.42759528  0.58684681
   0.19387916  0.57240472  0.41315319
   0.80612084  0.57240472  0.41315319
   0.19387916  0.42759528  0.58684681
   0.19387916  0.92759528  0.91315319
   0.80612084  0.07240472  0.08684681
   0.07969236  0.79113808  0.18103290
   0.92030766  0.20886192  0.81896713
   0.92030766  0.70886192  0.68103287
   0.07969236  0.29113808  0.31896710
   0.92030766  0.29113808  0.31896710
   0.07969236  0.70886192  0.68103287
   0.07969236  0.20886192  0.81896713
   0.92030766  0.79113808  0.18103290
   0.57969234  0.29113808  0.18103290
   0.42030763  0.70886192  0.81896713
   0.42030763  0.20886192  0.68103287
   0.57969234  0.79113808  0.31896710
   0.42030763  0.79113808  0.31896710
   0.57969234  0.20886192  0.68103287
   0.57969234  0.70886192  0.81896713
   0.42030763  0.29113808  0.18103290
  -0.00000000  0.59451598  0.19955975
  -0.00000000  0.40548402  0.80044022
  -0.00000000  0.90548402  0.69955978
  -0.00000000  0.09451598  0.30044025
   0.50000000  0.09451598  0.19955975
   0.50000000  0.90548402  0.80044022
   0.50000000  0.40548402  0.69955978
   0.50000000  0.59451598  0.30044025
  -0.00000000  0.72988724  0.23243415
  -0.00000000  0.27011276  0.76756584
  -0.00000000  0.77011276  0.73243416
  -0.00000000  0.22988724  0.26756584
   0.50000000  0.22988724  0.23243415
   0.50000000  0.77011276  0.76756584
   0.50000000  0.27011276  0.73243416
   0.50000000  0.72988724  0.26756584
   0.74977429  0.50000000 -0.00000000
   0.25022571  0.50000000 -0.00000000
   0.25022571  0.00000000  0.50000000
   0.74977429 -0.00000000  0.50000000
   0.24977429 -0.00000000 -0.00000000
   0.75022571 -0.00000000 -0.00000000
   0.75022571  0.50000000  0.50000000
   0.24977429  0.50000000  0.50000000
Direct configuration=     4
   0.80645275  0.58775255  0.92693828
   0.19354725  0.41224745  0.07306172
   0.19354725  0.91224745  0.42693828
   0.80645275  0.08775255  0.57306172
   0.19354725  0.08775255  0.57306172
   0.80645275  0.91224745  0.42693828
   0.80645275  0.41224745  0.07306172
   0.19354725  0.58775255  0.92693828
   0.30645275  0.08775255  0.92693828
   0.69354725  0.91224745  0.07306172
   0.69354725  0.41224745  0.42693828
   0.30645275  0.58775255  0.57306172
   0.69354725  0.58775255  0.57306172
   0.30645275  0.41224745  0.42693828
   0.30645275  0.91224745  0.07306172
   0.69354725  0.08775255  0.92693828
   0.69315470  0.57331623  0.08777594
   0.30684530  0.42668377  0.91222406
   0.30684530  0.92668377  0.58777594
   0.69315470  0.07331623  0.41222406
   0.30684530  0.07331623  0.41222406
   0.69315470  0.92668377  0.58777594
   0.69315470  0.42668377  0.91222406
   0.30684530  0.57331623  0.08777594
   0.19315470  0.07331623  0.08777594
   0.80684530  0.92668377  0.91222406
   0.80684530  0.42668377  0.58777594
   0.19315470  0.57331623  0.41222406
   0.80684530  0.57331623  0.41222406
   0.19315470  0.42668377  0.58777594
   0.19315470  0.92668377  0.91222406
   0.80684530  0.07331623  0.08777594
   0.08098906  0.79268124  0.18488801
   0.91901096  0.20731876  0.81511202
   0.91901096  0.70731876  0.68488798
   0.08098906  0.29268124  0.31511199
   0.91901096  0.29268124  0.31511199
   0.08098906  0.70731876  0.68488798
   0.08098906  0.20731876  0.81511202
   0.91901096  0.79268124  0.18488801
   0.58098904  0.29268124  0.18488801
   0.41901093  0.70731876  0.81511202
   0.41901093  0.20731876  0.68488798
   0.58098904  0.79268124  0.31511199
   0.41901093  0.79268124  0.31511199
   0.58098904  0.20731876  0.68488798
   0.58098904  0.70731876  0.81511202
   0.41901093  0.29268124  0.18488801
  -0.00000000  0.59282524  0.20386247
  -0.00000000  0.40717476  0.79613750
  -0.00000000  0.90717476  0.70386250
  -0.00000000  0.09282524  0.29613753
   0.50000000  0.09282524  0.20386247
   0.50000000  0.90717476  0.79613750
   0.50000000  0.40717476  0.70386250
   0.50000000  0.59282524  0.29613753
  -0.00000000  0.72879589  0.22019164
  -0.00000000  0.27120411  0.77980835
  -0.00000000  0.77120411  0.72019165
  -0.00000000  0.22879589  0.27980835
   0.50000000  0.22879589  0.22019164
   0.50000000  0.77120411  0.77980835
   0.50000000  0.27120411  0.72019165
   0.50000000  0.72879589  0.27980835
   0.74975187  0.50000000 -0.00000000
   0.25024813  0.50000000 -0.00000000
   0.25024813 -0.00000000  0.50000000
   0.74975187 -0.00000000  0.50000000
   0.24975187 -0.00000000 -0.00000000
   0.75024813 -0.00000000 -0.00000000
   0.75024813  0.50000000  0.50000000
   0.24975187  0.50000000  0.50000000
Direct configuration=     5
   0.80696871  0.58845044  0.92646752
   0.19303129  0.41154956  0.07353248
   0.19303129  0.91154956  0.42646752
   0.80696871  0.08845044  0.57353248
   0.19303129  0.08845044  0.57353248
   0.80696871  0.91154956  0.42646752
   0.80696871  0.41154956  0.07353248
   0.19303129  0.58845044  0.92646752
   0.30696871  0.08845044  0.92646752
   0.69303129  0.91154956  0.07353248
   0.69303129  0.41154956  0.42646752
   0.30696871  0.58845044  0.57353248
   0.69303129  0.58845044  0.57353248
   0.30696871  0.41154956  0.42646752
   0.30696871  0.91154956  0.07353248
   0.69303129  0.08845044  0.92646752
   0.69263803  0.57396631  0.08843858
   0.30736197  0.42603369  0.91156142
   0.30736197  0.92603369  0.58843858
   0.69263803  0.07396631  0.41156142
   0.30736197  0.07396631  0.41156142
   0.69263803  0.92603369  0.58843858
   0.69263803  0.42603369  0.91156142
   0.30736197  0.57396631  0.08843858
   0.19263803  0.07396631  0.08843858
   0.80736197  0.92603369  0.91156142
   0.80736197  0.42603369  0.58843858
   0.19263803  0.57396631  0.41156142
   0.80736197  0.57396631  0.41156142
   0.19263803  0.42603369  0.58843858
   0.19263803  0.92603369  0.91156142
   0.80736197  0.07396631  0.08843858
   0.08191385  0.79378180  0.18763742
   0.91808617  0.20621820  0.81236261
   0.91808617  0.70621820  0.68763739
   0.08191385  0.29378180  0.31236258
   0.91808617  0.29378180  0.31236258
   0.08191385  0.70621820  0.68763739
   0.08191385  0.20621820  0.81236261
   0.91808617  0.79378180  0.18763742
   0.58191383  0.29378180  0.18763742
   0.41808614  0.70621820  0.81236261
   0.41808614  0.20621820  0.68763739
   0.58191383  0.79378180  0.31236258
   0.41808614  0.79378180  0.31236258
   0.58191383  0.20621820  0.68763739
   0.58191383  0.70621820  0.81236261
   0.41808614  0.29378180  0.18763742
  -0.00000000  0.59161944  0.20693109
  -0.00000000  0.40838056  0.79306888
  -0.00000000  0.90838056  0.70693112
  -0.00000000  0.09161944  0.29306891
   0.50000000  0.09161944  0.20693109
   0.50000000  0.90838056  0.79306888
   0.50000000  0.40838056  0.70693112
   0.50000000  0.59161944  0.29306891
  -0.00000000  0.72801756  0.21146049
  -0.00000000  0.27198244  0.78853950
  -0.00000000  0.77198244  0.71146050
  -0.00000000  0.22801756  0.28853950
   0.50000000  0.22801756  0.21146049
   0.50000000  0.77198244  0.78853950
   0.50000000  0.27198244  0.71146050
   0.50000000  0.72801756  0.28853950
   0.74973589  0.50000000 -0.00000000
   0.25026411  0.50000000 -0.00000000
   0.25026411 -0.00000000  0.50000000
   0.74973589 -0.00000000  0.50000000
   0.24973589 -0.00000000 -0.00000000
   0.75026411 -0.00000000 -0.00000000
   0.75026411  0.50000000  0.50000000
   0.24973589  0.50000000  0.50000000
Direct configuration=     6
   0.80800063  0.58984623  0.92552600
   0.19199937  0.41015377  0.07447400
   0.19199937  0.91015377  0.42552600
   0.80800063  0.08984623  0.57447400
   0.19199937  0.08984623  0.57447400
   0.80800063  0.91015377  0.42552600
   0.80800063  0.41015377  0.07447400
   0.19199937  0.58984623  0.92552600
   0.30800063  0.08984623  0.92552600
   0.69199937  0.91015377  0.07447400
   0.69199937  0.41015377  0.42552600
   0.30800063  0.58984623  0.57447400
   0.69199937  0.58984623  0.57447400
   0.30800063  0.41015377  0.42552600
   0.30800063  0.91015377  0.07447400
   0.69199937  0.08984623  0.92552600
   0.69160469  0.57526647  0.08976386
   0.30839531  0.42473353  0.91023614
   0.30839531  0.92473353  0.58976386
   0.69160469  0.07526647  0.41023614
   0.30839531  0.07526647  0.41023614
   0.69160469  0.92473353  0.58976386
   0.69160469  0.42473353  0.91023614
   0.30839531  0.57526647  0.08976386
   0.19160469  0.07526647  0.08976386
   0.80839531  0.92473353  0.91023614
   0.80839531  0.42473353  0.58976386
   0.19160469  0.57526647  0.41023614
   0.80839531  0.57526647  0.41023614
   0.19160469  0.42473353  0.58976386
   0.19160469  0.92473353  0.91023614
   0.80839531  0.07526647  0.08976386
   0.08376342  0.79598292  0.19313623
   0.91623660  0.20401708  0.80686380
   0.91623660  0.70401708  0.69313620
   0.08376342  0.29598292  0.30686377
   0.91623660  0.29598292  0.30686377
   0.08376342  0.70401708  0.69313620
   0.08376342  0.20401708  0.80686380
   0.91623660  0.79598292  0.19313623
   0.58376340  0.29598292  0.19313623
   0.41623657  0.70401708  0.80686380
   0.41623657  0.20401708  0.69313620
   0.58376340  0.79598292  0.30686377
   0.41623657  0.79598292  0.30686377
   0.58376340  0.20401708  0.69313620
   0.58376340  0.70401708  0.80686380
   0.41623657  0.29598292  0.19313623
  -0.00000000  0.58920783  0.21306834
  -0.00000000  0.41079217  0.78693163
  -0.00000000  0.91079217  0.71306837
  -0.00000000  0.08920783  0.28693166
   0.50000000  0.08920783  0.21306834
   0.50000000  0.91079217  0.78693163
   0.50000000  0.41079217  0.71306837
   0.50000000  0.58920783  0.28693166
  -0.00000000  0.72646090  0.19399818
  -0.00000000  0.27353910  0.80600181
  -0.00000000  0.77353910  0.69399819
  -0.00000000  0.22646090  0.30600181
   0.50000000  0.22646090  0.19399818
   0.50000000  0.77353910  0.80600181
   0.50000000  0.27353910  0.69399819
   0.50000000  0.72646090  0.30600181
   0.74970392  0.50000000 -0.00000000
   0.25029608  0.50000000 -0.00000000
   0.25029608 -0.00000000  0.50000000
   0.74970392 -0.00000000  0.50000000
   0.24970392 -0.00000000 -0.00000000
   0.75029608 -0.00000000 -0.00000000
   0.75029608  0.50000000  0.50000000
   0.24970392  0.50000000  0.50000000
Direct configuration=     7
   0.80725804  0.58884179  0.92620354
   0.19274196  0.41115821  0.07379646
   0.19274196  0.91115821  0.42620354
   0.80725804  0.08884179  0.57379646
   0.19274196  0.08884179  0.57379646
   0.80725804  0.91115821  0.42620354
   0.80725804  0.41115821  0.07379646
   0.19274196  0.58884179  0.92620354
   0.30725804  0.08884179  0.92620354
   0.69274196  0.91115821  0.07379646
   0.69274196  0.41115821  0.42620354
   0.30725804  0.58884179  0.57379646
   0.69274196  0.58884179  0.57379646
   0.30725804  0.41115821  0.42620354
   0.30725804  0.91115821  0.07379646
   0.69274196  0.08884179  0.92620354
   0.69234831  0.57433085  0.08881016
   0.30765169  0.42566915  0.91118984
   0.30765169  0.92566915  0.58881016
   0.69234831  0.07433085  0.41118984
   0.30765169  0.07433085  0.41118984
   0.69234831  0.92566915  0.58881016
   0.69234831  0.42566915  0.91118984
   0.30765169  0.57433085  0.08881016
   0.19234831  0.07433085  0.08881016
   0.80765169  0.92566915  0.91118984
   0.80765169  0.42566915  0.58881016
   0.19234831  0.57433085  0.41118984
   0.80765169  0.57433085  0.41118984
   0.19234831  0.42566915  0.58881016
   0.19234831  0.92566915  0.91118984
   0.80765169  0.07433085  0.08881016
   0.08243243  0.79439895  0.18917916
   0.91756760  0.20560105  0.81082087
   0.91756760  0.70560105  0.68917913
   0.08243243  0.29439895  0.31082084
   0.91756760  0.29439895  0.31082084
   0.08243243  0.70560105  0.68917913
   0.08243243  0.20560105  0.81082087
   0.91756760  0.79439895  0.18917916
   0.58243240  0.29439895  0.18917916
   0.41756757  0.70560105  0.81082087
   0.41756757  0.20560105  0.68917913
   0.58243240  0.79439895  0.31082084
   0.41756757  0.79439895  0.31082084
   0.58243240  0.20560105  0.68917913
   0.58243240  0.70560105  0.81082087
   0.41756757  0.29439895  0.18917916
  -0.00000000  0.59094328  0.20865184
  -0.00000000  0.40905672  0.79134813
  -0.00000000  0.90905672  0.70865187
  -0.00000000  0.09094328  0.29134816
   0.50000000  0.09094328  0.20865184
   0.50000000  0.90905672  0.79134813
   0.50000000  0.40905672  0.70865187
   0.50000000  0.59094328  0.29134816
  -0.00000000  0.72758111  0.20656445
  -0.00000000  0.27241889  0.79343554
  -0.00000000  0.77241889  0.70656446
  -0.00000000  0.22758111  0.29343554
   0.50000000  0.22758111  0.20656445
   0.50000000  0.77241889  0.79343554
   0.50000000  0.27241889  0.70656446
   0.50000000  0.72758111  0.29343554
   0.74972693  0.50000000 -0.00000000
   0.25027307  0.50000000 -0.00000000
   0.25027307 -0.00000000  0.50000000
   0.74972693 -0.00000000  0.50000000
   0.24972693 -0.00000000 -0.00000000
   0.75027307 -0.00000000 -0.00000000
   0.75027307  0.50000000  0.50000000
   0.24972693  0.50000000  0.50000000
Direct configuration=     8
   0.80548430  0.58594543  0.92889814
   0.19451570  0.41405457  0.07110186
   0.19451570  0.91405457  0.42889814
   0.80548430  0.08594543  0.57110186
   0.19451570  0.08594543  0.57110186
   0.80548430  0.91405457  0.42889814
   0.80548430  0.41405457  0.07110186
   0.19451570  0.58594543  0.92889814
   0.30548430  0.08594543  0.92889814
   0.69451570  0.91405457  0.07110186
   0.69451570  0.41405457  0.42889814
   0.30548430  0.58594543  0.57110186
   0.69451570  0.58594543  0.57110186
   0.30548430  0.41405457  0.42889814
   0.30548430  0.91405457  0.07110186
   0.69451570  0.08594543  0.92889814
   0.69417333  0.57194142  0.08569585
   0.30582667  0.42805858  0.91430415
   0.30582667  0.92805858  0.58569585
   0.69417333  0.07194142  0.41430415
   0.30582667  0.07194142  0.41430415
   0.69417333  0.92805858  0.58569585
   0.69417333  0.42805858  0.91430415
   0.30582667  0.57194142  0.08569585
   0.19417333  0.07194142  0.08569585
   0.80582667  0.92805858  0.91430415
   0.80582667  0.42805858  0.58569585
   0.19417333  0.57194142  0.41430415
   0.80582667  0.57194142  0.41430415
   0.19417333  0.42805858  0.58569585
   0.19417333  0.92805858  0.91430415
   0.80582667  0.07194142  0.08569585
   0.08382195  0.79575837  0.19087802
   0.91617807  0.20424163  0.80912201
   0.91617807  0.70424163  0.69087799
   0.08382195  0.29575837  0.30912198
   0.91617807  0.29575837  0.30912198
   0.08382195  0.70424163  0.69087799
   0.08382195  0.20424163  0.80912201
   0.91617807  0.79575837  0.19087802
   0.58382193  0.29575837  0.19087802
   0.41617804  0.70424163  0.80912201
   0.41617804  0.20424163  0.69087799
   0.58382193  0.79575837  0.30912198
   0.41617804  0.79575837  0.30912198
   0.58382193  0.20424163  0.69087799
   0.58382193  0.70424163  0.80912201
   0.41617804  0.29575837  0.19087802
  -0.00000000  0.58895201  0.21072956
  -0.00000000  0.41104799  0.78927041
  -0.00000000  0.91104799  0.71072959
  -0.00000000  0.08895201  0.28927044
   0.50000000  0.08895201  0.21072956
   0.50000000  0.91104799  0.78927041
   0.50000000  0.41104799  0.71072959
   0.50000000  0.58895201  0.28927044
  -0.00000000  0.72734326  0.20059901
  -0.00000000  0.27265674  0.79940097
  -0.00000000  0.77265674  0.70059903
  -0.00000000  0.22734326  0.29940097
   0.50000000  0.22734326  0.20059901
   0.50000000  0.77265674  0.79940097
   0.50000000  0.27265674  0.70059903
   0.50000000  0.72734326  0.29940097
   0.74953254  0.50000000 -0.00000000
   0.25046746  0.50000000 -0.00000000
   0.25046746 -0.00000000  0.50000000
   0.74953254 -0.00000000  0.50000000
   0.24953254 -0.00000000 -0.00000000
   0.75046746 -0.00000000 -0.00000000
   0.75046746  0.50000000  0.50000000
   0.24953254  0.50000000  0.50000000
Direct configuration=     9
   0.80602566  0.58682942  0.92807573
   0.19397434  0.41317058  0.07192427
   0.19397434  0.91317058  0.42807573
   0.80602566  0.08682942  0.57192427
   0.19397434  0.08682942  0.57192427
   0.80602566  0.91317058  0.42807573
   0.80602566  0.41317058  0.07192427
   0.19397434  0.58682942  0.92807573
   0.30602566  0.08682942  0.92807573
   0.69397434  0.91317058  0.07192427
   0.69397434  0.41317058  0.42807573
   0.30602566  0.58682942  0.57192427
   0.69397434  0.58682942  0.57192427
   0.30602566  0.41317058  0.42807573
   0.30602566  0.91317058  0.07192427
   0.69397434  0.08682942  0.92807573
   0.69361632  0.57267069  0.08664635
   0.30638368  0.42732931  0.91335365
   0.30638368  0.92732931  0.58664635
   0.69361632  0.07267069  0.41335365
   0.30638368  0.07267069  0.41335365
   0.69361632  0.92732931  0.58664635
   0.69361632  0.42732931  0.91335365
   0.30638368  0.57267069  0.08664635
   0.19361632  0.07267069  0.08664635
   0.80638368  0.92732931  0.91335365
   0.80638368  0.42732931  0.58664635
   0.19361632  0.57267069  0.41335365
   0.80638368  0.57267069  0.41335365
   0.19361632  0.42732931  0.58664635
   0.19361632  0.92732931  0.91335365
   0.80638368  0.07267069  0.08664635
   0.08339786  0.79534347  0.19035952
   0.91660216  0.20465653  0.80964051
   0.91660216  0.70465653  0.69035949
   0.08339786  0.29534347  0.30964048
   0.91660216  0.29534347  0.30964048
   0.08339786  0.70465653  0.69035949
   0.08339786  0.20465653  0.80964051
   0.91660216  0.79534347  0.19035952
   0.58339784  0.29534347  0.19035952
   0.41660213  0.70465653  0.80964051
   0.41660213  0.20465653  0.69035949
   0.58339784  0.79534347  0.30964048
   0.41660213  0.79534347  0.30964048
   0.58339784  0.20465653  0.69035949
   0.58339784  0.70465653  0.80964051
   0.41660213  0.29534347  0.19035952
  -0.00000000  0.58955976  0.21009542
  -0.00000000  0.41044024  0.78990455
  -0.00000000  0.91044024  0.71009545
  -0.00000000  0.08955976  0.28990458
   0.50000000  0.08955976  0.21009542
   0.50000000  0.91044024  0.78990455
   0.50000000  0.41044024  0.71009545
   0.50000000  0.58955976  0.28990458
  -0.00000000  0.72741585  0.20241969
  -0.00000000  0.27258415  0.79758029
  -0.00000000  0.77258415  0.70241971
  -0.00000000  0.22741585  0.29758029
   0.50000000  0.22741585  0.20241969
   0.50000000  0.77258415  0.79758029
   0.50000000  0.27258415  0.70241971
   0.50000000  0.72741585  0.29758029
   0.74959186  0.50000000 -0.00000000
   0.25040814  0.50000000 -0.00000000
   0.25040814 -0.00000000  0.50000000
   0.74959186 -0.00000000  0.50000000
   0.24959186 -0.00000000 -0.00000000
   0.75040814 -0.00000000 -0.00000000
   0.75040814  0.50000000  0.50000000
   0.24959186  0.50000000  0.50000000
Direct configuration=    10
   0.80592653  0.58663284  0.92840169
   0.19407347  0.41336716  0.07159831
   0.19407347  0.91336716  0.42840169
   0.80592653  0.08663284  0.57159831
   0.19407347  0.08663284  0.57159831
   0.80592653  0.91336716  0.42840169
   0.80592653  0.41336716  0.07159831
   0.19407347  0.58663284  0.92840169
   0.30592653  0.08663284  0.92840169
   0.69407347  0.91336716  0.07159831
   0.69407347  0.41336716  0.42840169
   0.30592653  0.58663284  0.57159831
   0.69407347  0.58663284  0.57159831
   0.30592653  0.41336716  0.42840169
   0.30592653  0.91336716  0.07159831
   0.69407347  0.08663284  0.92840169
   0.69360787  0.57264833  0.08649446
   0.30639213  0.42735167  0.91350554
   0.30639213  0.92735167  0.58649446
   0.69360787  0.07264833  0.41350554
   0.30639213  0.07264833  0.41350554
   0.69360787  0.92735167  0.58649446
   0.69360787  0.42735167  0.91350554
   0.30639213  0.57264833  0.08649446
   0.19360787  0.07264833  0.08649446
   0.80639213  0.92735167  0.91350554
   0.80639213  0.42735167  0.58649446
   0.19360787  0.57264833  0.41350554
   0.80639213  0.57264833  0.41350554
   0.19360787  0.42735167  0.58649446
   0.19360787  0.92735167  0.91350554
   0.80639213  0.07264833  0.08649446
   0.08301665  0.79509407  0.19062718
   0.91698337  0.20490593  0.80937285
   0.91698337  0.70490593  0.69062715
   0.08301665  0.29509407  0.30937282
   0.91698337  0.29509407  0.30937282
   0.08301665  0.70490593  0.69062715
   0.08301665  0.20490593  0.80937285
   0.91698337  0.79509407  0.19062718
   0.58301663  0.29509407  0.19062718
   0.41698334  0.70490593  0.80937285
   0.41698334  0.20490593  0.69062715
   0.58301663  0.79509407  0.30937282
   0.41698334  0.79509407  0.30937282
   0.58301663  0.20490593  0.69062715
   0.58301663  0.70490593  0.80937285
   0.41698334  0.29509407  0.19062718
  -0.00000000  0.59068300  0.21024326
  -0.00000000  0.40931700  0.78975671
  -0.00000000  0.90931700  0.71024329
  -0.00000000  0.09068300  0.28975674
   0.50000000  0.09068300  0.21024326
   0.50000000  0.90931700  0.78975671
   0.50000000  0.40931700  0.71024329
   0.50000000  0.59068300  0.28975674
  -0.00000000  0.72716063  0.20136252
  -0.00000000  0.27283937  0.79863746
  -0.00000000  0.77283937  0.70136254
  -0.00000000  0.22716063  0.29863746
   0.50000000  0.22716063  0.20136252
   0.50000000  0.77283937  0.79863746
   0.50000000  0.27283937  0.70136254
   0.50000000  0.72716063  0.29863746
   0.74972233  0.50000000 -0.00000000
   0.25027767  0.50000000 -0.00000000
   0.25027767 -0.00000000  0.50000000
   0.74972233 -0.00000000  0.50000000
   0.24972233 -0.00000000 -0.00000000
   0.75027767 -0.00000000 -0.00000000
   0.75027767  0.50000000  0.50000000
   0.24972233  0.50000000  0.50000000
Direct configuration=    11
   0.80595835  0.58669595  0.92829704
   0.19404165  0.41330405  0.07170296
   0.19404165  0.91330405  0.42829704
   0.80595835  0.08669595  0.57170296
   0.19404165  0.08669595  0.57170296
   0.80595835  0.91330405  0.42829704
   0.80595835  0.41330405  0.07170296
   0.19404165  0.58669595  0.92829704
   0.30595835  0.08669595  0.92829704
   0.69404165  0.91330405  0.07170296
   0.69404165  0.41330405  0.42829704
   0.30595835  0.58669595  0.57170296
   0.69404165  0.58669595  0.57170296
   0.30595835  0.41330405  0.42829704
   0.30595835  0.91330405  0.07170296
   0.69404165  0.08669595  0.92829704
   0.69361059  0.57265551  0.08654322
   0.30638941  0.42734449  0.91345678
   0.30638941  0.92734449  0.58654322
   0.69361059  0.07265551  0.41345678
   0.30638941  0.07265551  0.41345678
   0.69361059  0.92734449  0.58654322
   0.69361059  0.42734449  0.91345678
   0.30638941  0.57265551  0.08654322
   0.19361059  0.07265551  0.08654322
   0.80638941  0.92734449  0.91345678
   0.80638941  0.42734449  0.58654322
   0.19361059  0.57265551  0.41345678
   0.80638941  0.57265551  0.41345678
   0.19361059  0.42734449  0.58654322
   0.19361059  0.92734449  0.91345678
   0.80638941  0.07265551  0.08654322
   0.08313904  0.79517414  0.19054125
   0.91686099  0.20482586  0.80945878
   0.91686099  0.70482586  0.69054122
   0.08313904  0.29517414  0.30945875
   0.91686099  0.29517414  0.30945875
   0.08313904  0.70482586  0.69054122
   0.08313904  0.20482586  0.80945878
   0.91686099  0.79517414  0.19054125
   0.58313901  0.29517414  0.19054125
   0.41686096  0.70482586  0.80945878
   0.41686096  0.20482586  0.69054122
   0.58313901  0.79517414  0.30945875
   0.41686096  0.79517414  0.30945875
   0.58313901  0.20482586  0.69054122
   0.58313901  0.70482586  0.80945878
   0.41686096  0.29517414  0.19054125
  -0.00000000  0.59032239  0.21019579
  -0.00000000  0.40967761  0.78980418
  -0.00000000  0.90967761  0.71019582
  -0.00000000  0.09032239  0.28980421
   0.50000000  0.09032239  0.21019579
   0.50000000  0.90967761  0.78980418
   0.50000000  0.40967761  0.71019582
   0.50000000  0.59032239  0.28980421