graphite                                
           1
     2.526005    0.000000    0.000000
     1.263003    2.187585    0.000000
     1.263003    0.729195    2.062475
   C 
   2
Direct configuration=     1
   0.00000000  0.00000000  0.00000000
   0.25000000  0.25000000  0.24999999
