diamond                                 
           1
    11.303853    0.000000    0.000000
     0.000000    7.906682    0.000000
     0.000000    0.000000    7.901759
   H    C 
  64  16
Direct configuration=     1
   0.07280000  0.78549999  0.18230000
   0.92720002  0.21450001  0.81770003
   0.92720002  0.71450001  0.68229997
   0.07280000  0.28549999  0.31770000
   0.92720002  0.28549999  0.31770000
   0.07280000  0.71450001  0.68229997
   0.07280000  0.21450001  0.81770003
   0.92720002  0.78549999  0.18230000
   0.57279998  0.28549999  0.18230000
   0.42719999  0.71450001  0.81770003
   0.42719999  0.21450001  0.68229997
   0.57279998  0.78549999  0.31770000
   0.42719999  0.78549999  0.31770000
   0.57279998  0.21450001  0.68229997
   0.57279998  0.71450001  0.81770003
   0.42719999  0.28549999  0.18230000
   0.80100000  0.57950002  0.93360001
   0.19900000  0.42049998  0.06639999
   0.19900000  0.92049998  0.43360001
   0.80100000  0.07950002  0.56639999
   0.19900000  0.07950002  0.56639999
   0.80100000  0.92049998  0.43360001
   0.80100000  0.42049998  0.06639999
   0.19900000  0.57950002  0.93360001
   0.30100000  0.07950002  0.93360001
   0.69900000  0.92049998  0.06639999
   0.69900000  0.42049998  0.43360001
   0.30100000  0.57950002  0.56639999
   0.69900000  0.57950002  0.56639999
   0.30100000  0.42049998  0.43360001
   0.30100000  0.92049998  0.06639999
   0.69900000  0.07950002  0.93360001
   0.69859999  0.56629997  0.07959998
   0.30140001  0.43370003  0.92040002
   0.30140001  0.93370003  0.57959998
   0.69859999  0.06629997  0.42040002
   0.30140001  0.06629997  0.42040002
   0.69859999  0.93370003  0.57959998
   0.69859999  0.43370003  0.92040002
   0.30140001  0.56629997  0.07959998
   0.19859999  0.06629997  0.07959998
   0.80140001  0.93370003  0.92040002
   0.80140001  0.43370003  0.57959998
   0.19859999  0.56629997  0.42040002
   0.80140001  0.56629997  0.42040002
   0.19859999  0.43370003  0.57959998
   0.19859999  0.93370003  0.92040002
   0.80140001  0.06629997  0.07959998
   0.00000000  0.60589999  0.19920000
   0.00000000  0.39410001  0.80079997
   0.00000000  0.89410001  0.69920003
   0.00000000  0.10589999  0.30080000
   0.50000000  0.10589999  0.19920000
   0.50000000  0.89410001  0.80079997
   0.50000000  0.39410001  0.69920003
   0.50000000  0.60589999  0.30080000
   0.00000000  0.74159998  0.78549999
   0.00000000  0.25840002  0.21450001
   0.00000000  0.75840002  0.28549999
   0.00000000  0.24159998  0.71450001
   0.50000000  0.24159998  0.78549999
   0.50000000  0.75840002  0.21450001
   0.50000000  0.25840002  0.28549999
   0.50000000  0.74159998  0.71450001
   0.00000000  0.72960001  0.23029999
   0.00000000  0.27039999  0.76969999
   0.00000000  0.77039999  0.73030001
   0.00000000  0.22960001  0.26969999
   0.50000000  0.22960001  0.23029999
   0.50000000  0.77039999  0.76969999
   0.50000000  0.27039999  0.73030001
   0.50000000  0.72960001  0.26969999
   0.74980003  0.50000000  0.00000000
   0.25019997  0.50000000  0.00000000
   0.25019997  0.00000000  0.50000000
   0.74980003  0.00000000  0.50000000
   0.24980003  0.00000000  0.00000000
   0.75019997  0.00000000  0.00000000
   0.75019997  0.50000000  0.50000000
   0.24980003  0.50000000  0.50000000
Direct configuration=     2
   0.08418549  0.79275159  0.16727270
   0.91581453  0.20724841  0.83272733
   0.91581453  0.70724841  0.66727267
   0.08418549  0.29275159  0.33272730
   0.91581453  0.29275159  0.33272730
   0.08418549  0.70724841  0.66727267
   0.08418549  0.20724841  0.83272733
   0.91581453  0.79275159  0.16727270
   0.58418547  0.29275159  0.16727270
   0.41581450  0.70724841  0.83272733
   0.41581450  0.20724841  0.66727267
   0.58418547  0.79275159  0.33272730
   0.41581450  0.79275159  0.33272730
   0.58418547  0.20724841  0.66727267
   0.58418547  0.70724841  0.83272733
   0.41581450  0.29275159  0.16727270
   0.81070976  0.59456460  0.92112089
   0.18929024  0.40543540  0.07887911
   0.18929024  0.90543540  0.42112089
   0.81070976  0.09456460  0.57887911
   0.18929024  0.09456460  0.57887911
   0.81070976  0.90543540  0.42112089
   0.81070976  0.40543540  0.07887911
   0.18929024  0.59456460  0.92112089
   0.31070976  0.09456460  0.92112089
   0.68929024  0.90543540  0.07887911
   0.68929024  0.40543540  0.42112089
   0.31070976  0.59456460  0.57887911
   0.68929024  0.59456460  0.57887911
   0.31070976  0.40543540  0.42112089
   0.31070976  0.90543540  0.07887911
   0.68929024  0.09456460  0.92112089
   0.68890346  0.57885555  0.09458826
   0.31109654  0.42114445  0.90541174
   0.31109654  0.92114445  0.59458826
   0.68890346  0.07885555  0.40541174
   0.31109654  0.07885555  0.40541174
   0.68890346  0.92114445  0.59458826
   0.68890346  0.42114445  0.90541174
   0.31109654  0.57885555  0.09458826
   0.18890346  0.07885555  0.09458826
   0.81109654  0.92114445  0.90541174
   0.81109654  0.42114445  0.59458826
   0.18890346  0.57885555  0.40541174
   0.81109654  0.57885555  0.40541174
   0.18890346  0.42114445  0.59458826
   0.18890346  0.92114445  0.90541174
   0.81109654  0.07885555  0.09458826
  -0.00000000  0.58788947  0.20001870
  -0.00000000  0.41211053  0.79998127
  -0.00000000  0.91211053  0.70001873
  -0.00000000  0.08788947  0.29998130
   0.50000000  0.08788947  0.20001870
   0.50000000  0.91211053  0.79998127
   0.50000000  0.41211053  0.70001873
   0.50000000  0.58788947  0.29998130
  -0.00000000  0.26158423  0.76255287
  -0.00000000  0.73841577 -0.76255287
  -0.00000000  0.23841577  0.26255287
  -0.00000000 -0.23841577 -0.26255287
   0.50000000 -0.23841577  0.76255287
   0.50000000  0.23841577 -0.76255287
   0.50000000  0.73841577  0.26255287
   0.50000000  0.26158423 -0.26255287
  -0.00000000  0.25307277 -0.71754941
  -0.00000000  0.74692723  0.71754940
  -0.00000000  0.24692723 -0.21754940
  -0.00000000 -0.24692723  0.21754940
   0.50000000 -0.24692723 -0.71754941
   0.50000000  0.24692723  0.71754940
   0.50000000  0.74692723 -0.21754940
   0.50000000  0.25307277  0.21754940
   0.74980751  0.50000000 -0.00000000
   0.25019249  0.50000000 -0.00000000
   0.25019249 -0.00000000  0.50000000
   0.74980751 -0.00000000  0.50000000
   0.24980751 -0.00000000 -0.00000000
   0.75019249 -0.00000000 -0.00000000
   0.75019249  0.50000000  0.50000000
   0.24980751  0.50000000  0.50000000
Direct configuration=     3
   0.07400562  0.78626787  0.18070874
   0.92599440  0.21373213  0.81929128
   0.92599440  0.71373213  0.68070872
   0.07400562  0.28626787  0.31929126
   0.92599440  0.28626787  0.31929126
   0.07400562  0.71373213  0.68070872
   0.07400562  0.21373213  0.81929128
   0.92599440  0.78626787  0.18070874
   0.57400560  0.28626787  0.18070874
   0.42599437  0.71373213  0.81929128
   0.42599437  0.21373213  0.68070872
   0.57400560  0.78626787  0.31929126
   0.42599437  0.78626787  0.31929126
   0.57400560  0.21373213  0.68070872
   0.57400560  0.71373213  0.81929128
   0.42599437  0.28626787  0.18070874
   0.80202818  0.58109522  0.93227858
   0.19797182  0.41890478  0.06772142
   0.19797182  0.91890478  0.43227858
   0.80202818  0.08109522  0.56772142
   0.19797182  0.08109522  0.56772142
   0.80202818  0.91890478  0.43227858
   0.80202818  0.41890478  0.06772142
   0.19797182  0.58109522  0.93227858
   0.30202818  0.08109522  0.93227858
   0.69797182  0.91890478  0.06772142
   0.69797182  0.41890478  0.43227858
   0.30202818  0.58109522  0.56772142
   0.69797182  0.58109522  0.56772142
   0.30202818  0.41890478  0.43227858
   0.30202818  0.91890478  0.06772142
   0.69797182  0.08109522  0.93227858
   0.69757322  0.56762950  0.08118710
   0.30242678  0.43237050  0.91881290
   0.30242678  0.93237050  0.58118710
   0.69757322  0.06762950  0.41881290
   0.30242678  0.06762950  0.41881290
   0.69757322  0.93237050  0.58118710
   0.69757322  0.43237050  0.91881290
   0.30242678  0.56762950  0.08118710
   0.19757322  0.06762950  0.08118710
   0.80242678  0.93237050  0.91881290
   0.80242678  0.43237050  0.58118710
   0.19757322  0.56762950  0.41881290
   0.80242678  0.56762950  0.41881290
   0.19757322  0.43237050  0.58118710
   0.19757322  0.93237050  0.91881290
   0.80242678  0.06762950  0.08118710
  -0.00000000  0.60399284  0.19928670
  -0.00000000  0.39600716  0.80071327
  -0.00000000  0.89600716  0.69928673
  -0.00000000  0.10399284  0.30071330
   0.50000000  0.10399284  0.19928670
   0.50000000  0.89600716  0.80071327
   0.50000000  0.39600716  0.69928673
   0.50000000  0.60399284  0.30071330
  -0.00000000  0.69077062 -0.11103888
  -0.00000000  0.30922938  0.11103888
  -0.00000000 -0.19077062 -0.61103888
  -0.00000000  0.19077062  0.61103888
   0.50000000  0.19077062 -0.11103888
   0.50000000 -0.19077062  0.11103888
   0.50000000  0.30922938 -0.61103888
   0.50000000  0.69077062  0.61103888
  -0.00000000  0.67914006  0.12993125
  -0.00000000  0.32085994 -0.12993127
  -0.00000000 -0.17914006  0.62993127
  -0.00000000  0.17914006 -0.62993127
   0.50000000  0.17914006  0.12993125
   0.50000000 -0.17914006 -0.12993127
   0.50000000  0.32085994  0.62993127
   0.50000000  0.67914006 -0.62993127
   0.74980082  0.50000000 -0.00000000
   0.25019918  0.50000000 -0.00000000
   0.25019918 -0.00000000  0.50000000
   0.74980082 -0.00000000  0.50000000
   0.24980082 -0.00000000 -0.00000000
   0.75019918 -0.00000000 -0.00000000
   0.75019918  0.50000000  0.50000000
   0.24980082  0.50000000  0.50000000
Direct configuration=     4
   0.07402689  0.78628141  0.18068068
   0.92597314  0.21371859  0.81931935
   0.92597314  0.71371859  0.68068065
   0.07402689  0.28628141  0.31931932
   0.92597314  0.28628141  0.31931932
   0.07402689  0.71371859  0.68068065
   0.07402689  0.21371859  0.81931935
   0.92597314  0.78628141  0.18068068
   0.57402686  0.28628141  0.18068068
   0.42597311  0.71371859  0.81931935
   0.42597311  0.21371859  0.68068065
   0.57402686  0.78628141  0.31931932
   0.42597311  0.78628141  0.31931932
   0.57402686  0.21371859  0.68068065
   0.57402686  0.71371859  0.81931935
   0.42597311  0.28628141  0.18068068
   0.80204631  0.58112336  0.93225528
   0.19795369  0.41887664  0.06774472
   0.19795369  0.91887664  0.43225528
   0.80204631  0.08112336  0.56774472
   0.19795369  0.08112336  0.56774472
   0.80204631  0.91887664  0.43225528
   0.80204631  0.41887664  0.06774472
   0.19795369  0.58112336  0.93225528
   0.30204631  0.08112336  0.93225528
   0.69795369  0.91887664  0.06774472
   0.69795369  0.41887664  0.43225528
   0.30204631  0.58112336  0.56774472
   0.69795369  0.58112336  0.56774472
   0.30204631  0.41887664  0.43225528
   0.30204631  0.91887664  0.06774472
   0.69795369  0.08112336  0.93225528
   0.69755511  0.56765294  0.08121509
   0.30244489  0.43234706  0.91878491
   0.30244489  0.93234706  0.58121509
   0.69755511  0.06765294  0.41878491
   0.30244489  0.06765294  0.41878491
   0.69755511  0.93234706  0.58121509
   0.69755511  0.43234706  0.91878491
   0.30244489  0.56765294  0.08121509
   0.19755511  0.06765294  0.08121509
   0.80244489  0.93234706  0.91878491
   0.80244489  0.43234706  0.58121509
   0.19755511  0.56765294  0.41878491
   0.80244489  0.56765294  0.41878491
   0.19755511  0.43234706  0.58121509
   0.19755511  0.93234706  0.91878491
   0.80244489  0.06765294  0.08121509
  -0.00000000  0.60395920  0.19928823
  -0.00000000  0.39604080  0.80071174
  -0.00000000  0.89604080  0.69928826
  -0.00000000  0.10395920  0.30071177
   0.50000000  0.10395920  0.19928823
   0.50000000  0.89604080  0.80071174
   0.50000000  0.39604080  0.69928826
   0.50000000  0.60395920  0.30071177
  -0.00000000  0.68987420 -0.10921427
  -0.00000000  0.31012580  0.10921427
  -0.00000000 -0.18987420 -0.60921427
  -0.00000000  0.18987420  0.60921427
   0.50000000  0.18987420 -0.10921427
   0.50000000 -0.18987420  0.10921427
   0.50000000  0.31012580 -0.60921427
   0.50000000  0.68987420  0.60921427
  -0.00000000  0.67825015  0.12816117
  -0.00000000  0.32174985 -0.12816119
  -0.00000000 -0.17825015  0.62816119
  -0.00000000  0.17825015 -0.62816119
   0.50000000  0.17825015  0.12816117
   0.50000000 -0.17825015 -0.12816119
   0.50000000  0.32174985  0.62816119
   0.50000000  0.67825015 -0.62816119
   0.74980083  0.50000000 -0.00000000
   0.25019917  0.50000000 -0.00000000
   0.25019917 -0.00000000  0.50000000
   0.74980083 -0.00000000  0.50000000
   0.24980083 -0.00000000 -0.00000000
   0.75019917 -0.00000000 -0.00000000
   0.75019917  0.50000000  0.50000000
   0.24980083  0.50000000  0.50000000
Direct configuration=     5
   0.07910619  0.78951650  0.17397669
   0.92089383  0.21048350  0.82602334
   0.92089383  0.71048350  0.67397666
   0.07910619  0.28951650  0.32602331
   0.92089383  0.28951650  0.32602331
   0.07910619  0.71048350  0.67397666
   0.07910619  0.21048350  0.82602334
   0.92089383  0.78951650  0.17397669
   0.57910617  0.28951650  0.17397669
   0.42089380  0.71048350  0.82602334
   0.42089380  0.21048350  0.67397666
   0.57910617  0.78951650  0.32602331
   0.42089380  0.78951650  0.32602331
   0.57910617  0.21048350  0.67397666
   0.57910617  0.71048350  0.82602334
   0.42089380  0.28951650  0.17397669
   0.80637803  0.58784398  0.92668808
   0.19362197  0.41215602  0.07331192
   0.19362197  0.91215602  0.42668808
   0.80637803  0.08784398  0.57331192
   0.19362197  0.08784398  0.57331192
   0.80637803  0.91215602  0.42668808
   0.80637803  0.41215602  0.07331192
   0.19362197  0.58784398  0.92668808
   0.30637803  0.08784398  0.92668808
   0.69362197  0.91215602  0.07331192
   0.69362197  0.41215602  0.42668808
   0.30637803  0.58784398  0.57331192
   0.69362197  0.58784398  0.57331192
   0.30637803  0.41215602  0.42668808
   0.30637803  0.91215602  0.07331192
   0.69362197  0.08784398  0.92668808
   0.69322928  0.57325425  0.08790168
   0.30677072  0.42674575  0.91209832
   0.30677072  0.92674575  0.58790168
   0.69322928  0.07325425  0.41209832
   0.30677072  0.07325425  0.41209832
   0.69322928  0.92674575  0.58790168
   0.69322928  0.42674575  0.91209832
   0.30677072  0.57325425  0.08790168
   0.19322928  0.07325425  0.08790168
   0.80677072  0.92674575  0.91209832
   0.80677072  0.42674575  0.58790168
   0.19322928  0.57325425  0.41209832
   0.80677072  0.57325425  0.41209832
   0.19322928  0.42674575  0.58790168
   0.19322928  0.92674575  0.91209832
   0.80677072  0.07325425  0.08790168
  -0.00000000  0.59592433  0.19965347
  -0.00000000  0.40407567  0.80034650
  -0.00000000  0.90407567  0.69965350
  -0.00000000  0.09592433  0.30034653
   0.50000000  0.09592433  0.19965347
   0.50000000  0.90407567  0.80034650
   0.50000000  0.40407567  0.69965350
   0.50000000  0.59592433  0.30034653
  -0.00000000  0.47572922  0.32666930
  -0.00000000  0.52427078 -0.32666930
  -0.00000000  0.02427078 -0.17333070
  -0.00000000 -0.02427078  0.17333070
   0.50000000 -0.02427078  0.32666930
   0.50000000  0.02427078 -0.32666930
   0.50000000  0.52427078 -0.17333070
   0.50000000  0.47572922  0.17333070
  -0.00000000  0.46566146 -0.29469412
  -0.00000000  0.53433854  0.29469410
  -0.00000000  0.03433854  0.20530590
  -0.00000000 -0.03433854 -0.20530590
   0.50000000 -0.03433854 -0.29469412
   0.50000000  0.03433854  0.29469410
   0.50000000  0.53433854  0.20530590
   0.50000000  0.46566146 -0.20530590
   0.74980417  0.50000000 -0.00000000
   0.25019583  0.50000000 -0.00000000
   0.25019583 -0.00000000  0.50000000
   0.74980417 -0.00000000  0.50000000
   0.24980417 -0.00000000 -0.00000000
   0.75019583 -0.00000000 -0.00000000
   0.75019583  0.50000000  0.50000000
   0.24980417  0.50000000  0.50000000
Direct configuration=     6
   0.08164584  0.79113405  0.17062469
   0.91835418  0.20886595  0.82937534
   0.91835418  0.70886595  0.67062466
   0.08164584  0.29113405  0.32937531
   0.91835418  0.29113405  0.32937531
   0.08164584  0.70886595  0.67062466
   0.08164584  0.20886595  0.82937534
   0.91835418  0.79113405  0.17062469
   0.58164582  0.29113405  0.17062469
   0.41835415  0.70886595  0.82937534
   0.41835415  0.20886595  0.67062466
   0.58164582  0.79113405  0.32937531
   0.41835415  0.79113405  0.32937531
   0.58164582  0.20886595  0.67062466
   0.58164582  0.70886595  0.82937534
   0.41835415  0.29113405  0.17062469
   0.80854390  0.59120429  0.92390448
   0.19145610  0.40879571  0.07609552
   0.19145610  0.90879571  0.42390448
   0.80854390  0.09120429  0.57609552
   0.19145610  0.09120429  0.57609552
   0.80854390  0.90879571  0.42390448
   0.80854390  0.40879571  0.07609552
   0.19145610  0.59120429  0.92390448
   0.30854390  0.09120429  0.92390448
   0.69145610  0.90879571  0.07609552
   0.69145610  0.40879571  0.42390448
   0.30854390  0.59120429  0.57609552
   0.69145610  0.59120429  0.57609552
   0.30854390  0.40879571  0.42390448
   0.30854390  0.90879571  0.07609552
   0.69145610  0.09120429  0.92390448
   0.69106637  0.57605490  0.09124497
   0.30893363  0.42394510  0.90875503
   0.30893363  0.92394510  0.59124497
   0.69106637  0.07605490  0.40875503
   0.30893363  0.07605490  0.40875503
   0.69106637  0.92394510  0.59124497
   0.69106637  0.42394510  0.90875503
   0.30893363  0.57605490  0.09124497
   0.19106637  0.07605490  0.09124497
   0.80893363  0.92394510  0.90875503
   0.80893363  0.42394510  0.59124497
   0.19106637  0.57605490  0.40875503
   0.80893363  0.57605490  0.40875503
   0.19106637  0.42394510  0.59124497
   0.19106637  0.92394510  0.90875503
   0.80893363  0.07605490  0.09124497
  -0.00000000  0.59190690  0.19983609
  -0.00000000  0.40809310  0.80016388
  -0.00000000  0.90809310  0.69983612
  -0.00000000  0.09190690  0.30016391
   0.50000000  0.09190690  0.19983609
   0.50000000  0.90809310  0.80016388
   0.50000000  0.40809310  0.69983612
   0.50000000  0.59190690  0.30016391
  -0.00000000  0.36865672  0.54461109
  -0.00000000  0.63134328 -0.54461109
  -0.00000000  0.13134328  0.04461109
  -0.00000000 -0.13134328 -0.04461109
   0.50000000 -0.13134328  0.54461109
   0.50000000  0.13134328 -0.54461109
   0.50000000  0.63134328  0.04461109
   0.50000000  0.36865672 -0.04461109
  -0.00000000  0.35936711 -0.50612177
  -0.00000000  0.64063289  0.50612175
  -0.00000000  0.14063289 -0.00612175
  -0.00000000 -0.14063289  0.00612175
   0.50000000 -0.14063289 -0.50612177
   0.50000000  0.14063289  0.50612175
   0.50000000  0.64063289 -0.00612175
   0.50000000  0.35936711  0.00612175
   0.74980584  0.50000000 -0.00000000
   0.25019416  0.50000000 -0.00000000
   0.25019416 -0.00000000  0.50000000
   0.74980584 -0.00000000  0.50000000
   0.24980584 -0.00000000 -0.00000000
   0.75019416 -0.00000000 -0.00000000
   0.75019416  0.50000000  0.50000000
   0.24980584  0.50000000  0.50000000
Direct configuration=     7
   0.08291566  0.79194282  0.16894869
   0.91708436  0.20805718  0.83105134
   0.91708436  0.70805718  0.66894866
   0.08291566  0.29194282  0.33105131
   0.91708436  0.29194282  0.33105131
   0.08291566  0.70805718  0.66894866
   0.08291566  0.20805718  0.83105134
   0.91708436  0.79194282  0.16894869
   0.58291564  0.29194282  0.16894869
   0.41708433  0.70805718  0.83105134
   0.41708433  0.20805718  0.66894866
   0.58291564  0.79194282  0.33105131
   0.41708433  0.79194282  0.33105131
   0.58291564  0.20805718  0.66894866
   0.58291564  0.70805718  0.83105134
   0.41708433  0.29194282  0.16894869
   0.80962683  0.59288444  0.92251268
   0.19037317  0.40711556  0.07748732
   0.19037317  0.90711556  0.42251268
   0.80962683  0.09288444  0.57748732
   0.19037317  0.09288444  0.57748732
   0.80962683  0.90711556  0.42251268
   0.80962683  0.40711556  0.07748732
   0.19037317  0.59288444  0.92251268
   0.30962683  0.09288444  0.92251268
   0.69037317  0.90711556  0.07748732
   0.69037317  0.40711556  0.42251268
   0.30962683  0.59288444  0.57748732
   0.69037317  0.59288444  0.57748732
   0.30962683  0.40711556  0.42251268
   0.30962683  0.90711556  0.07748732
   0.69037317  0.09288444  0.92251268
   0.68998491  0.57745523  0.09291661
   0.31001509  0.42254477  0.90708339
   0.31001509  0.92254477  0.59291661
   0.68998491  0.07745523  0.40708339
   0.31001509  0.07745523  0.40708339
   0.68998491  0.92254477  0.59291661
   0.68998491  0.42254477  0.90708339
   0.31001509  0.57745523  0.09291661
   0.18998491  0.07745523  0.09291661
   0.81001509  0.92254477  0.90708339
   0.81001509  0.42254477  0.59291661
   0.18998491  0.57745523  0.40708339
   0.81001509  0.57745523  0.40708339
   0.18998491  0.42254477  0.59291661
   0.18998491  0.92254477  0.90708339
   0.81001509  0.07745523  0.09291661
  -0.00000000  0.58989818  0.19992739
  -0.00000000  0.41010182  0.80007258
  -0.00000000  0.91010182  0.69992742
  -0.00000000  0.08989818  0.30007261
   0.50000000  0.08989818  0.19992739
   0.50000000  0.91010182  0.80007258
   0.50000000  0.41010182  0.69992742
   0.50000000  0.58989818  0.30007261
  -0.00000000  0.31512047  0.65358198
  -0.00000000  0.68487953 -0.65358198
  -0.00000000  0.18487953  0.15358198
  -0.00000000 -0.18487953 -0.15358198
   0.50000000 -0.18487953  0.65358198
   0.50000000  0.18487953 -0.65358198
   0.50000000  0.68487953  0.15358198
   0.50000000  0.31512047 -0.15358198
  -0.00000000  0.30621994 -0.61183559
  -0.00000000  0.69378006  0.61183557
  -0.00000000  0.19378006 -0.11183557
  -0.00000000 -0.19378006  0.11183557
   0.50000000 -0.19378006 -0.61183559
   0.50000000  0.19378006  0.61183557
   0.50000000  0.69378006 -0.11183557
   0.50000000  0.30621994  0.11183557
   0.74980667  0.50000000 -0.00000000
   0.25019333  0.50000000 -0.00000000
   0.25019333 -0.00000000  0.50000000
   0.74980667 -0.00000000  0.50000000
   0.24980667 -0.00000000 -0.00000000
   0.75019333 -0.00000000 -0.00000000
   0.75019333  0.50000000  0.50000000
   0.24980667  0.50000000  0.50000000
Direct configuration=     8
   0.08291102  0.79193986  0.16895483
   0.91708901  0.20806014  0.83104520
   0.91708901  0.70806014  0.66895480
   0.08291102  0.29193986  0.33104517
   0.91708901  0.29193986  0.33104517
   0.08291102  0.70806014  0.66895480
   0.08291102  0.20806014  0.83104520
   0.91708901  0.79193986  0.16895483
   0.58291099  0.29193986  0.16895483
   0.41708898  0.70806014  0.83104520
   0.41708898  0.20806014  0.66895480
   0.58291099  0.79193986  0.33104517
   0.41708898  0.79193986  0.33104517
   0.58291099  0.20806014  0.66895480
   0.58291099  0.70806014  0.83104520
   0.41708898  0.29193986  0.16895483
   0.80962286  0.59287829  0.92251778
   0.19037714  0.40712171  0.07748222
   0.19037714  0.90712171  0.42251778
   0.80962286  0.09287829  0.57748222
   0.19037714  0.09287829  0.57748222
   0.80962286  0.90712171  0.42251778
   0.80962286  0.40712171  0.07748222
   0.19037714  0.59287829  0.92251778
   0.30962286  0.09287829  0.92251778
   0.69037714  0.90712171  0.07748222
   0.69037714  0.40712171  0.42251778
   0.30962286  0.59287829  0.57748222
   0.69037714  0.59287829  0.57748222
   0.30962286  0.40712171  0.42251778
   0.30962286  0.90712171  0.07748222
   0.69037714  0.09287829  0.92251778
   0.68998887  0.57745010  0.09291049
   0.31001113  0.42254990  0.90708951
   0.31001113  0.92254990  0.59291049
   0.68998887  0.07745010  0.40708951
   0.31001113  0.07745010  0.40708951
   0.68998887  0.92254990  0.59291049
   0.68998887  0.42254990  0.90708951
   0.31001113  0.57745010  0.09291049
   0.18998887  0.07745010  0.09291049
   0.81001113  0.92254990  0.90708951
   0.81001113  0.42254990  0.59291049
   0.18998887  0.57745010  0.40708951
   0.81001113  0.57745010  0.40708951
   0.18998887  0.42254990  0.59291049
   0.18998887  0.92254990  0.90708951
   0.81001113  0.07745010  0.09291049
  -0.00000000  0.58990554  0.19992706
  -0.00000000  0.41009446  0.80007291
  -0.00000000  0.91009446  0.69992709
  -0.00000000  0.08990554  0.30007294
   0.50000000  0.08990554  0.19992706
   0.50000000  0.91009446  0.80007291
   0.50000000  0.41009446  0.69992709
   0.50000000  0.58990554  0.30007294
  -0.00000000  0.31531645  0.65318308
  -0.00000000  0.68468355 -0.65318308
  -0.00000000  0.18468355  0.15318308
  -0.00000000 -0.18468355 -0.15318308
   0.50000000 -0.18468355  0.65318308
   0.50000000  0.18468355 -0.65318308
   0.50000000  0.68468355  0.15318308
   0.50000000  0.31531645 -0.15318308
  -0.00000000  0.30641449 -0.61144861
  -0.00000000  0.69358551  0.61144860
  -0.00000000  0.19358551 -0.11144860
  -0.00000000 -0.19358551  0.11144860
   0.50000000 -0.19358551 -0.61144861
   0.50000000  0.19358551  0.61144860
   0.50000000  0.69358551 -0.11144860
   0.50000000  0.30641449  0.11144860
   0.74980667  0.50000000 -0.00000000
   0.25019333  0.50000000 -0.00000000
   0.25019333 -0.00000000  0.50000000
   0.74980667 -0.00000000  0.50000000
   0.24980667 -0.00000000 -0.00000000
   0.75019333 -0.00000000 -0.00000000
   0.75019333  0.50000000  0.50000000
   0.24980667  0.50000000  0.50000000
Direct configuration=     9
   0.08227843  0.79153695  0.16978976
   0.91772159  0.20846305  0.83021027
   0.91772159  0.70846305  0.66978973
   0.08227843  0.29153695  0.33021024
   0.91772159  0.29153695  0.33021024
   0.08227843  0.70846305  0.66978973
   0.08227843  0.20846305  0.83021027
   0.91772159  0.79153695  0.16978976
   0.58227841  0.29153695  0.16978976
   0.41772157  0.70846305  0.83021027
   0.41772157  0.20846305  0.66978973
   0.58227841  0.79153695  0.33021024
   0.41772157  0.79153695  0.33021024
   0.58227841  0.20846305  0.66978973
   0.58227841  0.70846305  0.83021027
   0.41772157  0.29153695  0.16978976
   0.80908338  0.59204129  0.92321113
   0.19091662  0.40795871  0.07678887
   0.19091662  0.90795871  0.42321113
   0.80908338  0.09204129  0.57678887
   0.19091662  0.09204129  0.57678887
   0.80908338  0.90795871  0.42321113
   0.80908338  0.40795871  0.07678887
   0.19091662  0.59204129  0.92321113
   0.30908338  0.09204129  0.92321113
   0.69091662  0.90795871  0.07678887
   0.69091662  0.40795871  0.42321113
   0.30908338  0.59204129  0.57678887
   0.69091662  0.59204129  0.57678887
   0.30908338  0.40795871  0.42321113
   0.30908338  0.90795871  0.07678887
   0.69091662  0.09204129  0.92321113
   0.69052762  0.57675250  0.09207773
   0.30947238  0.42324750  0.90792227
   0.30947238  0.92324750  0.59207773
   0.69052762  0.07675250  0.40792227
   0.30947238  0.07675250  0.40792227
   0.69052762  0.92324750  0.59207773
   0.69052762  0.42324750  0.90792227
   0.30947238  0.57675250  0.09207773
   0.19052762  0.07675250  0.09207773
   0.80947238  0.92324750  0.90792227
   0.80947238  0.42324750  0.59207773
   0.19052762  0.57675250  0.40792227
   0.80947238  0.57675250  0.40792227
   0.19052762  0.42324750  0.59207773
   0.19052762  0.92324750  0.90792227
   0.80947238  0.07675250  0.09207773
  -0.00000000  0.59090622  0.19988157
  -0.00000000  0.40909378  0.80011840
  -0.00000000  0.90909378  0.69988160
  -0.00000000  0.09090622  0.30011843
   0.50000000  0.09090622  0.19988157
   0.50000000  0.90909378  0.80011840
   0.50000000  0.40909378  0.69988160
   0.50000000  0.59090622  0.30011843
  -0.00000000  0.34198659  0.59889708
  -0.00000000  0.65801341 -0.59889708
  -0.00000000  0.15801341  0.09889708
  -0.00000000 -0.15801341 -0.09889708
   0.50000000 -0.15801341  0.59889708
   0.50000000  0.15801341 -0.59889708
   0.50000000  0.65801341  0.09889708
   0.50000000  0.34198659 -0.09889708
  -0.00000000  0.33289080 -0.55878519
  -0.00000000  0.66710920  0.55878517
  -0.00000000  0.16710920 -0.05878517
  -0.00000000 -0.16710920  0.05878517
   0.50000000 -0.16710920 -0.55878519
   0.50000000  0.16710920  0.55878517
   0.50000000  0.66710920 -0.05878517
   0.50000000  0.33289080  0.05878517
   0.74980626  0.50000000 -0.00000000
   0.25019374  0.50000000 -0.00000000
   0.25019374 -0.00000000  0.50000000
   0.74980626 -0.00000000  0.50000000
   0.24980626 -0.00000000 -0.00000000
   0.75019374 -0.00000000 -0.00000000
   0.75019374  0.50000000  0.50000000
   0.24980626  0.50000000  0.50000000
Direct configuration=    10
   0.08265496  0.79177678  0.16929278
   0.91734506  0.20822322  0.83070725
   0.91734506  0.70822322  0.66929275
   0.08265496  0.29177678  0.33070722
   0.91734506  0.29177678  0.33070722
   0.08265496  0.70822322  0.66929275
   0.08265496  0.20822322  0.83070725
   0.91734506  0.79177678  0.16929278
   0.58265494  0.29177678  0.16929278
   0.41734503  0.70822322  0.83070725
   0.41734503  0.20822322  0.66929275
   0.58265494  0.79177678  0.33070722
   0.41734503  0.79177678  0.33070722
   0.58265494  0.20822322  0.66929275
   0.58265494  0.70822322  0.83070725
   0.41734503  0.29177678  0.16929278
   0.80940450  0.59253950  0.92279843
   0.19059550  0.40746050  0.07720157
   0.19059550  0.90746050  0.42279843
   0.80940450  0.09253950  0.57720157
   0.19059550  0.09253950  0.57720157
   0.80940450  0.90746050  0.42279843
   0.80940450  0.40746050  0.07720157
   0.19059550  0.59253950  0.92279843
   0.30940450  0.09253950  0.92279843
   0.69059550  0.90746050  0.07720157
   0.69059550  0.40746050  0.42279843
   0.30940450  0.59253950  0.57720157
   0.69059550  0.59253950  0.57720157
   0.30940450  0.40746050  0.42279843
   0.30940450  0.90746050  0.07720157
   0.69059550  0.09253950  0.92279843
   0.69020694  0.57716773  0.09257342
   0.30979306  0.42283227  0.90742658
   0.30979306  0.92283227  0.59257342
   0.69020694  0.07716773  0.40742658
   0.30979306  0.07716773  0.40742658
   0.69020694  0.92283227  0.59257342
   0.69020694  0.42283227  0.90742658
   0.30979306  0.57716773  0.09257342
   0.19020694  0.07716773  0.09257342
   0.80979306  0.92283227  0.90742658
   0.80979306  0.42283227  0.59257342
   0.19020694  0.57716773  0.40742658
   0.80979306  0.57716773  0.40742658
   0.19020694  0.42283227  0.59257342
   0.19020694  0.92283227  0.90742658
   0.80979306  0.07716773  0.09257342
  -0.00000000  0.59031058  0.19990865
  -0.00000000  0.40968942  0.80009132
  -0.00000000  0.90968942  0.69990868
  -0.00000000  0.09031058  0.30009135
   0.50000000  0.09031058  0.19990865
   0.50000000  0.90968942  0.80009132
   0.50000000  0.40968942  0.69990868
   0.50000000  0.59031058  0.30009135
  -0.00000000  0.32611167  0.63120983