methane                                 
           1
    11.303853    0.000000    0.000000
     0.000000    7.906682    0.000000
     0.000000    0.000000    7.901759
   H    C 
  64  16
Direct configuration=     1
   0.07927906  0.81158771  0.21704671
   0.92072096  0.18841229  0.78295332
   0.92072096  0.68841229  0.71704668
   0.07927906  0.31158771  0.28295329
   0.92072096  0.31158771  0.28295329
   0.07927906  0.68841229  0.71704668
   0.07927906  0.18841229  0.78295332
   0.92072096  0.81158771  0.21704671
   0.57927904  0.31158771  0.21704671
   0.42072093  0.68841229  0.78295332
   0.42072093  0.18841229  0.71704668
   0.57927904  0.81158771  0.28295329
   0.42072093  0.81158771  0.28295329
   0.57927904  0.18841229  0.71704668
   0.57927904  0.68841229  0.78295332
   0.42072093  0.31158771  0.21704671
   0.81191614  0.58553947  0.92645602
   0.18808386  0.41446053  0.07354398
   0.18808386  0.91446053  0.42645602
   0.81191614  0.08553947  0.57354398
   0.18808386  0.08553947  0.57354398
   0.81191614  0.91446053  0.42645602
   0.81191614  0.41446053  0.07354398
   0.18808386  0.58553947  0.92645602
   0.31191614  0.08553947  0.92645602
   0.68808386  0.91446053  0.07354398
   0.68808386  0.41446053  0.42645602
   0.31191614  0.58553947  0.57354398
   0.68808386  0.58553947  0.57354398
   0.31191614  0.41446053  0.42645602
   0.31191614  0.91446053  0.07354398
   0.68808386  0.08553947  0.92645602
   0.69999925  0.57402707  0.08561975
   0.30000075  0.42597293  0.91438025
   0.30000075  0.92597293  0.58561975
   0.69999925  0.07402707  0.41438025
   0.30000075  0.07402707  0.41438025
   0.69999925  0.92597293  0.58561975
   0.69999925  0.42597293  0.91438025
   0.30000075  0.57402707  0.08561975
   0.19999925  0.07402707  0.08561975
   0.80000075  0.92597293  0.91438025
   0.80000075  0.42597293  0.58561975
   0.19999925  0.57402707  0.41438025
   0.80000075  0.57402707  0.41438025
   0.19999925  0.42597293  0.58561975
   0.19999925  0.92597293  0.91438025
   0.80000075  0.07402707  0.08561975
   0.00000000  0.61821717  0.18414869
   0.00000000  0.38178283  0.81585128
   0.00000000  0.88178283  0.68414872
   0.00000000  0.11821717  0.31585131
   0.50000000  0.11821717  0.18414869
   0.50000000  0.88178283  0.81585128
   0.50000000  0.38178283  0.68414872
   0.50000000  0.61821717  0.31585131
   0.00000000  0.27882046  0.47508372
   0.00000000  0.72117954  0.52491628
   0.00000000  0.22117954  0.97508372
   0.00000000  0.77882046  0.02491628
   0.50000000  0.77882046  0.47508372
   0.50000000  0.22117954  0.52491628
   0.50000000  0.72117954  0.97508372
   0.50000000  0.27882046  0.02491628
   0.00000000  0.25474726  0.33869591
   0.00000000  0.74525274  0.66130408
   0.00000000  0.24525274  0.83869592
   0.00000000  0.75474726  0.16130408
   0.50000000  0.75474726  0.33869591
   0.50000000  0.24525274  0.66130408
   0.50000000  0.74525274  0.83869592
   0.50000000  0.25474726  0.16130408
   0.75579562  0.50000000  0.00000000
   0.24420438  0.50000000  0.00000000
   0.24420438  0.00000000  0.50000000
   0.75579562  0.00000000  0.50000000
   0.25579562  0.00000000  0.00000000
   0.74420438  0.00000000  0.00000000
   0.74420438  0.50000000  0.50000000
   0.25579562  0.50000000  0.50000000
Direct configuration=     2
   0.07924906  0.81150740  0.21709355
   0.92075096  0.18849260  0.78290648
   0.92075096  0.68849260  0.71709352
   0.07924906  0.31150740  0.28290645
   0.92075096  0.31150740  0.28290645
   0.07924906  0.68849260  0.71709352
   0.07924906  0.18849260  0.78290648
   0.92075096  0.81150740  0.21709355
   0.57924904  0.31150740  0.21709355
   0.42075094  0.68849260  0.78290648
   0.42075094  0.18849260  0.71709352
   0.57924904  0.81150740  0.28290645
   0.42075094  0.81150740  0.28290645
   0.57924904  0.18849260  0.71709352
   0.57924904  0.68849260  0.78290648
   0.42075094  0.31150740  0.21709355
   0.81188524  0.58557875  0.92647179
   0.18811476  0.41442125  0.07352821
   0.18811476  0.91442125  0.42647179
   0.81188524  0.08557875  0.57352821
   0.18811476  0.08557875  0.57352821
   0.81188524  0.91442125  0.42647179
   0.81188524  0.41442125  0.07352821
   0.18811476  0.58557875  0.92647179
   0.31188524  0.08557875  0.92647179
   0.68811476  0.91442125  0.07352821
   0.68811476  0.41442125  0.42647179
   0.31188524  0.58557875  0.57352821
   0.68811476  0.58557875  0.57352821
   0.31188524  0.41442125  0.42647179
   0.31188524  0.91442125  0.07352821
   0.68811476  0.08557875  0.92647179
   0.69997750  0.57400263  0.08563740
   0.30002250  0.42599737  0.91436260
   0.30002250  0.92599737  0.58563740
   0.69997750  0.07400263  0.41436260
   0.30002250  0.07400263  0.41436260
   0.69997750  0.92599737  0.58563740
   0.69997750  0.42599737  0.91436260
   0.30002250  0.57400263  0.08563740
   0.19997750  0.07400263  0.08563740
   0.80002250  0.92599737  0.91436260
   0.80002250  0.42599737  0.58563740
   0.19997750  0.57400263  0.41436260
   0.80002250  0.57400263  0.41436260
   0.19997750  0.42599737  0.58563740
   0.19997750  0.92599737  0.91436260
   0.80002250  0.07400263  0.08563740
   0.00000000  0.61815418  0.18420615
   0.00000000  0.38184582  0.81579382
   0.00000000  0.88184582  0.68420618
   0.00000000  0.11815418  0.31579385
   0.50000000  0.11815418  0.18420615
   0.50000000  0.88184582  0.81579382
   0.50000000  0.38184582  0.68420618
   0.50000000  0.61815418  0.31579385
   0.00000000  0.27875780  0.47513585
   0.00000000  0.72124220  0.52486415
   0.00000000  0.22124220  0.97513585
   0.00000000  0.77875780  0.02486415
   0.50000000  0.77875780  0.47513585
   0.50000000  0.22124220  0.52486415
   0.50000000  0.72124220  0.97513585
   0.50000000  0.27875780  0.02486415
   0.00000000  0.25484573  0.33876413
   0.00000000  0.74515427  0.66123585
   0.00000000  0.24515427  0.83876415
   0.00000000  0.75484573  0.16123585
   0.50000000  0.75484573  0.33876413
   0.50000000  0.24515427  0.66123585
   0.50000000  0.74515427  0.83876415
   0.50000000  0.25484573  0.16123585
   0.75579128  0.50000000 -0.00000000
   0.24420872  0.50000000 -0.00000000
   0.24420872 -0.00000000  0.50000000
   0.75579128 -0.00000000  0.50000000
   0.25579128 -0.00000000  0.00000000
   0.74420872 -0.00000000 -0.00000000
   0.74420872  0.50000000  0.50000000
   0.25579128  0.50000000  0.50000000
Direct configuration=     3
   0.07925834  0.81153224  0.21707906
   0.92074168  0.18846776  0.78292097
   0.92074168  0.68846776  0.71707903
   0.07925834  0.31153224  0.28292094
   0.92074168  0.31153224  0.28292094
   0.07925834  0.68846776  0.71707903
   0.07925834  0.18846776  0.78292097
   0.92074168  0.81153224  0.21707906
   0.57925832  0.31153224  0.21707906
   0.42074165  0.68846776  0.78292097
   0.42074165  0.18846776  0.71707903
   0.57925832  0.81153224  0.28292094
   0.42074165  0.81153224  0.28292094
   0.57925832  0.18846776  0.71707903
   0.57925832  0.68846776  0.78292097
   0.42074165  0.31153224  0.21707906
   0.81189480  0.58556660  0.92646691
   0.18810520  0.41443340  0.07353309
   0.18810520  0.91443340  0.42646691
   0.81189480  0.08556660  0.57353309
   0.18810520  0.08556660  0.57353309
   0.81189480  0.91443340  0.42646691
   0.81189480  0.41443340  0.07353309
   0.18810520  0.58556660  0.92646691
   0.31189480  0.08556660  0.92646691
   0.68810520  0.91443340  0.07353309
   0.68810520  0.41443340  0.42646691
   0.31189480  0.58556660  0.57353309
   0.68810520  0.58556660  0.57353309
   0.31189480  0.41443340  0.42646691
   0.31189480  0.91443340  0.07353309
   0.68810520  0.08556660  0.92646691
   0.69998423  0.57401019  0.08563194
   0.30001577  0.42598981  0.91436806
   0.30001577  0.92598981  0.58563194
   0.69998423  0.07401019  0.41436806
   0.30001577  0.07401019  0.41436806
   0.69998423  0.92598981  0.58563194
   0.69998423  0.42598981  0.91436806
   0.30001577  0.57401019  0.08563194
   0.19998423  0.07401019  0.08563194
   0.80001577  0.92598981  0.91436806
   0.80001577  0.42598981  0.58563194
   0.19998423  0.57401019  0.41436806
   0.80001577  0.57401019  0.41436806
   0.19998423  0.42598981  0.58563194
   0.19998423  0.92598981  0.91436806
   0.80001577  0.07401019  0.08563194
   0.00000000  0.61817367  0.18418837
   0.00000000  0.38182633  0.81581160
   0.00000000  0.88182633  0.68418840
   0.00000000  0.11817367  0.31581163
   0.50000000  0.11817367  0.18418837
   0.50000000  0.88182633  0.81581160
   0.50000000  0.38182633  0.68418840
   0.50000000  0.61817367  0.31581163
   0.00000000  0.27877718  0.47511972
   0.00000000  0.72122282  0.52488028
   0.00000000  0.22122282  0.97511972
   0.00000000  0.77877718  0.02488028
   0.50000000  0.77877718  0.47511972
   0.50000000  0.22122282  0.52488028
   0.50000000  0.72122282  0.97511972
   0.50000000  0.27877718  0.02488028
   0.00000000  0.25481527  0.33874303
   0.00000000  0.74518473  0.66125696
   0.00000000  0.24518473  0.83874304
   0.00000000  0.75481527  0.16125696
   0.50000000  0.75481527  0.33874303
   0.50000000  0.24518473  0.66125696
   0.50000000  0.74518473  0.83874304
   0.50000000  0.25481527  0.16125696
   0.75579262  0.50000000 -0.00000000
   0.24420738  0.50000000 -0.00000000
   0.24420738 -0.00000000  0.50000000
   0.75579262 -0.00000000  0.50000000
   0.25579262 -0.00000000  0.00000000
   0.74420738 -0.00000000 -0.00000000
   0.74420738  0.50000000  0.50000000
   0.25579262  0.50000000  0.50000000
