diamond                                 
           1
    11.303853    0.000000    0.000000
     0.000000    7.906682    0.000000
     0.000000    0.000000    7.901759
   H    C 
  64  16
Direct configuration=     1
   0.07927436  0.81160237  0.21701243
   0.92072566  0.18839763  0.78298760
   0.92072566  0.68839763  0.71701240
   0.07927436  0.31160237  0.28298757
   0.92072566  0.31160237  0.28298757
   0.07927436  0.68839763  0.71701240
   0.07927436  0.18839763  0.78298760
   0.92072566  0.81160237  0.21701243
   0.57927434  0.31160237  0.21701243
   0.42072563  0.68839763  0.78298760
   0.42072563  0.18839763  0.71701240
   0.57927434  0.81160237  0.28298757
   0.42072563  0.81160237  0.28298757
   0.57927434  0.18839763  0.71701240
   0.57927434  0.68839763  0.78298760
   0.42072563  0.31160237  0.21701243
   0.81192535  0.58551987  0.92645415
   0.18807465  0.41448013  0.07354585
   0.18807465  0.91448013  0.42645415
   0.81192535  0.08551987  0.57354585
   0.18807465  0.08551987  0.57354585
   0.81192535  0.91448013  0.42645415
   0.81192535  0.41448013  0.07354585
   0.18807465  0.58551987  0.92645415
   0.31192535  0.08551987  0.92645415
   0.68807465  0.91448013  0.07354585
   0.68807465  0.41448013  0.42645415
   0.31192535  0.58551987  0.57354585
   0.68807465  0.58551987  0.57354585
   0.31192535  0.41448013  0.42645415
   0.31192535  0.91448013  0.07354585
   0.68807465  0.08551987  0.92645415
   0.70000563  0.57403934  0.08561667
   0.29999437  0.42596066  0.91438333
   0.29999437  0.92596066  0.58561667
   0.70000563  0.07403934  0.41438333
   0.29999437  0.07403934  0.41438333
   0.70000563  0.92596066  0.58561667
   0.70000563  0.42596066  0.91438333
   0.29999437  0.57403934  0.08561667
   0.20000563  0.07403934  0.08561667
   0.79999437  0.92596066  0.91438333
   0.79999437  0.42596066  0.58561667
   0.20000563  0.57403934  0.41438333
   0.79999437  0.57403934  0.41438333
   0.20000563  0.42596066  0.58561667
   0.20000563  0.92596066  0.91438333
   0.79999437  0.07403934  0.08561667
   0.00000000  0.61814779  0.18413752
   0.00000000  0.38185221  0.81586245
   0.00000000  0.88185221  0.68413755
   0.00000000  0.11814779  0.31586248
   0.50000000  0.11814779  0.18413752
   0.50000000  0.88185221  0.81586245
   0.50000000  0.38185221  0.68413755
   0.50000000  0.61814779  0.31586248
   0.00000000  0.27883287  0.47502372
   0.00000000  0.72116713  0.52497628
   0.00000000  0.22116713  0.97502372
   0.00000000  0.77883287  0.02497628
   0.50000000  0.77883287  0.47502372
   0.50000000  0.22116713  0.52497628
   0.50000000  0.72116713  0.97502372
   0.50000000  0.27883287  0.02497628
   0.00000000  0.25484667  0.33868876
   0.00000000  0.74515333  0.66131122
   0.00000000  0.24515333  0.83868878
   0.00000000  0.75484667  0.16131122
   0.50000000  0.75484667  0.33868876
   0.50000000  0.24515333  0.66131122
   0.50000000  0.74515333  0.83868878
   0.50000000  0.25484667  0.16131122
   0.75580634  0.50000000  0.00000000
   0.24419366  0.50000000  0.00000000
   0.24419366  0.00000000  0.50000000
   0.75580634  0.00000000  0.50000000
   0.25580634  0.00000000  0.00000000
   0.74419366  0.00000000  0.00000000
   0.74419366  0.50000000  0.50000000
   0.25580634  0.50000000  0.50000000
Direct configuration=     2
   0.07928662  0.81156414  0.21710183
   0.92071340  0.18843586  0.78289820
   0.92071340  0.68843586  0.71710180
   0.07928662  0.31156414  0.28289817
   0.92071340  0.31156414  0.28289817
   0.07928662  0.68843586  0.71710180
   0.07928662  0.18843586  0.78289820
   0.92071340  0.81156414  0.21710183
   0.57928660  0.31156414  0.21710183
   0.42071337  0.68843586  0.78289820
   0.42071337  0.18843586  0.71710180
   0.57928660  0.81156414  0.28289817
   0.42071337  0.81156414  0.28289817
   0.57928660  0.18843586  0.71710180
   0.57928660  0.68843586  0.78289820
   0.42071337  0.31156414  0.21710183
   0.81190133  0.58557098  0.92645903
   0.18809867  0.41442902  0.07354097
   0.18809867  0.91442902  0.42645903
   0.81190133  0.08557098  0.57354097
   0.18809867  0.08557098  0.57354097
   0.81190133  0.91442902  0.42645903
   0.81190133  0.41442902  0.07354097
   0.18809867  0.58557098  0.92645903
   0.31190133  0.08557098  0.92645903
   0.68809867  0.91442902  0.07354097
   0.68809867  0.41442902  0.42645903
   0.31190133  0.58557098  0.57354097
   0.68809867  0.58557098  0.57354097
   0.31190133  0.41442902  0.42645903
   0.31190133  0.91442902  0.07354097
   0.68809867  0.08557098  0.92645903
   0.69998898  0.57400734  0.08562469
   0.30001102  0.42599266  0.91437531
   0.30001102  0.92599266  0.58562469
   0.69998898  0.07400734  0.41437531
   0.30001102  0.07400734  0.41437531
   0.69998898  0.92599266  0.58562469
   0.69998898  0.42599266  0.91437531
   0.30001102  0.57400734  0.08562469
   0.19998898  0.07400734  0.08562469
   0.80001102  0.92599266  0.91437531
   0.80001102  0.42599266  0.58562469
   0.19998898  0.57400734  0.41437531
   0.80001102  0.57400734  0.41437531
   0.19998898  0.42599266  0.58562469
   0.19998898  0.92599266  0.91437531
   0.80001102  0.07400734  0.08562469
   0.00000000  0.61832872  0.18416664
   0.00000000  0.38167128  0.81583333
   0.00000000  0.88167128  0.68416667
   0.00000000  0.11832872  0.31583336
   0.50000000  0.11832872  0.18416664
   0.50000000  0.88167128  0.81583333
   0.50000000  0.38167128  0.68416667
   0.50000000  0.61832872  0.31583336
   0.00000000  0.27880050  0.47518018
   0.00000000  0.72119950  0.52481982
   0.00000000  0.22119950  0.97518018
   0.00000000  0.77880050  0.02481982
   0.50000000  0.77880050  0.47518018
   0.50000000  0.22119950  0.52481982
   0.50000000  0.72119950  0.97518018
   0.50000000  0.27880050  0.02481982
   0.00000000  0.25458743  0.33870739
   0.00000000  0.74541257  0.66129260
   0.00000000  0.24541257  0.83870740
   0.00000000  0.75458743  0.16129260
   0.50000000  0.75458743  0.33870739
   0.50000000  0.24541257  0.66129260
   0.50000000  0.74541257  0.83870740
   0.50000000  0.25458743  0.16129260
   0.75577837  0.50000000  0.00000000
   0.24422163  0.50000000  0.00000000
   0.24422163  0.00000000  0.50000000
   0.75577837  0.00000000  0.50000000
   0.25577837  0.00000000  0.00000000
   0.74422163  0.00000000  0.00000000
   0.74422163  0.50000000  0.50000000
   0.25577837  0.50000000  0.50000000
Direct configuration=     3
   0.07927906  0.81158771  0.21704671
   0.92072096  0.18841229  0.78295332
   0.92072096  0.68841229  0.71704668
   0.07927906  0.31158771  0.28295329
   0.92072096  0.31158771  0.28295329
   0.07927906  0.68841229  0.71704668
   0.07927906  0.18841229  0.78295332
   0.92072096  0.81158771  0.21704671
   0.57927904  0.31158771  0.21704671
   0.42072093  0.68841229  0.78295332
   0.42072093  0.18841229  0.71704668
   0.57927904  0.81158771  0.28295329
   0.42072093  0.81158771  0.28295329
   0.57927904  0.18841229  0.71704668
   0.57927904  0.68841229  0.78295332
   0.42072093  0.31158771  0.21704671
   0.81191614  0.58553947  0.92645602
   0.18808386  0.41446053  0.07354398
   0.18808386  0.91446053  0.42645602
   0.81191614  0.08553947  0.57354398
   0.18808386  0.08553947  0.57354398
   0.81191614  0.91446053  0.42645602
   0.81191614  0.41446053  0.07354398
   0.18808386  0.58553947  0.92645602
   0.31191614  0.08553947  0.92645602
   0.68808386  0.91446053  0.07354398
   0.68808386  0.41446053  0.42645602
   0.31191614  0.58553947  0.57354398
   0.68808386  0.58553947  0.57354398
   0.31191614  0.41446053  0.42645602
   0.31191614  0.91446053  0.07354398
   0.68808386  0.08553947  0.92645602
   0.69999925  0.57402707  0.08561975
   0.30000075  0.42597293  0.91438025
   0.30000075  0.92597293  0.58561975
   0.69999925  0.07402707  0.41438025
   0.30000075  0.07402707  0.41438025
   0.69999925  0.92597293  0.58561975
   0.69999925  0.42597293  0.91438025
   0.30000075  0.57402707  0.08561975
   0.19999925  0.07402707  0.08561975
   0.80000075  0.92597293  0.91438025
   0.80000075  0.42597293  0.58561975
   0.19999925  0.57402707  0.41438025
   0.80000075  0.57402707  0.41438025
   0.19999925  0.42597293  0.58561975
   0.19999925  0.92597293  0.91438025
   0.80000075  0.07402707  0.08561975
   0.00000000  0.61821717  0.18414869
   0.00000000  0.38178283  0.81585128
   0.00000000  0.88178283  0.68414872
   0.00000000  0.11821717  0.31585131
   0.50000000  0.11821717  0.18414869
   0.50000000  0.88178283  0.81585128
   0.50000000  0.38178283  0.68414872
   0.50000000  0.61821717  0.31585131
   0.00000000  0.27882046  0.47508372
   0.00000000  0.72117954  0.52491628
   0.00000000  0.22117954  0.97508372
   0.00000000  0.77882046  0.02491628
   0.50000000  0.77882046  0.47508372
   0.50000000  0.22117954  0.52491628
   0.50000000  0.72117954  0.97508372
   0.50000000  0.27882046  0.02491628
   0.00000000  0.25474726  0.33869591
   0.00000000  0.74525274  0.66130408
   0.00000000  0.24525274  0.83869592
   0.00000000  0.75474726  0.16130408
   0.50000000  0.75474726  0.33869591
   0.50000000  0.24525274  0.66130408
   0.50000000  0.74525274  0.83869592
   0.50000000  0.25474726  0.16130408
   0.75579562  0.50000000  0.00000000
   0.24420438  0.50000000  0.00000000
   0.24420438  0.00000000  0.50000000
   0.75579562  0.00000000  0.50000000
   0.25579562  0.00000000  0.00000000
   0.74420438  0.00000000  0.00000000
   0.74420438  0.50000000  0.50000000
   0.25579562  0.50000000  0.50000000
