  32  32   0   0
  0.1019246E+02  0.4934311E-09  0.4934311E-09  0.1546921E-08  0.5000000E-15
  1.000000000000000E-004
  CAR 
 graphite                                
     13.99010141    -18.03017310  301      3.50921710      1.00000000
    -18.030  0.0000E+00  0.0000E+00
    -17.923  0.0000E+00  0.0000E+00
    -17.817  0.0000E+00  0.0000E+00
    -17.710  0.0000E+00  0.0000E+00
    -17.603  0.0000E+00  0.0000E+00
    -17.497  0.0000E+00  0.0000E+00
    -17.390  0.0000E+00  0.0000E+00
    -17.283  0.0000E+00  0.0000E+00
    -17.176  0.0000E+00  0.0000E+00
    -17.070  0.0000E+00  0.0000E+00
    -16.963  0.0000E+00  0.0000E+00
    -16.856  0.0000E+00  0.0000E+00
    -16.749  0.0000E+00  0.0000E+00
    -16.643  0.0000E+00  0.0000E+00
    -16.536  0.0000E+00  0.0000E+00
    -16.429  0.0000E+00  0.0000E+00
    -16.322  0.0000E+00  0.0000E+00
    -16.216  0.0000E+00  0.0000E+00
    -16.109  0.0000E+00  0.0000E+00
    -16.002  0.7398E+00  0.8022E-02
    -15.895  0.5048E+01  0.3485E+00
    -15.789  0.5119E+01  0.8716E+00
    -15.682  0.4756E+01  0.1405E+01
    -15.575  0.4978E+01  0.1919E+01
    -15.469  0.5038E+01  0.2461E+01
    -15.362  0.4832E+01  0.2983E+01
    -15.255  0.4934E+01  0.3503E+01
    -15.148  0.5108E+01  0.4039E+01
    -15.042  0.4930E+01  0.4577E+01
    -14.935  0.4962E+01  0.5102E+01
    -14.828  0.5779E+01  0.5656E+01
    -14.721  0.5863E+01  0.6308E+01
    -14.615  0.6745E+01  0.6924E+01
    -14.508  0.3142E+01  0.7590E+01
    -14.401  0.2240E+01  0.7795E+01
    -14.294  0.4143E+01  0.8135E+01
    -14.188  0.4791E+01  0.8654E+01
    -14.081  0.4004E+01  0.9102E+01
    -13.974  0.9886E+01  0.9969E+01
    -13.868  0.4272E+01  0.1060E+02
    -13.761  0.4322E+01  0.1106E+02
    -13.654  0.4420E+01  0.1153E+02
    -13.547  0.4518E+01  0.1201E+02
    -13.441  0.4616E+01  0.1249E+02
    -13.334  0.5737E+01  0.1301E+02
    -13.227  0.5931E+01  0.1369E+02
    -13.120  0.5353E+01  0.1427E+02
    -13.014  0.5693E+01  0.1486E+02
    -12.907  0.5203E+01  0.1546E+02
    -12.800  0.4755E+01  0.1598E+02
    -12.693  0.4834E+01  0.1649E+02
    -12.587  0.4908E+01  0.1701E+02
    -12.480  0.4929E+01  0.1753E+02
    -12.373  0.4959E+01  0.1806E+02
    -12.267  0.5723E+01  0.1862E+02
    -12.160  0.5775E+01  0.1924E+02
    -12.053  0.5618E+01  0.1985E+02
    -11.946  0.5493E+01  0.2044E+02
    -11.840  0.5622E+01  0.2103E+02
    -11.733  0.5773E+01  0.2164E+02
    -11.626  0.5474E+01  0.2221E+02
    -11.519  0.5659E+01  0.2281E+02
    -11.413  0.5432E+01  0.2339E+02
    -11.306  0.5495E+01  0.2398E+02
    -11.199  0.5699E+01  0.2457E+02
    -11.092  0.5913E+01  0.2519E+02
    -10.986  0.7092E+01  0.2584E+02
    -10.879  0.9771E+01  0.2690E+02
    -10.772  0.6442E+01  0.2777E+02
    -10.666  0.5209E+01  0.2836E+02
    -10.559  0.1018E+02  0.2916E+02
    -10.452  0.3644E+01  0.2960E+02
    -10.345  0.3281E+01  0.2997E+02
    -10.239  0.2918E+01  0.3030E+02
    -10.132  0.2554E+01  0.3059E+02
    -10.025  0.2191E+01  0.3084E+02
     -9.918  0.3374E+01  0.3112E+02
     -9.812  0.1475E+01  0.3146E+02
     -9.705  0.1295E+01  0.3160E+02
     -9.598  0.2201E+01  0.3179E+02
     -9.491  0.4320E+01  0.3209E+02
     -9.385  0.9930E+01  0.3285E+02
     -9.278  0.3813E+01  0.3334E+02
     -9.171  0.4136E+01  0.3376E+02
     -9.064  0.4491E+01  0.3422E+02
     -8.958  0.5964E+01  0.3510E+02
     -8.851  0.7030E+01  0.3579E+02
     -8.744  0.8094E+01  0.3660E+02
     -8.638  0.9125E+01  0.3752E+02
     -8.531  0.6402E+01  0.3835E+02
     -8.424  0.6152E+01  0.3902E+02
     -8.317  0.5902E+01  0.3966E+02
     -8.211  0.5656E+01  0.4028E+02
     -8.104  0.5447E+01  0.4087E+02
     -7.997  0.5266E+01  0.4144E+02
     -7.890  0.5084E+01  0.4199E+02
     -7.784  0.4890E+01  0.4253E+02
     -7.677  0.4847E+01  0.4305E+02
     -7.570  0.4816E+01  0.4356E+02
     -7.463  0.4783E+01  0.4407E+02
     -7.357  0.4429E+01  0.4457E+02
     -7.250  0.4374E+01  0.4504E+02
     -7.143  0.3463E+01  0.4550E+02
     -7.037  0.3967E+01  0.4592E+02
     -6.930  0.4472E+01  0.4636E+02
     -6.823  0.5093E+01  0.4687E+02
     -6.716  0.6052E+01  0.4747E+02
     -6.610  0.6932E+01  0.4815E+02
     -6.503  0.9848E+01  0.4921E+02
     -6.396  0.7735E+01  0.5015E+02
     -6.289  0.5622E+01  0.5086E+02
     -6.183  0.3509E+01  0.5135E+02
     -6.076  0.2860E+01  0.5166E+02
     -5.969  0.3469E+01  0.5199E+02
     -5.862  0.4691E+01  0.5242E+02
     -5.756  0.5913E+01  0.5299E+02
     -5.649  0.7614E+01  0.5370E+02
     -5.542  0.7608E+01  0.5455E+02
     -5.436  0.6472E+01  0.5530E+02
     -5.329  0.5613E+01  0.5593E+02
     -5.222  0.7551E+01  0.5666E+02
     -5.115  0.7062E+01  0.5744E+02
     -5.009  0.6573E+01  0.5817E+02
     -4.902  0.6085E+01  0.5885E+02
     -4.795  0.5596E+01  0.5947E+02
     -4.688  0.5263E+01  0.6004E+02
     -4.582  0.7578E+01  0.6102E+02
     -4.475  0.8591E+01  0.6190E+02
     -4.368  0.8264E+01  0.6281E+02
     -4.261  0.7676E+01  0.6366E+02
     -4.155  0.7039E+01  0.6444E+02
     -4.048  0.7305E+01  0.6520E+02
     -3.941  0.7920E+01  0.6601E+02
     -3.835  0.1079E+02  0.6697E+02
     -3.728  0.1513E+02  0.6839E+02
     -3.621  0.1323E+02  0.6996E+02
     -3.514  0.1287E+02  0.7136E+02
     -3.408  0.1339E+02  0.7285E+02
     -3.301  0.1833E+02  0.7438E+02
     -3.194  0.1592E+02  0.7623E+02
     -3.087  0.1981E+02  0.7781E+02
     -2.981  0.9237E+01  0.7938E+02
     -2.874  0.1501E+02  0.8037E+02
     -2.767  0.1622E+02  0.8241E+02
     -2.660  0.2039E+02  0.8439E+02
     -2.554  0.1619E+02  0.8644E+02
     -2.447  0.1094E+02  0.8788E+02
     -2.340  0.8094E+01  0.8890E+02
     -2.234  0.9533E+01  0.8980E+02
     -2.127  0.9392E+01  0.9083E+02
     -2.020  0.9823E+01  0.9184E+02
     -1.913  0.1161E+02  0.9314E+02
     -1.807  0.1209E+02  0.9435E+02
     -1.700  0.1077E+02  0.9579E+02
     -1.593  0.1072E+02  0.9692E+02
     -1.486  0.1101E+02  0.9807E+02
     -1.380  0.1137E+02  0.9926E+02
     -1.273  0.1118E+02  0.1004E+03
     -1.166  0.1019E+02  0.1016E+03
     -1.059  0.9818E+01  0.1027E+03
     -0.953  0.9529E+01  0.1037E+03
     -0.846  0.9145E+01  0.1047E+03
     -0.739  0.9030E+01  0.1057E+03
     -0.632  0.9298E+01  0.1066E+03
     -0.526  0.9236E+01  0.1076E+03
     -0.419  0.9324E+01  0.1086E+03
     -0.312  0.9331E+01  0.1096E+03
     -0.206  0.9233E+01  0.1106E+03
     -0.099  0.9070E+01  0.1116E+03
      0.008  0.9229E+01  0.1126E+03
      0.115  0.9214E+01  0.1135E+03
      0.221  0.9906E+01  0.1145E+03
      0.328  0.9538E+01  0.1156E+03
      0.435  0.8749E+01  0.1166E+03
      0.542  0.6702E+01  0.1174E+03
      0.648  0.5972E+01  0.1181E+03
      0.755  0.5282E+01  0.1187E+03
      0.862  0.4430E+01  0.1192E+03
      0.969  0.5174E+01  0.1197E+03
      1.075  0.4749E+01  0.1202E+03
      1.182  0.9029E+01  0.1209E+03
      1.289  0.1006E+02  0.1221E+03
      1.395  0.7778E+01  0.1231E+03
      1.502  0.5850E+01  0.1238E+03
      1.609  0.4927E+01  0.1244E+03
      1.716  0.4367E+01  0.1249E+03
      1.822  0.3668E+01  0.1253E+03
      1.929  0.3423E+01  0.1257E+03
      2.036  0.3042E+01  0.1260E+03
      2.143  0.2688E+01  0.1263E+03
      2.249  0.2447E+01  0.1266E+03
      2.356  0.2324E+01  0.1268E+03
      2.463  0.2081E+01  0.1271E+03
      2.570  0.1797E+01  0.1273E+03
      2.676  0.1518E+01  0.1275E+03
      2.783  0.1200E+01  0.1276E+03
      2.890  0.9710E+00  0.1277E+03
      2.996  0.7799E+00  0.1278E+03
      3.103  0.5888E+00  0.1279E+03
      3.210  0.3976E+00  0.1279E+03
      3.317  0.2238E+00  0.1280E+03
      3.423  0.8951E-01  0.1280E+03
      3.530  0.1784E-01  0.1280E+03
      3.637  0.1300E+00  0.1280E+03
      3.744  0.2714E+00  0.1280E+03
      3.850  0.4636E+00  0.1281E+03
      3.957  0.6670E+00  0.1281E+03
      4.064  0.8706E+00  0.1282E+03
      4.171  0.1074E+01  0.1283E+03
      4.277  0.1278E+01  0.1284E+03
      4.384  0.1911E+01  0.1286E+03
      4.491  0.2500E+01  0.1288E+03
      4.597  0.2534E+01  0.1291E+03
      4.704  0.2559E+01  0.1294E+03
      4.811  0.3269E+01  0.1297E+03
      4.918  0.4000E+01  0.1301E+03
      5.024  0.6709E+01  0.1306E+03
      5.131  0.1012E+02  0.1314E+03
      5.238  0.1067E+02  0.1326E+03
      5.345  0.7939E+01  0.1336E+03
      5.451  0.7257E+01  0.1344E+03
      5.558  0.6141E+01  0.1351E+03
      5.665  0.5898E+01  0.1357E+03
      5.772  0.5737E+01  0.1364E+03
      5.878  0.5391E+01  0.1370E+03
      5.985  0.4944E+01  0.1375E+03
      6.092  0.4467E+01  0.1380E+03
      6.199  0.3935E+01  0.1385E+03
      6.305  0.3963E+01  0.1389E+03
      6.412  0.4661E+01  0.1393E+03
      6.519  0.4602E+01  0.1398E+03
      6.625  0.4550E+01  0.1403E+03
      6.732  0.4300E+01  0.1408E+03
      6.839  0.4151E+01  0.1412E+03
      6.946  0.4005E+01  0.1417E+03
      7.052  0.4230E+01  0.1421E+03
      7.159  0.4340E+01  0.1426E+03
      7.266  0.4418E+01  0.1430E+03
      7.373  0.4288E+01  0.1435E+03
      7.479  0.4299E+01  0.1440E+03
      7.586  0.4398E+01  0.1444E+03
      7.693  0.4527E+01  0.1449E+03
      7.800  0.4714E+01  0.1454E+03
      7.906  0.4708E+01  0.1459E+03
      8.013  0.4696E+01  0.1464E+03
      8.120  0.4706E+01  0.1469E+03
      8.226  0.4862E+01  0.1474E+03
      8.333  0.5044E+01  0.1479E+03
      8.440  0.5243E+01  0.1485E+03
      8.547  0.5205E+01  0.1491E+03
      8.653  0.5086E+01  0.1496E+03
      8.760  0.5024E+01  0.1501E+03
      8.867  0.5016E+01  0.1507E+03
      8.974  0.5089E+01  0.1512E+03
      9.080  0.5271E+01  0.1518E+03
      9.187  0.5072E+01  0.1523E+03
      9.294  0.4729E+01  0.1529E+03
      9.401  0.4489E+01  0.1533E+03
      9.507  0.4486E+01  0.1538E+03
      9.614  0.5912E+01  0.1544E+03
      9.721  0.6907E+01  0.1550E+03
      9.827  0.5325E+01  0.1557E+03
      9.934  0.4252E+01  0.1562E+03
     10.041  0.4557E+01  0.1566E+03
     10.148  0.5111E+01  0.1572E+03
     10.254  0.5158E+01  0.1577E+03
     10.361  0.5347E+01  0.1583E+03
     10.468  0.5263E+01  0.1588E+03
     10.575  0.4114E+01  0.1594E+03
     10.681  0.3869E+01  0.1598E+03
     10.788  0.5383E+01  0.1603E+03
     10.895  0.9166E+01  0.1611E+03
     11.002  0.1052E+02  0.1622E+03
     11.108  0.1133E+02  0.1634E+03
     11.215  0.1122E+02  0.1646E+03
     11.322  0.1074E+02  0.1658E+03
     11.428  0.8464E+01  0.1669E+03
     11.535  0.3992E+01  0.1675E+03
     11.642  0.1632E+01  0.1678E+03
     11.749  0.8483E+00  0.1679E+03
     11.855  0.3205E+00  0.1680E+03
     11.962  0.1529E-01  0.1680E+03
     12.069  0.0000E+00  0.1680E+03
     12.176  0.0000E+00  0.1680E+03
     12.282  0.0000E+00  0.1680E+03
     12.389  0.0000E+00  0.1680E+03
     12.496  0.0000E+00  0.1680E+03
     12.603  0.0000E+00  0.1680E+03
     12.709  0.0000E+00  0.1680E+03
     12.816  0.0000E+00  0.1680E+03
     12.923  0.0000E+00  0.1680E+03
     13.029  0.0000E+00  0.1680E+03
     13.136  0.0000E+00  0.1680E+03
     13.243  0.0000E+00  0.1680E+03
     13.350  0.0000E+00  0.1680E+03
     13.456  0.0000E+00  0.1680E+03
     13.563  0.0000E+00  0.1680E+03
     13.670  0.0000E+00  0.1680E+03
     13.777  0.0000E+00  0.1680E+03
     13.883  0.0000E+00  0.1680E+03
     13.990  0.0000E+00  0.1680E+03
