   32   32    1    1
  0.5317807E+01  0.4934311E-09  0.4934311E-09  0.8070891E-09  0.5000000E-15
  1.000000000000000E-004
  CAR 
 graphite                                
    128    163     84
 
  0.0000000E+00  0.0000000E+00  0.0000000E+00  0.3086420E-02
    1      -11.766833
    2       -9.984522
    3       -9.977655
    4       -6.260955
    5       -6.070109
    6       -6.069959
    7       -6.069517
    8       -5.094252
    9       -5.091939
   10       -5.090190
   11       -4.504804
   12       -4.497711
   13       -4.496231
   14       -4.495920
   15       -4.494404
   16       -4.487277
   17       -3.410831
   18       -3.407466
   19       -3.405357
   20       -3.403777
   21       -3.400817
   22       -3.398434
   23       -1.842147
   24       -1.146488
   25       -1.145128
   26       -1.144170
   27       -0.991856
   28       -0.988790
   29       -0.986295
   30        2.871635
   31        2.874508
   32        2.879188
   33        3.904663
   34        3.910404
   35        3.911770
   36        3.912345
   37        3.913591
   38        3.920046
   39        3.955338
   40        3.956037
   41        3.956662
   42        4.937745
   43        4.946522
   44        5.170323
   45        5.173902
   46        5.179143
   47        6.822247
   48        6.835325
   49        7.239593
   50        7.241437
   51        7.242131
   52        7.356074
   53        7.364897
   54        7.369164
   55        7.379787
   56        7.866881
   57        7.881362
   58        9.398621
   59        9.414220
   60        9.414495
   61        9.416299
   62        9.416637
   63        9.432075
   64       11.630391
   65       12.311423
   66       12.325582
   67       12.327504
   68       12.328304
   69       12.330258
   70       12.344493
   71       14.829158
   72       14.833938
   73       14.839509
   74       14.909083
   75       14.909836
   76       14.911737
   77       17.806261
   78       17.809019
   79       17.810822
   80       18.018789
   81       18.037247
   82       18.048283
   83       18.051042
   84       18.060467
 
  0.1111111E+00 -0.1387779E-16  0.0000000E+00  0.6172840E-02
    1      -11.688694
    2       -9.908073
    3       -9.901213
    4       -6.926093
    5       -6.335277
    6       -6.333295
    7       -6.195416
    8       -5.287806
    9       -5.281443
   10       -4.732787
   11       -4.729352
   12       -4.726982
   13       -4.721661
   14       -4.699176
   15       -4.695989
   16       -4.138863
   17       -3.052041
   18       -3.048183
   19       -3.045304
   20       -3.042586
   21       -2.504431
   22       -2.498320
   23       -2.070300
   24       -1.751407
   25       -1.556553
   26       -1.553567
   27       -0.485365
   28       -0.481776
   29        0.059967
   30        2.601796
   31        2.606956
   32        2.949228
   33        3.408229
   34        3.650340
   35        3.653230
   36        3.654962
   37        3.661259
   38        3.857256
   39        3.858682
   40        3.979974
   41        3.985107
   42        4.994477
   43        5.000356
   44        5.004752
   45        5.013192
   46        5.238784
   47        6.421407
   48        6.590503
   49        7.059535
   50        7.067697
   51        7.195572
   52        7.203913
   53        7.488030
   54        7.490370
   55        7.687366
   56        7.805754
   57        7.907597
   58        9.055843
   59        9.067159
   60        9.363745
   61        9.372301
   62        9.374161
   63        9.386565
   64       11.675139
   65       12.470023
   66       12.481630
   67       12.484407
   68       12.493226
   69       12.707426
   70       12.719336
   71       14.592865
   72       14.593672
   73       14.781867
   74       14.897608
   75       15.246792
   76       15.254455
   77       17.865004
   78       17.868079
   79       17.929615
   80       18.000394
   81       18.170015
   82       18.182361
   83       18.197877
   84       18.209140
 
  0.2222222E+00 -0.4163336E-16  0.0000000E+00  0.6172840E-02
    1      -11.454545
    2       -9.679157
    3       -9.672316
    4       -8.013458
    5       -6.712584
    6       -6.710352
    7       -6.331866
    8       -6.325359
    9       -5.999225
   10       -5.083101
   11       -5.080101
   12       -5.077226
   13       -5.072561
   14       -3.942683
   15       -3.939033
   16       -3.302706
   17       -2.381584
   18       -2.327024
   19       -2.323026
   20       -2.320157
   21       -2.317119
   22       -1.913599
   23       -1.910692
   24       -1.479919
   25       -1.125155
   26       -1.119069
   27        0.123712
   28        0.127279
   29        1.262500
   30        1.936710
   31        1.940880
   32        2.372845
   33        2.968251
   34        2.971034
   35        2.972970
   36        2.978999
   37        3.177633
   38        3.644738
   39        3.646834
   40        4.197195
   41        4.202490
   42        4.503591
   43        4.509511
   44        5.173303
   45        5.181510
   46        5.362292
   47        5.438519
   48        6.032458
   49        6.246769
   50        6.254196
   51        6.767011
   52        6.774624
   53        7.095677
   54        7.565112
   55        8.141470
   56        8.144186
   57        8.323160
   58        8.333153
   59        9.266339
   60        9.275121
   61        9.278755
   62        9.280495
   63        9.293569
   64       11.801388
   65       12.832026
   66       12.843666
   67       12.847021
   68       12.856369
   69       13.525233
   70       13.535636
   71       13.783151
   72       13.784209
   73       14.494633
   74       15.092825
   75       16.379411
   76       16.387032
   77       17.552521
   78       17.641276
   79       17.648729
   80       17.966915
   81       17.970589
   82       18.209259
   83       18.491549
   84       18.502687
 
  0.3333333E+00  0.2775558E-16  0.0000000E+00  0.6172840E-02
    1      -11.065438
    2       -9.298924
    3       -9.292111
    4       -8.990403
    5       -7.278156
    6       -7.271559
    7       -6.989638
    8       -6.987367
    9       -5.673804
   10       -5.346506
   11       -5.343589
   12       -5.340446
   13       -5.336215
   14       -3.961922
   15       -3.101343
   16       -3.097158
   17       -2.105955
   18       -2.102720
   19       -1.475383
   20       -1.471086
   21       -1.468589
   22       -1.465522
   23       -1.030183
   24       -0.965127
   25        0.317636
   26        0.321333
   27        0.362247
   28        0.368254
   29        1.323428
   30        1.530018
   31        1.532415
   32        2.064767
   33        2.067194
   34        2.069463
   35        2.075124
   36        2.519302
   37        3.445636
   38        3.448080
   39        3.550898
   40        3.802817
   41        3.808068
   42        3.931092
   43        4.550289
   44        4.555804
   45        4.783022
   46        4.789350
   47        5.350881
   48        5.759349
   49        5.763787
   50        5.772090
   51        6.170839
   52        6.193663
   53        6.200056
   54        7.155605
   55        7.532576
   56        7.542053
   57        9.047414
   58        9.050327
   59        9.178344
   60        9.187231
   61        9.188959
   62        9.201136
   63       10.747465
   64       11.977183
   65       12.716585
   66       12.718057
   67       13.204796
   68       13.216571
   69       13.220207
   70       13.229975
   71       14.270335
   72       14.439691
   73       14.449427
   74       15.413835
   75       16.944515
   76       16.952692
   77       16.982031
   78       16.989307
   79       18.004198
   80       18.011795
   81       18.034979
   82       18.039140
   83       19.017853
   84       19.036794
 
  0.4444444E+00 -0.8326673E-16  0.0000000E+00  0.6172840E-02
    1      -10.522826
    2       -9.829587
    3       -8.769501
    4       -8.762749
    5       -8.093953
    6       -8.087269
    7       -7.132375
    8       -7.130128
    9       -5.483193
   10       -5.480306
   11       -5.477049
   12       -5.472998
   13       -5.221003
   14       -4.645903
   15       -2.590270
   16       -2.585754
   17       -1.876159
   18       -1.872626
   19       -0.683702
   20       -0.678798
   21       -0.676559
   22       -0.674297
   23       -0.405696
   24       -0.370808
   25       -0.366817
   26        0.384216
   27        0.662507
   28        1.220002
   29        1.221639
   30        1.224398
   31        1.229319
   32        1.896915
   33        1.902880
   34        2.060251
   35        2.064139
   36        2.322973
   37        3.033733
   38        3.038227
   39        3.332407
   40        3.334951
   41        3.415179
   42        3.421579
   43        3.794536
   44        4.055614
   45        4.668766
   46        5.022298
   47        5.028280
   48        5.036703
   49        5.586065
   50        5.592215
   51        6.180636
   52        6.188366
   53        6.197387
   54        6.665667
   55        6.803668
   56        6.812866
   57        9.124145
   58        9.133322
   59        9.135037
   60        9.146908
   61       10.024698
   62       10.028051
   63       11.640920
   64       11.643088
   65       11.831857
   66       12.101614
   67       13.433376
   68       13.445396
   69       13.449113
   70       13.459022
   71       14.521512
   72       15.330711
   73       15.339594
   74       15.600634
   75       15.851866
   76       16.168106
   77       16.176445
   78       16.388300
   79       18.062268
   80       18.067078
   81       19.630361
   82       19.635588
   83       19.941133
   84       20.073539
 
  0.0000000E+00  0.1111111E+00  0.0000000E+00  0.6172840E-02
    1      -11.688696
    2       -9.908075
    3       -9.901215
    4       -6.926154
    5       -6.336151
    6       -6.332436
    7       -6.195411
    8       -5.287761
    9       -5.281399
   10       -4.733952
   11       -4.728350
   12       -4.726881
   13       -4.721809
   14       -4.699822
   15       -4.695241
   16       -4.139087
   17       -3.052686
   18       -3.047210
   19       -3.045516
   20       -3.039981
   21       -2.505229
   22       -2.499749
   23       -2.071461
   24       -1.751404
   25       -1.557324
   26       -1.551927
   27       -0.485961
   28       -0.479744
   29        0.058758
   30        2.600319
   31        2.606601
   32        2.950942
   33        3.408618
   34        3.647866
   35        3.653049
   36        3.654959
   37        3.660259
   38        3.856333
   39        3.859088
   40        3.982593
   41        3.986267
   42        4.992948
   43        5.000151
   44        5.004484
   45        5.013115
   46        5.240945
   47        6.417862
   48        6.594078
   49        7.057935
   50        7.061055
   51        7.202445
   52        7.205408
   53        7.487517
   54        7.490403
   55        7.682859
   56        7.810379
   57        7.908310
   58        9.057262
   59        9.068075
   60        9.361873
   61        9.372360
   62        9.374358
   63        9.385155
   64       11.675180
   65       12.471185
   66       12.482498
   67       12.484786
   68       12.495776
   69       12.705834
   70       12.716736
   71       14.592602
   72       14.595164
   73       14.780035
   74       14.898352
   75       15.246947
   76       15.253494
   77       17.866163
   78       17.869198
   79       17.934180
   80       17.998364
   81       18.167562
   82       18.178571
   83       18.197821
   84       18.203493
 
  0.1111111E+00  0.1111111E+00  0.0000000E+00  0.6172840E-02
    1      -11.532526
    2       -9.755380
    3       -9.748533
    4       -7.426871
    5       -7.422951
    6       -6.064596
    7       -5.865927
    8       -5.768138
    9       -5.762254
   10       -5.761187
   11       -5.754739
   12       -4.879512
   13       -4.302846
   14       -4.296791
   15       -3.476956
   16       -3.472003
   17       -3.211590
   18       -3.205811
   19       -2.417486
   20       -2.413175
   21       -1.794124
   22       -1.789581
   23       -1.788588
   24       -1.781541
   25       -1.570148
   26       -0.981495
   27       -0.895281
   28        0.663743
   29        0.668679
   30        1.833486
   31        2.763017
   32        2.766391
   33        2.895843
   34        2.901031
   35        2.968087
   36        2.971256
   37        3.793526
   38        3.799332
   39        3.800848
   40        3.802679
   41        4.184683
   42        4.441271
   43        5.124962
   44        5.126939
   45        5.130757
   46        5.134949
   47        5.764977
   48        6.101537
   49        6.527312
   50        6.535443
   51        6.866945
   52        6.875130
   53        7.372111
   54        7.486528
   55        7.589955
   56        8.606434
   57        8.609776
   58        8.760550
   59        8.771214
   60        8.771835
   61        8.781309
   62        9.630887
   63        9.643546
   64       11.760991
   65       12.444790
   66       12.457763
   67       13.141397
   68       13.149942
   69       13.151046
   70       13.162397
   71       13.828911
   72       14.409187
   73       14.412303
   74       15.374389
   75       15.380298
   76       16.321970
   77       17.867855
   78       17.877513
   79       17.880956
   80       17.907506
   81       18.165588
   82       18.168057
   83       18.484315
   84       18.553616
 
  0.2222222E+00  0.1111111E+00  0.0000000E+00  0.6172840E-02
    1      -11.220834
    2       -9.450767
    3       -9.443946
    4       -8.462078
    5       -7.791496
    6       -6.765894
    7       -6.759341
    8       -6.117673
    9       -6.111195
   10       -5.917048
   11       -5.803697
   12       -4.331129
   13       -4.324868
   14       -4.286468
   15       -3.552439
   16       -3.121548
   17       -2.677786
   18       -2.671832
   19       -2.212387
   20       -1.692423
   21       -1.297212
   22       -1.209558
   23       -0.972585
   24       -0.967245
   25       -0.387953
   26       -0.355613
   27       -0.349633
   28        0.996874
   29        1.170846
   30        1.862782
   31        1.898477
   32        1.901831
   33        1.907994
   34        2.303390
   35        2.621395
   36        3.098838
   37        3.197064
   38        3.201115
   39        3.670730
   40        4.085223
   41        4.090486
   42        4.307056
   43        4.607606
   44        4.703931
   45        5.152821
   46        5.159483
   47        5.364005
   48        5.389634
   49        5.799418
   50        5.806803
   51        6.305297
   52        6.313502
   53        6.702837
   54        7.200894
   55        7.967186
   56        7.981961
   57        7.991409
   58        8.540913
   59        8.550932
   60        9.495721
   61        9.800614
   62        9.812930
   63       10.077719
   64       11.915828
   65       12.534732
   66       12.547327
   67       12.714609
   68       13.666954
   69       13.676828
   70       13.686982
   71       14.048020
   72       14.057764
   73       14.171596
   74       15.633651
   75       16.570842
   76       17.341545
   77       17.350609
   78       17.461278
   79       17.600881
   80       17.885647
   81       17.966141
   82       18.240312
   83       18.700090
   84       19.001925
 
  0.3333333E+00  0.1111111E+00  0.0000000E+00  0.6172840E-02
    1      -10.755003
    2       -9.370813
    3       -8.995889
    4       -8.989121
    5       -8.014278
    6       -7.647597
    7       -7.640948
    8       -6.332730
    9       -6.326229
   10       -6.075446
   11       -5.414557
   12       -4.471839
   13       -4.465547
   14       -4.268891
   15       -3.365156
   16       -3.191263
   17       -1.854309
   18       -1.848363
   19       -1.663101
   20       -1.405861
   21       -0.672339
   22       -0.589250
   23       -0.133069
   24       -0.129699
   25       -0.124285
   26        0.827985
   27        0.871591
   28        0.876722
   29        0.902423
   30        1.048430
   31        1.148768
   32        1.154639
   33        2.401526
   34        2.410710
   35        2.414852
   36        2.510066
   37        2.803494
   38        3.004208
   39        3.125093
   40        3.665335
   41        4.075322
   42        4.097370
   43        4.104516
   44        4.306278
   45        4.506888
   46        4.512353
   47        4.612279
   48        5.645677
   49        5.653220
   50        5.725666
   51        5.764320
   52        6.010322
   53        6.018860
   54        6.725170
   55        7.214845
   56        7.224179
   57        8.399891
   58        8.409781
   59        8.797328
   60        9.882486
   61        9.894031
   62       10.495510
   63       11.437447
   64       11.508002
   65       12.087238
   66       12.650570
   67       12.662107
   68       12.719568
   69       14.101547
   70       14.111631
   71       14.141148
   72       14.971980
   73       14.981303
   74       16.010364
   75       16.149735
   76       16.646652
   77       16.655446
   78       17.047339
   79       18.037998
   80       18.239433
   81       18.249580
   82       19.414849
   83       19.502645
   84       19.542293
 
  0.4444444E+00  0.1111111E+00  0.0000000E+00  0.6172840E-02
    1      -10.139061
    2      -10.135243
    3       -8.396931
    4       -8.390765
    5       -8.389360
    6       -8.383574
    7       -8.088856
    8       -6.404961
    9       -6.398452
   10       -6.136830
   11       -4.902559
   12       -4.898350
   13       -4.528122
   14       -4.521822
   15       -3.236745
   16       -2.551698
   17       -2.208641
   18       -1.313556
   19       -1.308609
   20       -0.902569
   21       -0.794035
   22        0.033500
   23        0.037138
   24        0.259477
   25        0.265267
   26        0.269342
   27        0.366974
   28        0.372346
   29        1.505919
   30        1.509672
   31        1.616293
   32        1.917340
   33        1.922692
   34        2.119449
   35        2.326739
   36        2.661253
   37        2.661946
   38        2.664794
   39        2.672187
   40        3.008830
   41        3.545987
   42        3.869756
   43        3.875768
   44        4.292949
   45        4.616478
   46        4.622314
   47        5.034109
   48        5.045845
   49        5.046189
   50        5.048456
   51        6.220858
   52        6.227826
   53        6.534796
   54        6.544492
   55        6.545242
   56        6.553757
   57        8.352045
   58        8.361943
   59        9.466156
   60        9.904787
   61        9.915785
   62       10.715865
   63       11.329003
   64       11.895744
   65       12.093243
   66       12.097446
   67       12.702878
   68       12.713647
   69       14.262991
   70       14.273588
   71       14.836362
   72       14.842948
   73       15.843753
   74       15.848963
   75       15.850725
   76       15.861315
   77       16.489976
   78       16.494067
   79       18.064290
   80       18.229813
   81       20.025730
   82       20.032480
   83       20.036383
   84       20.055540
 
 -0.4444444E+00  0.1111111E+00  0.0000000E+00  0.6172840E-02
    1      -10.755096
    2       -9.370639
    3       -8.996002
    4       -8.989235
    5       -8.014492
    6       -7.647432
    7       -7.640792
    8       -6.332962
    9       -6.326460
   10       -6.075235
   11       -5.414648
   12       -4.471758
   13       -4.465476
   14       -4.268686
   15       -3.363335
   16       -3.191254
   17       -1.851126
   18       -1.846169
   19       -1.661739
   20       -1.409457
   21       -0.672383
   22       -0.591960
   23       -0.134616
   24       -0.130864
   25       -0.127265
   26        0.831203
   27        0.868975
   28        0.873163
   29        0.902441
   30        1.050721
   31        1.148716
   32        1.154954
   33        2.401607
   34        2.413419
   35        2.419173
   36        2.507095
   37        2.799659
   38        3.007706
   39        3.124650
   40        3.661603
   41        4.079058
   42        4.096906
   43        4.102978
   44        4.306017
   45        4.506360
   46        4.512386
   47        4.609419
   48        5.649375
   49        5.654170
   50        5.728952
   51        5.764284
   52        6.009473
   53        6.018005
   54        6.725775
   55        7.214965
   56        7.224326
   57        8.400070
   58        8.410093
   59        8.798756
   60        9.881894
   61        9.892925
   62       10.495170
   63       11.437370
   64       11.507268
   65       12.087586
   66       12.652667
   67       12.663358
   68       12.718815
   69       14.100534
   70       14.110935
   71       14.140820
   72       14.971301
   73       14.980950
   74       16.009646
   75       16.149192
   76       16.648872
   77       16.656866
   78       17.048750
   79       18.038530
   80       18.239589
   81       18.255314
   82       19.413119
   83       19.503091
   84       19.508559
 
 -0.3333333E+00  0.1111111E+00  0.0000000E+00  0.6172840E-02
    1      -11.220915
    2       -9.450848
    3       -9.444028
    4       -8.461873
    5       -7.791959
    6       -6.765697
    7       -6.759149
    8       -6.118135
    9       -6.111655
   10       -5.916687
   11       -5.803762
   12       -4.330973
   13       -4.324844
   14       -4.284456
   15       -3.552264
   16       -3.121342
   17       -2.674137
   18       -2.669255
   19       -2.216376
   20       -1.692608
   21       -1.295243
   22       -1.209593
   23       -0.975872
   24       -0.969921
   25       -0.387477
   26       -0.355704
   27       -0.349587
   28        0.994694
   29        1.170119
   30        1.863966
   31        1.895486
   32        1.899723
   33        1.905259
   34        2.305275
   35        2.621468
   36        3.097574
   37        3.200686
   38        3.206335
   39        3.666370
   40        4.085079
   41        4.090594
   42        4.306533
   43        4.605804
   44        4.708961
   45        5.151790
   46        5.157403
   47        5.362881
   48        5.389873
   49        5.798189
   50        5.804863
   51        6.310336
   52        6.314879
   53        6.704315
   54        7.202690
   55        7.969601
   56        7.981741
   57        7.991256
   58        8.541262
   59        8.551521
   60        9.494923
   61        9.799538
   62        9.811054
   63       10.077738
   64       11.916089
   65       12.538361
   66       12.549506
   67       12.714158
   68       13.664620
   69       13.676519
   70       13.685392
   71       14.047628
   72       14.057682
   73       14.171037
   74       15.633160
   75       16.576410
   76       17.345846
   77       17.352866
   78       17.460584
   79       17.603311
   80       17.879637
   81       17.967260
   82       18.240239
   83       18.701697
   84       18.968599
 
 -0.2222222E+00  0.1111111E+00  0.0000000E+00  0.6172840E-02
    1      -11.532575
    2       -9.755428
    3       -9.748582
    4       -7.425631
    5       -7.424639
    6       -6.064656
    7       -5.865617
    8       -5.767269
    9       -5.762661
   10       -5.760970
   11       -5.756099
   12       -4.877317
   13       -4.302779
   14       -4.297068
   15       -3.475304
   16       -3.474813
   17       -3.207383
   18       -3.203343
   19       -2.418927
   20       -2.414391
   21       -1.795649
   22       -1.790344
   23       -1.789579
   24       -1.784296
   25       -1.570168
   26       -0.980196
   27       -0.892340
   28        0.662854
   29        0.667248
   30        1.829298
   31        2.763284
   32        2.770048
   33        2.891997
   34        2.896104
   35        2.969510
   36        2.970038
   37        3.795450
   38        3.800744
   39        3.802260
   40        3.807697
   41        4.184016
   42        4.436529
   43        5.125550
   44        5.127656
   45        5.134007
   46        5.135503
   47        5.759406
   48        6.105501
   49        6.522929
   50        6.526174
   51        6.876750
   52        6.879457
   53        7.367899
   54        7.488564
   55        7.596268
   56        8.607095
   57        8.607787
   58        8.761532
   59        8.771172
   60        8.772011
   61        8.781970
   62        9.629622
   63        9.641370
   64       11.761150
   65       12.448812
   66       12.460416
   67       13.139450
   68       13.149719
   69       13.150576
   70       13.160961
   71       13.828886
   72       14.408590
   73       14.410976
   74       15.376607
   75       15.383160
   76       16.316122
   77       17.876289
   78       17.880983
   79       17.883435
   80       17.913697
   81       18.165481
   82       18.169626
   83       18.485087
   84       18.506559
 
 -0.1111111E+00  0.1111111E+00  0.0000000E+00  0.6172840E-02
    1      -11.688712
    2       -9.908091
    3       -9.901231
    4       -6.926978
    5       -6.334732
    6       -6.332835
    7       -6.195436
    8       -5.288442
    9       -5.282072
   10       -4.733637
   11       -4.727832
   12       -4.725554
   13       -4.722974
   14       -4.697904
   15       -4.695212
   16       -4.140723
   17       -3.049013
   18       -3.047042
   19       -3.043543
   20       -3.040479
   21       -2.508240
   22       -2.502189
   23       -2.073566
   24       -1.751411
   25       -1.554771
   26       -1.552303
   27       -0.483055
   28       -0.480207
   29        0.056140
   30        2.599606
   31        2.602528
   32        2.955729
   33        3.408948
   34        3.646362
   35        3.651839
   36        3.653442
   37        3.654987
   38        3.856739
   39        3.858172
   40        3.986698
   41        3.992054
   42        4.992020
   43        4.995983
   44        5.004515
   45        5.013176
   46        5.246135
   47        6.410917
   48        6.601058
   49        7.048262
   50        7.056728
   51        7.206772
   52        7.215250
   53        7.489014
   54        7.490784
   55        7.675591
   56        7.817846
   57        7.906749
   58        9.058144
   59        9.069477
   60        9.360485
   61        9.372542
   62        9.374463
   63        9.383227
   64       11.675234
   65       12.473916
   66       12.483132
   67       12.486002
   68       12.497233
   69       12.703003
   70       12.714665
   71       14.593094
   72       14.594916
   73       14.778971
   74       14.903734
   75       15.244615
   76       15.250155
   77       17.867849
   78       17.870766
   79       17.941877
   80       17.998746
   81       18.175849
   82       18.204274
   83       18.213177
   84       18.310903
 
 -0.1694066E-20  0.2222222E+00  0.0000000E+00  0.6172840E-02
    1      -11.454554
    2       -9.679164
    3       -9.672324
    4       -8.013555
    5       -6.713557
    6       -6.709274
    7       -6.331916
    8       -6.325412
    9       -5.999263
   10       -5.084458
   11       -5.079216
   12       -5.077334
   13       -5.071990
   14       -3.943176
   15       -3.938408
   16       -3.301923
   17       -2.383756
   18       -2.327769
   19       -2.322102
   20       -2.320415
   21       -2.314485
   22       -1.914314
   23       -1.908981
   24       -1.479901
   25       -1.125962
   26       -1.120503
   27        0.123440
   28        0.129897
   29        1.261099
   30        1.934951
   31        1.940037
   32        2.373108
   33        2.965583
   34        2.970800
   35        2.972933
   36        2.978264
   37        3.179426
   38        3.643454
   39        3.647595
   40        4.199980
   41        4.203627
   42        4.501836
   43        4.509271
   44        5.173239
   45        5.181442
   46        5.359286
   47        5.440854
   48        6.035461
   49        6.245387
   50        6.249160
   51        6.772792
   52        6.775895
   53        7.091934
   54        7.569175
   55        8.140496
   56        8.144738
   57        8.323884
   58        8.333742
   59        9.266564
   60        9.274477
   61        9.278855
   62        9.280822
   63        9.292085
   64       11.801581
   65       12.833089
   66       12.844561
   67       12.847303
   68       12.858670
   69       13.524069
   70       13.533997
   71       13.782514
   72       13.785192
   73       14.492470
   74       15.093667
   75       16.378983
   76       16.386401
   77       17.555700
   78       17.644121
   79       17.649793
   80       17.969551
   81       17.971402
   82       18.208599
   83       18.490976
   84       18.497652
 
  0.1111111E+00  0.2222222E+00  0.0000000E+00  0.6172840E-02
    1      -11.220841
    2       -9.450772
    3       -9.443952
    4       -8.462183
    5       -7.791387
    6       -6.765979
    7       -6.759422
    8       -6.117623
    9       -6.111146
   10       -5.916951
   11       -5.803693
   12       -4.331100
   13       -4.324847
   14       -4.286495
   15       -3.552197
   16       -3.122334
   17       -2.677712
   18       -2.671829
   19       -2.210237
   20       -1.694027
   21       -1.297758
   22       -1.209548
   23       -0.971648
   24       -0.965744
   25       -0.386725
   26       -0.356453
   27       -0.351086
   28        0.995993
   29        1.172808
   30        1.860933
   31        1.898458
   32        1.901890
   33        1.907874
   34        2.301156
   35        2.621092
   36        3.101124
   37        3.194634
   38        3.199735
   39        3.670702
   40        4.088023
   41        4.091781
   42        4.306960
   43        4.605692
   44        4.701837
   45        5.152633
   46        5.158493
   47        5.366540
   48        5.391733
   49        5.798599