  32  32   0   0
  0.8206758E+01  0.4932875E-09  0.4932875E-09  0.1246769E-08  0.5000000E-15
  1.000000000000000E-004
  CAR 
 graphite                                
     17.12748395    -16.38245558  301      5.32744743      1.00000000
    -16.382  0.0000E+00  0.0000E+00
    -16.271  0.0000E+00  0.0000E+00
    -16.159  0.0000E+00  0.0000E+00
    -16.047  0.0000E+00  0.0000E+00
    -15.936  0.0000E+00  0.0000E+00
    -15.824  0.0000E+00  0.0000E+00
    -15.712  0.0000E+00  0.0000E+00
    -15.601  0.0000E+00  0.0000E+00
    -15.489  0.0000E+00  0.0000E+00
    -15.377  0.0000E+00  0.0000E+00
    -15.265  0.0000E+00  0.0000E+00
    -15.154  0.0000E+00  0.0000E+00
    -15.042  0.0000E+00  0.0000E+00
    -14.930  0.0000E+00  0.0000E+00
    -14.819  0.0000E+00  0.0000E+00
    -14.707  0.0000E+00  0.0000E+00
    -14.595  0.0000E+00  0.0000E+00
    -14.484  0.0000E+00  0.0000E+00
    -14.372  0.1897E-01  0.6700E-04
    -14.260  0.1266E+01  0.6008E-01
    -14.148  0.2051E+01  0.2652E+00
    -14.037  0.2727E+01  0.5314E+00
    -13.925  0.3572E+01  0.8810E+00
    -13.813  0.4831E+01  0.1348E+01
    -13.702  0.4715E+01  0.1913E+01
    -13.590  0.4856E+01  0.2447E+01
    -13.478  0.4990E+01  0.2997E+01
    -13.367  0.5041E+01  0.3559E+01
    -13.255  0.5100E+01  0.4124E+01
    -13.143  0.6537E+01  0.4774E+01
    -13.031  0.6959E+01  0.5533E+01
    -12.920  0.6077E+01  0.6278E+01
    -12.808  0.6485E+01  0.6951E+01
    -12.696  0.3002E+01  0.7511E+01
    -12.585  0.1957E+01  0.7770E+01
    -12.473  0.1771E+01  0.7971E+01
    -12.361  0.2306E+01  0.8190E+01
    -12.250  0.8804E+01  0.8611E+01
    -12.138  0.5658E+01  0.9454E+01
    -12.026  0.6257E+01  0.1010E+02
    -11.914  0.6767E+01  0.1085E+02
    -11.803  0.4947E+01  0.1153E+02
    -11.691  0.4253E+01  0.1200E+02
    -11.579  0.4470E+01  0.1249E+02
    -11.468  0.4691E+01  0.1300E+02
    -11.356  0.4904E+01  0.1354E+02
    -11.244  0.5094E+01  0.1409E+02
    -11.133  0.5179E+01  0.1467E+02
    -11.021  0.5290E+01  0.1525E+02
    -10.909  0.5556E+01  0.1585E+02
    -10.797  0.6036E+01  0.1652E+02
    -10.686  0.5831E+01  0.1718E+02
    -10.574  0.5734E+01  0.1782E+02
    -10.462  0.5891E+01  0.1847E+02
    -10.351  0.6078E+01  0.1914E+02
    -10.239  0.5866E+01  0.1980E+02
    -10.127  0.5870E+01  0.2046E+02
    -10.016  0.5846E+01  0.2111E+02
     -9.904  0.4951E+01  0.2173E+02
     -9.792  0.3817E+01  0.2221E+02
     -9.680  0.3728E+01  0.2262E+02
     -9.569  0.4457E+01  0.2307E+02
     -9.457  0.4848E+01  0.2360E+02
     -9.345  0.6154E+01  0.2423E+02
     -9.234  0.7514E+01  0.2498E+02
     -9.122  0.9688E+01  0.2593E+02
     -9.010  0.9039E+01  0.2706E+02
     -8.899  0.6631E+01  0.2793E+02
     -8.787  0.5000E+01  0.2856E+02
     -8.675  0.4425E+01  0.2909E+02
     -8.563  0.8420E+01  0.2964E+02
     -8.452  0.4251E+01  0.3021E+02
     -8.340  0.4282E+01  0.3068E+02
     -8.228  0.1942E+01  0.3105E+02
     -8.117  0.1720E+01  0.3125E+02
     -8.005  0.1497E+01  0.3143E+02
     -7.893  0.1275E+01  0.3159E+02
     -7.782  0.1541E+01  0.3174E+02
     -7.670  0.2040E+01  0.3194E+02
     -7.558  0.2552E+01  0.3220E+02
     -7.446  0.3793E+01  0.3252E+02
     -7.335  0.9701E+01  0.3322E+02
     -7.223  0.6272E+01  0.3418E+02
     -7.111  0.5200E+01  0.3476E+02
     -7.000  0.5740E+01  0.3537E+02
     -6.888  0.7028E+01  0.3608E+02
     -6.776  0.8316E+01  0.3694E+02
     -6.665  0.9597E+01  0.3794E+02
     -6.553  0.7744E+01  0.3888E+02
     -6.441  0.5715E+01  0.3966E+02
     -6.329  0.5559E+01  0.4029E+02
     -6.218  0.5483E+01  0.4090E+02
     -6.106  0.5391E+01  0.4151E+02
     -5.994  0.5199E+01  0.4211E+02
     -5.883  0.5023E+01  0.4268E+02
     -5.771  0.4903E+01  0.4323E+02
     -5.659  0.4784E+01  0.4377E+02
     -5.548  0.4666E+01  0.4430E+02
     -5.436  0.4547E+01  0.4481E+02
     -5.324  0.4427E+01  0.4532E+02
     -5.212  0.4306E+01  0.4580E+02
     -5.101  0.4678E+01  0.4630E+02
     -4.989  0.5344E+01  0.4686E+02
     -4.877  0.5978E+01  0.4749E+02
     -4.766  0.6612E+01  0.4819E+02
     -4.654  0.7246E+01  0.4897E+02
     -4.542  0.7881E+01  0.4981E+02
     -4.431  0.8515E+01  0.5073E+02
     -4.319  0.7557E+01  0.5169E+02
     -4.207  0.5555E+01  0.5241E+02
     -4.095  0.5763E+01  0.5298E+02
     -3.984  0.7020E+01  0.5370E+02
     -3.872  0.5390E+01  0.5440E+02
     -3.760  0.3759E+01  0.5491E+02
     -3.649  0.2127E+01  0.5524E+02
     -3.537  0.1092E+01  0.5540E+02
     -3.425  0.2645E+01  0.5559E+02
     -3.314  0.4936E+01  0.5601E+02
     -3.202  0.7209E+01  0.5667E+02
     -3.090  0.1038E+02  0.5768E+02
     -2.978  0.1330E+02  0.5900E+02
     -2.867  0.1274E+02  0.6049E+02
     -2.755  0.8354E+01  0.6171E+02
     -2.643  0.4966E+01  0.6238E+02
     -2.532  0.5783E+01  0.6296E+02
     -2.420  0.6873E+01  0.6367E+02
     -2.308  0.9098E+01  0.6452E+02
     -2.197  0.1587E+02  0.6592E+02
     -2.085  0.1213E+02  0.6817E+02
     -1.973  0.7636E+01  0.6963E+02
     -1.861  0.7328E+01  0.7046E+02
     -1.750  0.7081E+01  0.7126E+02
     -1.638  0.7372E+01  0.7207E+02
     -1.526  0.9127E+01  0.7296E+02
     -1.415  0.1605E+02  0.7429E+02
     -1.303  0.1225E+02  0.7587E+02
     -1.191  0.8504E+01  0.7701E+02
     -1.080  0.2461E+02  0.7835E+02
     -0.968  0.1921E+02  0.8126E+02
     -0.856  0.1911E+02  0.8359E+02
     -0.744  0.1451E+02  0.8539E+02
     -0.633  0.1426E+02  0.8700E+02
     -0.521  0.1319E+02  0.8852E+02
     -0.409  0.9211E+01  0.8968E+02
     -0.298  0.8095E+01  0.9065E+02
     -0.186  0.7556E+01  0.9149E+02
     -0.074  0.8655E+01  0.9239E+02
      0.037  0.9151E+01  0.9339E+02
      0.149  0.1063E+02  0.9447E+02
      0.261  0.1318E+02  0.9576E+02
      0.373  0.1585E+02  0.9742E+02
      0.484  0.1288E+02  0.9899E+02
      0.596  0.1185E+02  0.1003E+03
      0.708  0.1054E+02  0.1016E+03
      0.819  0.9430E+01  0.1027E+03
      0.931  0.9022E+01  0.1037E+03
      1.043  0.8763E+01  0.1047E+03
      1.154  0.8556E+01  0.1057E+03
      1.266  0.8510E+01  0.1066E+03
      1.378  0.1039E+02  0.1077E+03
      1.490  0.9931E+01  0.1089E+03
      1.601  0.1047E+02  0.1100E+03
      1.713  0.1026E+02  0.1112E+03
      1.825  0.9913E+01  0.1123E+03
      1.936  0.9037E+01  0.1134E+03
      2.048  0.9876E+01  0.1144E+03
      2.160  0.9926E+01  0.1155E+03
      2.271  0.8276E+01  0.1165E+03
      2.383  0.6719E+01  0.1174E+03
      2.495  0.5965E+01  0.1181E+03
      2.607  0.4883E+01  0.1187E+03
      2.718  0.3948E+01  0.1192E+03
      2.830  0.3350E+01  0.1196E+03
      2.942  0.4390E+01  0.1200E+03
      3.053  0.5107E+01  0.1205E+03
      3.165  0.8359E+01  0.1212E+03
      3.277  0.7684E+01  0.1221E+03
      3.388  0.6442E+01  0.1229E+03
      3.500  0.6099E+01  0.1236E+03
      3.612  0.6508E+01  0.1243E+03
      3.724  0.5755E+01  0.1250E+03
      3.835  0.4364E+01  0.1256E+03
      3.947  0.3534E+01  0.1260E+03
      4.059  0.3031E+01  0.1264E+03
      4.170  0.2558E+01  0.1267E+03
      4.282  0.2154E+01  0.1269E+03
      4.394  0.1845E+01  0.1272E+03
      4.505  0.1582E+01  0.1273E+03
      4.617  0.1406E+01  0.1275E+03
      4.729  0.1213E+01  0.1277E+03
      4.841  0.9643E+00  0.1278E+03
      4.952  0.7241E+00  0.1279E+03
      5.064  0.4915E+00  0.1279E+03
      5.176  0.2658E+00  0.1280E+03
      5.287  0.4682E-01  0.1280E+03
      5.399  0.6170E-01  0.1280E+03
      5.511  0.1961E+00  0.1280E+03
      5.622  0.3386E+00  0.1280E+03
      5.734  0.4891E+00  0.1281E+03
      5.846  0.6496E+00  0.1282E+03
      5.958  0.8217E+00  0.1282E+03
      6.069  0.1005E+01  0.1283E+03
      6.181  0.1205E+01  0.1285E+03
      6.293  0.1429E+01  0.1286E+03
      6.404  0.2082E+01  0.1288E+03
      6.516  0.2578E+01  0.1291E+03
      6.628  0.3113E+01  0.1294E+03
      6.739  0.3526E+01  0.1297E+03
      6.851  0.5148E+01  0.1302E+03
      6.963  0.1229E+02  0.1311E+03
      7.075  0.1074E+02  0.1326E+03
      7.186  0.9192E+01  0.1337E+03
      7.298  0.6822E+01  0.1346E+03
      7.410  0.5661E+01  0.1353E+03
      7.521  0.4882E+01  0.1359E+03
      7.633  0.4179E+01  0.1364E+03
      7.745  0.3866E+01  0.1368E+03
      7.856  0.3713E+01  0.1372E+03
      7.968  0.3718E+01  0.1377E+03
      8.080  0.3711E+01  0.1381E+03
      8.192  0.4076E+01  0.1385E+03
      8.303  0.4424E+01  0.1390E+03
      8.415  0.4646E+01  0.1395E+03
      8.527  0.4815E+01  0.1400E+03
      8.638  0.4767E+01  0.1406E+03
      8.750  0.4582E+01  0.1411E+03
      8.862  0.4472E+01  0.1416E+03
      8.973  0.4417E+01  0.1421E+03
      9.085  0.4307E+01  0.1426E+03
      9.197  0.4204E+01  0.1430E+03
      9.308  0.4051E+01  0.1435E+03
      9.420  0.3639E+01  0.1439E+03
      9.532  0.3459E+01  0.1443E+03
      9.644  0.3359E+01  0.1447E+03
      9.755  0.3300E+01  0.1451E+03
      9.867  0.3208E+01  0.1454E+03
      9.979  0.3129E+01  0.1458E+03
     10.090  0.3075E+01  0.1461E+03
     10.202  0.3041E+01  0.1465E+03
     10.314  0.2972E+01  0.1468E+03
     10.425  0.2899E+01  0.1471E+03
     10.537  0.3003E+01  0.1475E+03
     10.649  0.3170E+01  0.1478E+03
     10.761  0.3203E+01  0.1482E+03
     10.872  0.3899E+01  0.1486E+03
     10.984  0.4243E+01  0.1490E+03
     11.096  0.4403E+01  0.1495E+03
     11.207  0.4377E+01  0.1500E+03
     11.319  0.4245E+01  0.1505E+03
     11.431  0.4053E+01  0.1510E+03
     11.542  0.3944E+01  0.1514E+03
     11.654  0.3945E+01  0.1518E+03
     11.766  0.7225E+01  0.1524E+03
     11.878  0.4293E+01  0.1530E+03
     11.989  0.2717E+01  0.1534E+03
     12.101  0.2320E+01  0.1537E+03
     12.213  0.2115E+01  0.1540E+03
     12.324  0.2093E+01  0.1542E+03
     12.436  0.2544E+01  0.1544E+03
     12.548  0.4794E+01  0.1549E+03
     12.659  0.5390E+01  0.1554E+03
     12.771  0.6805E+01  0.1561E+03
     12.883  0.9340E+01  0.1570E+03
     12.995  0.1055E+02  0.1581E+03
     13.106  0.1216E+02  0.1594E+03
     13.218  0.1417E+02  0.1609E+03
     13.330  0.1311E+02  0.1624E+03
     13.441  0.1226E+02  0.1638E+03
     13.553  0.1164E+02  0.1651E+03
     13.665  0.1205E+02  0.1665E+03
     13.776  0.5860E+01  0.1675E+03
     13.888  0.1134E+01  0.1678E+03
     14.000  0.4565E+00  0.1679E+03
     14.112  0.3129E+00  0.1679E+03
     14.223  0.2069E+00  0.1679E+03
     14.335  0.1386E+00  0.1680E+03
     14.447  0.1009E+00  0.1680E+03
     14.558  0.7050E-01  0.1680E+03
     14.670  0.4554E-01  0.1680E+03
     14.782  0.2601E-01  0.1680E+03
     14.893  0.1192E-01  0.1680E+03
     15.005  0.3256E-02  0.1680E+03
     15.117  0.2444E-04  0.1680E+03
     15.229  0.0000E+00  0.1680E+03
     15.340  0.0000E+00  0.1680E+03
     15.452  0.0000E+00  0.1680E+03
     15.564  0.0000E+00  0.1680E+03
     15.675  0.0000E+00  0.1680E+03
     15.787  0.0000E+00  0.1680E+03
     15.899  0.0000E+00  0.1680E+03
     16.010  0.0000E+00  0.1680E+03
     16.122  0.0000E+00  0.1680E+03
     16.234  0.0000E+00  0.1680E+03
     16.346  0.0000E+00  0.1680E+03
     16.457  0.0000E+00  0.1680E+03
     16.569  0.0000E+00  0.1680E+03
     16.681  0.0000E+00  0.1680E+03
     16.792  0.0000E+00  0.1680E+03
     16.904  0.0000E+00  0.1680E+03
     17.016  0.0000E+00  0.1680E+03
     17.127  0.0000E+00  0.1680E+03
