 running on    6 total cores
 distrk:  each k-point on    6 cores,    1 groups
 distr:  one band on    1 cores,    6 groups
 using from now: INCAR     
 vasp.5.3.5 31Mar14 (build Nov 02 2014 15:17:37) complex                        
  
 POSCAR found :  1 types and      32 ions
 scaLAPACK will be used

 ----------------------------------------------------------------------------- 
|                                                                             |
|           W    W    AA    RRRRR   N    N  II  N    N   GGGG   !!!           |
|           W    W   A  A   R    R  NN   N  II  NN   N  G    G  !!!           |
|           W    W  A    A  R    R  N N  N  II  N N  N  G       !!!           |
|           W WW W  AAAAAA  RRRRR   N  N N  II  N  N N  G  GGG   !            |
|           WW  WW  A    A  R   R   N   NN  II  N   NN  G    G                |
|           W    W  A    A  R    R  N    N  II  N    N   GGGG   !!!           |
|                                                                             |
|      For optimal performance we recommend to set                            |
|        NCORE= 4 - approx SQRT( number of cores)                             |
|      NCORE specifies how many cores store one orbital (NPAR=cpu/NCORE).     |
|      This setting can  greatly improve the performance of VASP for DFT.     |
|      The default, NPAR=number of cores might be grossly inefficient         |
|      on modern multi-core architectures or massively parallel machines.     |
|      Do your own testing !!!!                                               |
|      Unfortunately you need to use the default for GW and RPA calculations. |
|      (for HF NCORE is supported but not extensively tested yet)             |
|                                                                             |
 ----------------------------------------------------------------------------- 


 ----------------------------------------------------------------------------- 
|                                                                             |
|  ADVICE TO THIS USER RUNNING 'VASP/VAMP'   (HEAR YOUR MASTER'S VOICE ...):  |
|                                                                             |
|      You have a (more or less) 'large supercell' and for larger cells       |
|      it might be more efficient to use real space projection operators      |
|      So try LREAL= Auto  in the INCAR   file.                               |
|      Mind: If you want to do a very accurate calculations keep the          |
|      reciprocal projection scheme          (i.e. LREAL=.FALSE.)             |
|                                                                             |
 ----------------------------------------------------------------------------- 

 LDA part: xc-table for Pade appr. of Perdew
 POSCAR, INCAR and KPOINTS ok, starting setup
 FFT: planning ...
 WAVECAR not read
 WARNING: random wavefunctions but no delay for mixing, default for NELMDL
 entering main loop
       N       E                     dE             d eps       ncg     rms          rms(c)
DAV:   1     0.674134659876E+03    0.67413E+03   -0.85254E+04 12768   0.202E+03
DAV:   2    -0.257381961346E+03   -0.93152E+03   -0.89578E+03 15744   0.341E+02
DAV:   3    -0.311501914737E+03   -0.54120E+02   -0.53499E+02 15576   0.798E+01
DAV:   4    -0.312528510140E+03   -0.10266E+01   -0.10246E+01 15672   0.118E+01
DAV:   5    -0.312558531739E+03   -0.30022E-01   -0.30009E-01 15852   0.192E+00    0.221E+01
DAV:   6    -0.298502722774E+03    0.14056E+02   -0.14480E+01 14592   0.107E+01    0.116E+01
DAV:   7    -0.294112093436E+03    0.43906E+01   -0.14861E+01 14568   0.108E+01    0.189E+00
DAV:   8    -0.294158533160E+03   -0.46440E-01   -0.37267E-01 14484   0.184E+00    0.417E-01
DAV:   9    -0.294161027357E+03   -0.24942E-02   -0.33187E-02 15444   0.590E-01    0.179E-01
DAV:  10    -0.294160657364E+03    0.36999E-03   -0.56207E-03 15156   0.237E-01    0.114E-01
DAV:  11    -0.294161517224E+03   -0.85986E-03   -0.10775E-02 17088   0.215E-01    0.114E-01
DAV:  12    -0.294161175121E+03    0.34210E-03   -0.33001E-03 15888   0.165E-01    0.589E-02
DAV:  13    -0.294161532880E+03   -0.35776E-03   -0.52720E-03 15924   0.120E-01    0.810E-02
DAV:  14    -0.294161344193E+03    0.18869E-03   -0.30125E-04 15072   0.592E-02    0.579E-02
DAV:  15    -0.294161334825E+03    0.93680E-05   -0.31881E-05 14604   0.198E-02    0.549E-02
DAV:  16    -0.294161306129E+03    0.28696E-04   -0.19817E-05 23724   0.106E-02    0.481E-02
DAV:  17    -0.294161305226E+03    0.90258E-06   -0.93738E-07 14568   0.335E-03    0.476E-02
DAV:  18    -0.294161311995E+03   -0.67689E-05   -0.12015E-06 17052   0.311E-03    0.490E-02
DAV:  19    -0.294161339266E+03   -0.27271E-04   -0.18388E-03 22284   0.610E-02    0.555E-02
DAV:  20    -0.294161298247E+03    0.41019E-04   -0.47443E-05 15228   0.200E-02    0.481E-02
DAV:  21    -0.294161261610E+03    0.36637E-04   -0.12804E-04 19512   0.201E-02    0.151E-02
DAV:  22    -0.294161281070E+03   -0.19460E-04   -0.24266E-04 16500   0.143E-02    0.439E-02
DAV:  23    -0.294161293545E+03   -0.12475E-04   -0.81995E-06 16308   0.761E-03    0.478E-02
DAV:  24    -0.294161270998E+03    0.22547E-04   -0.15999E-05 18720   0.944E-03    0.392E-02
DAV:  25    -0.294161264996E+03    0.60026E-05   -0.72438E-06 15624   0.520E-03    0.314E-02
DAV:  26    -0.294161260266E+03    0.47295E-05   -0.64415E-05 21912   0.748E-03    0.114E-02
DAV:  27    -0.294161271954E+03   -0.11688E-04   -0.17574E-04 20136   0.100E-02    0.393E-02
DAV:  28    -0.294161259747E+03    0.12207E-04   -0.59850E-05 21468   0.845E-03    0.201E-03
DAV:  29    -0.294161259777E+03   -0.30410E-07   -0.62357E-07 14592   0.233E-03    0.151E-03
DAV:  30    -0.294161259872E+03   -0.94818E-07   -0.12206E-06 14568   0.935E-04    0.614E-03
DAV:  31    -0.294161259966E+03   -0.94042E-07   -0.57225E-06 14388   0.172E-03    0.770E-03
DAV:  32    -0.294161259783E+03    0.18280E-06   -0.70283E-07 13704   0.918E-04    0.344E-03
DAV:  33    -0.294161259759E+03    0.24274E-07   -0.10606E-07  9108   0.260E-04    0.161E-03
DAV:  34    -0.294161259762E+03   -0.32069E-08   -0.35144E-07  9036   0.436E-04    0.183E-03
DAV:  35    -0.294161259783E+03   -0.20373E-07   -0.67927E-07  9120   0.587E-04    0.295E-03
DAV:  36    -0.294161259765E+03    0.17773E-07   -0.43554E-08  8856   0.296E-04    0.186E-03
DAV:  37    -0.294161259755E+03    0.97025E-08   -0.17965E-07  8832   0.273E-04    0.593E-04
DAV:  38    -0.294161259756E+03   -0.56843E-09   -0.27471E-08  8712   0.148E-04
   1 F= -.29961164E+03 E0= -.29961164E+03  d E =0.000000E+00
