    4    4  200    1
  0.9167123E+01  0.2466437E-09  0.2466437E-09  0.6963338E-09  0.5000000E-15
  1.000000000000000E-004
  CAR 
 graphite                                
     16    455     12
 
  0.0000000E+00  0.0000000E+00  0.0000000E+00  0.3858025E-03
    1      -15.241022
    2      -15.017132
    3       -3.995287
    4       -2.374299
    5        1.346580
    6        1.359230
    7        1.362991
    8        1.375232
    9        8.376866
   10       12.689653
   11       12.697578
   12       12.728539
 
  0.5555556E-01 -0.6938894E-17  0.0000000E+00  0.1543210E-02
    1      -15.167509
    2      -14.944627
    3       -3.906117
    4       -2.290096
    5        1.057821
    6        1.075424
    7        1.192620
    8        1.208638
    9        8.467062
   10       12.723898
   11       12.772839
   12       13.008214
 
  0.1111111E+00 -0.1387779E-16  0.0000000E+00  0.1543210E-02
    1      -14.947263
    2      -14.727414
    3       -3.639395
    4       -2.038692
    5        0.233476
    6        0.263562
    7        0.773329
    8        0.795702
    9        8.738225
   10       12.742198
   11       12.827782
   12       13.894568
 
  0.1666667E+00 -0.2775558E-16  0.0000000E+00  0.1543210E-02
    1      -14.581359
    2      -14.366637
    3       -3.197853
    4       -1.623778
    5       -0.949578
    6       -0.904024
    7        0.211061
    8        0.238777
    9        9.190533
   10       12.646634
   11       12.787569
   12       13.569944
 
  0.2222222E+00 -0.2775558E-16  0.0000000E+00  0.1543210E-02
    1      -14.071733
    2      -13.864116
    3       -2.586815
    4       -2.333444
    5       -2.271108
    6       -1.053194
    7       -0.385632
    8       -0.353883
    9        9.821902
   10       12.145078
   11       12.444076
   12       12.640832
 
  0.2777778E+00  0.2775558E-16  0.0000000E+00  0.1543210E-02
    1      -13.421518
    2      -13.223055
    3       -3.803104
    4       -3.723690
    5       -1.815959
    6       -0.940676
    7       -0.906323
    8       -0.341499
    9       10.563254
   10       10.625335
   11       11.142637
   12       12.198764
 
  0.3333333E+00 -0.5551115E-16  0.0000000E+00  0.1543210E-02
    1      -12.635899
    2      -12.448251
    3       -5.281611
    4       -5.185008
    5       -1.406908
    6       -1.370589
    7       -0.903649
    8        0.481560
    9        8.947419
   10        9.672213
   11       11.554791
   12       11.979849
 
  0.3888889E+00 -0.2775558E-16  0.0000000E+00  0.1543210E-02
    1      -11.724496
    2      -11.549993
    3       -6.713197
    4       -6.600648
    5       -1.755689
    6       -1.718156
    7        0.109813
    8        1.344838
    9        7.438450
   10        8.253645
   11       11.752920
   12       12.011175
 
  0.4444444E+00 -0.5551115E-16  0.0000000E+00  0.1543210E-02
    1      -10.715555
    2      -10.560385
    3       -8.037680
    4       -7.916106
    5       -1.970551
    6       -1.932284
    7        1.114111
    8        2.049039
    9        6.278793
   10        7.041045
   11       11.640361
   12       11.932088
 
  0.5000000E+00  0.0000000E+00  0.0000000E+00  0.7716049E-03
    1       -9.927273
    2       -9.844449
    3       -8.868468
    4       -8.805603
    5       -2.042966
    6       -2.004655
    7        1.686140
    8        2.249903
    9        5.866532
   10        6.453872
   11       11.600376
   12       11.899508
 
  0.5555556E-01  0.5555556E-01  0.0000000E+00  0.7716049E-03
    1      -15.020479
    2      -14.799648
    3       -3.728041
    4       -2.122109
    5        0.528996
    6        0.546418
    7        0.877976
    8        0.892167
    9        8.648048
   10       12.827254
   11       12.892614
   12       13.548148
 
  0.1111111E+00  0.5555556E-01  0.0000000E+00  0.1543210E-02
    1      -14.727306
    2      -14.510579
    3       -3.373757
    4       -1.788703
    5       -0.423679
    6       -0.392978
    7        0.334660
    8        0.356370
    9        9.010635
   10       12.917088
   11       13.023550
   12       14.036210
 
  0.1666667E+00  0.5555556E-01  0.0000000E+00  0.1543210E-02
    1      -14.289445
    2      -14.078810
    3       -2.847088
    4       -1.667522
    5       -1.617941
    6       -1.295445
    7       -0.288769
    8       -0.258773
    9        9.554044
   10       12.772082
   11       12.833888
   12       13.001179
 
  0.2222222E+00  0.5555556E-01  0.0000000E+00  0.1543210E-02
    1      -13.709402
    2      -13.506911
    3       -3.069262
    4       -3.000930
    5       -2.155270
    6       -0.892604
    7       -0.857020
    8       -0.652760
    9       10.274719
   10       11.291428
   11       11.763930
   12       12.630986
 
  0.2777778E+00  0.5555556E-01  0.0000000E+00  0.1543210E-02
    1      -12.991206
    2      -12.798741
    3       -4.528700
    4       -4.442328
    5       -1.419349
    6       -1.380446
    7       -1.311334
    8        0.119023
    9        9.707298
   10       10.332234
   11       11.162134
   12       12.397588
 
  0.3333333E+00  0.5555556E-01  0.0000000E+00  0.1543210E-02
    1      -12.141993
    2      -11.961459
    3       -5.976106
    4       -5.872857
    5       -1.835876
    6       -1.794740
    7       -0.341715
    8        0.975660
    9        8.145389
   10        8.897128
   11       12.070255
   12       12.252522
 
  0.3888889E+00  0.5555556E-01  0.0000000E+00  0.1543210E-02
    1      -11.176656
    2      -11.011039
    3       -7.355899
    4       -7.238189
    5       -2.122518
    6       -2.080015
    7        0.689998
    8        1.800650
    9        6.779694
   10        7.569067
   11       12.011563
   12       12.298258
 
  0.4444444E+00  0.5555556E-01  0.0000000E+00  0.1543210E-02
    1      -10.170505
    2      -10.038605
    3       -8.554048
    4       -8.443669
    5       -2.268649
    6       -2.225373
    7        1.578201
    8        2.282248
    9        5.957813
   10        6.585958
   11       11.933776
   12       12.239502
 
  0.5000000E+00  0.5555556E-01  0.0000000E+00  0.1543210E-02
    1      -10.171968
    2      -10.039951
    3       -8.552518
    4       -8.441990
    5       -2.269049
    6       -2.225846
    7        1.577433
    8        2.282073
    9        5.957870
   10        6.586822
   11       11.934243
   12       12.239966
 
 -0.4444444E+00  0.5555556E-01  0.0000000E+00  0.1543210E-02
    1      -11.178238
    2      -11.012750
    3       -7.353737
    4       -7.235970
    5       -2.123697
    6       -2.081168
    7        0.688767
    8        1.799795
    9        6.780215
   10        7.570515
   11       12.012952
   12       12.299573
 
 -0.3888889E+00  0.5555556E-01  0.0000000E+00  0.1543210E-02
    1      -12.143391
    2      -11.962854
    3       -5.973732
    4       -5.870453
    5       -1.837727
    6       -1.796554
    7       -0.342961
    8        0.974585
    9        8.145865
   10        8.898566
   11       12.070737
   12       12.253247
 
 -0.3333333E+00  0.5555556E-01  0.0000000E+00  0.1543210E-02
    1      -12.992394
    2      -12.799924
    3       -4.526344
    4       -4.439938
    5       -1.421639
    6       -1.382694
    7       -1.312470
    8        0.117977
    9        9.707282
   10       10.333445
   11       11.160569
   12       12.400564
 
 -0.2777778E+00  0.5555556E-01  0.0000000E+00  0.1543210E-02
    1      -13.710372
    2      -13.507877
    3       -3.067310
    4       -2.998954
    5       -2.156239
    6       -0.894803
    7       -0.859201
    8       -0.653678
    9       10.273399
   10       11.290588
   11       11.764811
   12       12.634604
 
 -0.2222222E+00  0.5555556E-01  0.0000000E+00  0.1543210E-02
    1      -14.290198
    2      -14.079559
    3       -2.847862
    4       -1.666910
    5       -1.617349
    6       -1.296190
    7       -0.289692
    8       -0.259784
    9        9.552999
   10       12.770774
   11       12.837648
   12       13.004753
 
 -0.1666667E+00  0.5555556E-01  0.0000000E+00  0.1543210E-02
    1      -14.727844
    2      -14.511112
    3       -3.374319
    4       -1.789248
    5       -0.426599
    6       -0.395990
    7        0.337509
    8        0.358905
    9        9.009871
   10       12.920302
   11       13.027599
   12       14.039823
 
 -0.1111111E+00  0.5555556E-01  0.0000000E+00  0.1543210E-02
    1      -15.020804
    2      -14.799977
    3       -3.728382
    4       -2.122441
    5        0.518772
    6        0.536673
    7        0.887922
    8        0.901980
    9        8.647576
   10       12.829114
   11       12.895458
   12       13.537236
 
 -0.5555556E-01  0.5555556E-01  0.0000000E+00  0.7716049E-03
    1      -15.167617
    2      -14.944733
    3       -3.906232
    4       -2.290207
    5        1.045517
    6        1.063400
    7        1.204907
    8        1.220742
    9        8.466902
   10       12.723810
   11       12.773165
   12       13.009824
 
  0.1111111E+00  0.1111111E+00  0.0000000E+00  0.7716049E-03
    1      -14.362132
    2      -14.150527
    3       -2.934149
    4       -1.376584
    5       -1.324002
    6       -1.296269
    7       -0.368069
    8       -0.348530
    9        9.465436
   10       13.015529
   11       13.299939
   12       13.328262
 
  0.1666667E+00  0.1111111E+00  0.0000000E+00  0.1543210E-02
    1      -13.853861
    2      -13.649393
    3       -2.471155
    4       -2.425963
    5       -2.325969
    6       -1.113831
    7       -1.083658
    8       -0.809800
    9       10.100343
   10       11.746920
   11       12.099369
   12       13.495929
 
  0.2222222E+00  0.1111111E+00  0.0000000E+00  0.1543210E-02
    1      -13.205785
    2      -13.010298
    3       -3.796703
    4       -3.727953
    5       -1.760920
    6       -1.719079
    7       -1.558565
    8       -0.102440
    9       10.307145
   10       10.777904
   11       10.910476
   12       13.372025
 
  0.2777778E+00  0.1111111E+00  0.0000000E+00  0.1543210E-02
    1      -12.423375
    2      -12.238907
    3       -5.192431
    4       -5.102985
    5       -2.274473
    6       -2.225970
    7       -0.649983
    8        0.717492
    9        8.799826
   10        9.408379
   11       11.885123
   12       13.171568
 
  0.3333333E+00  0.1111111E+00  0.0000000E+00  0.1543210E-02
    1      -11.516905
    2      -11.345452
    3       -6.575681
    4       -6.468582
    5       -2.646822
    6       -2.594585
    7        0.361414
    8        1.583359
    9        7.359935
   10        8.068482
   11       12.891051
   12       13.067254
 
  0.3888889E+00  0.1111111E+00  0.0000000E+00  0.1543210E-02
    1      -10.515813
    2      -10.363552
    3       -7.871016
    4       -7.753390
    5       -2.872880
    6       -2.818618
    7        1.370194
    8        2.302498
    9        6.231255
   10        6.893952
   11       12.853445
   12       13.184242
 
  0.4444444E+00  0.1111111E+00  0.0000000E+00  0.1543210E-02
    1       -9.738902
    2       -9.657596
    3       -8.685098
    4       -8.624901
    5       -2.948937
    6       -2.894223
    7        1.952965
    8        2.511909
    9        5.839722
   10        6.295768
   11       12.814294
   12       13.156960
 
  0.5000000E+00  0.1111111E+00  0.0000000E+00  0.1543210E-02
    1      -10.519048
    2      -10.366736
    3       -7.867011
    4       -7.749280
    5       -2.874269
    6       -2.819974
    7        1.367981
    8        2.301353
    9        6.231587
   10        6.896687
   11       12.855067
   12       13.185785
 
 -0.4444444E+00  0.1111111E+00  0.0000000E+00  0.1543210E-02
    1      -11.519899
    2      -11.348437
    3       -6.571136
    4       -6.463962
    5       -2.649459
    6       -2.597156
    7        0.358900
    8        1.581311
    9        7.360607
   10        8.071511
   11       12.891248
   12       13.066533
 
 -0.3888889E+00  0.1111111E+00  0.0000000E+00  0.1543210E-02
    1      -12.425964
    2      -12.241487
    3       -5.187931
    4       -5.098330
    5       -2.277947
    6       -2.229370
    7       -0.652380
    8        0.715319
    9        8.799694
   10        9.411125
   11       11.881660
   12       13.176188
 
 -0.3333333E+00  0.1111111E+00  0.0000000E+00  0.1543210E-02
    1      -13.207944
    2      -13.012446
    3       -3.792969
    4       -3.724133
    5       -1.764198
    6       -1.722324
    7       -1.560668
    8       -0.104428
    9       10.305412
   10       10.780130
   11       10.907565
   12       13.378326
 
 -0.2777778E+00  0.1111111E+00  0.0000000E+00  0.1543210E-02
    1      -13.855576
    2      -13.651105
    3       -2.470375
    4       -2.425063
    5       -2.327712
    6       -1.114528
    7       -1.084296
    8       -0.811474
    9       10.098005
   10       11.743244
   11       12.100895
   12       13.504578
 
 -0.2222222E+00  0.1111111E+00  0.0000000E+00  0.1543210E-02
    1      -14.363422
    2      -14.151808
    3       -2.935485
    4       -1.377880
    5       -1.329684
    6       -1.301291
    7       -0.362751
    8       -0.343024
    9        9.463659
   10       13.011717
   11       13.339849
   12       13.430680
 
 -0.1666667E+00  0.1111111E+00  0.0000000E+00  0.1543210E-02
    1      -14.728166
    2      -14.511430
    3       -3.374660
    4       -1.789584
    5       -0.435510
    6       -0.404292
    7        0.346473
    8        0.368242
    9        9.009429
   10       12.930379
   11       13.037108
   12       14.034994
 
 -0.1111111E+00  0.1111111E+00  0.0000000E+00  0.7716049E-03
    1      -14.947691
    2      -14.727840
    3       -3.639850
    4       -2.039137
    5        0.220328
    6        0.250642
    7        0.786778
    8        0.809013
    9        8.737612
   10       12.751399
   11       12.836920
   12       13.920599
 
  0.1666667E+00  0.1666667E+00  0.0000000E+00  0.7716049E-03
    1      -13.277498
    2      -13.081047
    3       -3.389224
    4       -3.350876
    5       -2.032280
    6       -2.004307
    7       -1.641380
    8       -0.176862
    9       10.553943
   10       10.824791
   11       10.926689
   12       14.291299
 
  0.2222222E+00  0.1666667E+00  0.0000000E+00  0.1543210E-02
    1      -12.564968
    2      -12.378368
    3       -4.512450
    4       -4.452277
    5       -2.803350
    6       -2.760357
    7       -0.806109
    8        0.585094
    9        9.234624
   10        9.677535
   11       11.720120
   12       14.486205
 
  0.2777778E+00  0.1666667E+00  0.0000000E+00  0.1543210E-02
    1      -11.724255
    2      -11.549591
    3       -5.780554
    4       -5.693073
    5       -3.344321
    6       -3.286843
    7        0.155694
    8        1.437822
    9        7.866411
   10        8.415557
   11       12.774137
   12       14.341532
 
  0.3333333E+00  0.1666667E+00  0.0000000E+00  0.1543210E-02
    1      -10.771924
    2      -10.612335
    3       -7.065106
    4       -6.958134
    5       -3.685730
    6       -3.621175
    7        1.187359
    8        2.280207
    9        6.606576
   10        7.210369
   11       13.935903
   12       14.211225
 
  0.3888889E+00  0.1666667E+00  0.0000000E+00  0.1543210E-02
    1       -9.784709
    2       -9.658176
    3       -8.210608
    4       -8.108372
    5       -3.852745
    6       -3.785195
    7        2.098508
    8        2.801088
    9        5.831303
   10        6.242549
   11       14.088998
   12       14.519269
 
  0.4444444E+00  0.1666667E+00  0.0000000E+00  0.1543210E-02
    1       -9.789039
    2       -9.662181
    3       -8.206033
    4       -8.103335
    5       -3.853508
    6       -3.786034
    7        2.096129
    8        2.800534
    9        5.830099
   10        6.246260
   11       14.089966
   12       14.520038
 
  0.5000000E+00  0.1666667E+00  0.0000000E+00  0.1543210E-02
    1      -10.776666
    2      -10.617056
    3       -7.058731
    4       -6.951594
    5       -3.688183
    6       -3.623543
    7        1.183704
    8        2.277495
    9        6.606553
   10        7.215244
   11       13.930537
   12       14.212599
 
 -0.4444444E+00  0.1666667E+00  0.0000000E+00  0.1543210E-02
    1      -11.728452
    2      -11.553779
    3       -5.774208
    4       -5.686540
    5       -3.347682
    6       -3.290096
    7        0.152019
    8        1.434518
    9        7.865507
   10        8.420234
   11       12.768407
   12       14.346310
 
 -0.3888889E+00  0.1666667E+00  0.0000000E+00  0.1543210E-02
    1      -12.568529
    2      -12.381916
    3       -4.508078
    4       -4.447621
    5       -2.805649
    6       -2.762549
    7       -0.809461
    8        0.581913
    9        9.231474
   10        9.681567
   11       11.715339
   12       14.494593
 
 -0.3333333E+00  0.1666667E+00  0.0000000E+00  0.1543210E-02
    1      -13.280393
    2      -13.083941
    3       -3.390584
    4       -3.351315
    5       -2.029963
    6       -2.001393
    7       -1.644248
    8       -0.179635
    9       10.548388
   10       10.820909
   11       10.929337
   12       14.312490
 
 -0.2777778E+00  0.1666667E+00  0.0000000E+00  0.1543210E-02
    1      -13.856110
    2      -13.651637
    3       -2.478897
    4       -2.432924
    5       -2.328269
    6       -1.105331
    7       -1.074656
    8       -0.812048
    9       10.097323
   10       11.740053
   11       12.099674
   12       13.528482
 
 -0.2222222E+00  0.1666667E+00  0.0000000E+00  0.1543210E-02
    1      -14.291053
    2      -14.080410
    3       -2.848762
    4       -1.679311
    5       -1.629360
    6       -1.297090
    7       -0.275829
    8       -0.245821
    9        9.551873
   10       12.766286
   11       12.857572
   12       13.023578
 
 -0.1666667E+00  0.1666667E+00  0.0000000E+00  0.7716049E-03
    1      -14.582320
    2      -14.367592
    3       -3.198868
    4       -1.624779
    5       -0.962973
    6       -0.917243
    7        0.225702
    8        0.253340
    9        9.189218
   10       12.664988
   11       12.805518
   12       13.562647
 
  0.2222222E+00  0.2222222E+00  0.0000000E+00  0.7716049E-03
    1      -11.793721
    2      -11.618132
    3       -5.308695
    4       -5.259888
    5       -3.767891
    6       -3.730974
    7        0.085806
    8        1.386917
    9        8.084819
   10        8.528525
   11       12.691073
   12       15.601428
 
  0.2777778E+00  0.2222222E+00  0.0000000E+00  0.1543210E-02
    1      -10.904054
    2      -10.741571
    3       -6.322093
    4       -6.247298
    5       -4.436253
    6       -4.380617
    7        1.085400
    8        2.253892
    9        6.897710
   10        7.392068
   11       13.803026
   12       15.661756
 
  0.3333333E+00  0.2222222E+00  0.0000000E+00  0.1543210E-02
    1       -9.927818
    2       -9.784496
    3       -7.445591
    4       -7.347052
    5       -4.786515
    6       -4.715347
    7        2.108475
    8        3.032685
    9        5.863378
   10        6.336018
   11       15.004249
   12       15.533883
 
  0.3888889E+00  0.2222222E+00  0.0000000E+00  0.1543210E-02
    1       -9.174643
    2       -9.097909
    3       -8.198589
    4       -8.154057
    5       -4.894317
    6       -4.818883
    7        2.745051
    8        3.287193
    9        5.587349
   10        5.621242
   11       15.454911
   12       16.088924
 
  0.4444444E+00  0.2222222E+00  0.0000000E+00  0.1543210E-02
    1       -9.934312
    2       -9.790919
    3       -7.438110
    4       -7.339086
    5       -4.788088
    6       -4.716789
    7        2.104051
    8        3.029958
    9        5.861263
   10        6.343211
   11       14.994425
   12       15.534670
 
  0.5000000E+00  0.2222222E+00  0.0000000E+00  0.1543210E-02
    1      -10.910060
    2      -10.747573
    3       -6.315033
    4       -6.239773
    5       -4.438076
    6       -4.382235
    7        1.080534
    8        2.249487
    9        6.895438
   10        7.398965
   11       13.794630
   12       15.665245
 
 -0.4444444E+00  0.2222222E+00  0.0000000E+00  0.1543210E-02
    1      -11.799035
    2      -11.623293
    3       -5.306335
    4       -5.256378
    5       -3.766450
    6       -3.728878
    7        0.081182
    8        1.382420
    9        8.080375
   10        8.534169
   11       12.684109
   12       15.622223
 
 -0.3888889E+00  0.2222222E+00  0.0000000E+00  0.1543210E-02
    1      -12.569285
    2      -12.382673
    3       -4.516218
    4       -4.455079
    5       -2.796480
    6       -2.752882
    7       -0.810208
    8        0.581028
    9        9.228295
   10        9.680451
   11       11.714436
   12       14.521180
 
 -0.3333333E+00  0.2222222E+00  0.0000000E+00  0.1543210E-02
    1      -13.209230
    2      -13.013729
    3       -3.804807
    4       -3.735567
    5       -1.749778
    6       -1.707751
    7       -1.561979
    8       -0.105849
    9       10.299671
   10       10.777426
   11       10.905996
   12       13.405229
 
 -0.2777778E+00  0.2222222E+00  0.0000000E+00  0.1543210E-02
    1      -13.711978
    2      -13.509475
    3       -3.080429
    4       -3.011819
    5       -2.157899
    6       -0.878469
    7       -0.842892
    8       -0.655390
    9       10.271389
   10       11.283443
   11       11.760846
   12       12.660343
 
 -0.2222222E+00  0.2222222E+00  0.0000000E+00  0.7716049E-03
    1      -14.073448
    2      -13.865820
    3       -2.588598
    4       -2.346597
    5       -2.284080
    6       -1.054979
    7       -0.369844
    8       -0.338174
    9        9.819671
   10       12.137616
   11       12.468953
   12       12.575311
 
  0.2777778E+00  0.2777778E+00  0.0000000E+00  0.7716049E-03
    1       -9.983462
    2       -9.837168
    3       -6.945939
    4       -6.886908
    5       -5.306243
    6       -5.264894
    7        2.100795
    8        3.113518
    9        5.891203
   10        6.389681
   11       14.928193
   12       15.718882
 
  0.3333333E+00  0.2777778E+00  0.0000000E+00  0.1543210E-02
    1       -9.035584
    2       -8.918494
    3       -7.764452
    4       -7.692862
    5       -5.745453
    6       -5.688565
    7        3.079437
    8        3.794313
    9        5.068480
   10        5.494663
   11       15.522319
   12       15.664658
 
  0.3888889E+00  0.2777778E+00  0.0000000E+00  0.1543210E-02
    1       -9.043234
    2       -8.925822
    3       -7.757554
    4       -7.684556
    5       -5.745585
    6       -5.688528
    7        3.075155
    8        3.792874
    9        5.064128
   10        5.502917
   11       15.535643
   12       15.651724
 
  0.4444444E+00  0.2777778E+00  0.0000000E+00  0.1543210E-02
    1       -9.991490
    2       -9.845186
    3       -6.940521
    4       -6.880116
    5       -5.304594
    6       -5.262364
    7        2.095142
    8        3.107854
    9        5.888390
   10        6.398107
   11       14.916577
   12       15.731576
 
  0.5000000E+00  0.2777778E+00  0.0000000E+00  0.1543210E-02
    1      -10.911112
    2      -10.748795
    3       -6.322116
    4       -6.246248
    5       -4.429793
    6       -4.373417
    7        1.079685
    8        2.247824
    9        6.893423
   10        7.398169
   11       13.793549
   12       15.699924
 
 -0.4444444E+00  0.2777778E+00  0.0000000E+00  0.1543210E-02
    1      -11.730222
    2      -11.555563
    3       -5.784779
    4       -5.696770
    5       -3.333967
    6       -3.276213
    7        0.150397
    8        1.432211
    9        7.860768
   10        8.417860
   11       12.766471
   12       14.379487
 
 -0.3888889E+00  0.2777778E+00  0.0000000E+00  0.1543210E-02
    1      -12.428237
    2      -12.243765
    3       -5.199951
    4       -5.110130
    5       -2.261361
    6       -2.212783
    7       -0.654591
    8        0.712662
    9        8.792896
   10        9.406899
   11       11.879201
   12       13.207267
 
 -0.3333333E+00  0.2777778E+00  0.0000000E+00  0.1543210E-02
    1      -12.994970
    2      -12.802500
    3       -4.538821
    4       -4.452227
    5       -1.404009
    6       -1.365128
    7       -1.315053
    8        0.115151
    9        9.699304
   10       10.328017
   11       11.157764
   12       12.430154
 
 -0.2777778E+00  0.2777778E+00  0.0000000E+00  0.7716049E-03
    1      -13.424198
    2      -13.225728
    3       -3.815344
    4       -3.735733
    5       -1.818683
    6       -0.923859
    7       -0.889576
    8       -0.344319
    9       10.554929
   10       10.622135
   11       11.137428
   12       12.227941
 
  0.3333333E+00  0.3333333E+00  0.0000000E+00  0.7716049E-03
    1       -8.275012
    2       -8.204948
    3       -8.203084
    4       -8.136000
    5       -6.158141
    6       -6.157495
    7        3.851332
    8        4.345732
    9        4.352896
   10        4.929978
   11       15.364645
   12       15.385838
 
  0.3888889E+00  0.3333333E+00  0.0000000E+00  0.1543210E-02
    1       -9.045976
    2       -8.929320
    3       -7.759912
    4       -7.687345
    5       -5.739811
    6       -5.682092
    7        3.074905
    8        3.785145
    9        5.067660
   10        5.503534
   11       15.538578
   12       15.650286
 
  0.4444444E+00  0.3333333E+00  0.0000000E+00  0.1543210E-02
    1       -9.937137
    2       -9.794021
    3       -7.445688
    4       -7.346544
    5       -4.776624
    6       -4.705136
    7        2.102637
    8        3.023995
    9        5.860824
   10        6.341904
   11       14.992804
   12       15.570909
 
  0.5000000E+00  0.3333333E+00  0.0000000E+00  0.1543210E-02
    1      -10.779866
    2      -10.620372
    3       -7.068450
    4       -6.961225
    5       -3.673147
    6       -3.608484
    7        1.181305
    8        2.272397
    9        6.602856
   10        7.211779
   11       13.930920
   12       14.246091
 
 -0.4444444E+00  0.3333333E+00  0.0000000E+00  0.1543210E-02
    1      -11.523596
    2      -11.352053
    3       -6.581886
    4       -6.474626
    5       -2.632155
    6       -2.579901
    7        0.355780
    8        1.576632
    9        7.354624
   10        8.066083
   11       12.904340
   12       13.089004
 
 -0.3888889E+00  0.3333333E+00  0.0000000E+00  0.1543210E-02
    1      -12.147200
    2      -11.966682
    3       -5.984814
    4       -5.881408
    5       -1.819448
    6       -1.778344
    7       -0.346537
    8        0.970152
    9        8.138479
   10        8.892052
   11       12.083307
   12       12.277756
 
 -0.3333333E+00  0.3333333E+00  0.0000000E+00  0.7716049E-03
    1      -12.639782
    2      -12.452396
    3       -5.292581
    4       -5.195772
    5       -1.389258
    6       -1.353007
    7       -0.907424
    8        0.477364
    9        8.939406
   10        9.665975
   11       11.553884
   12       12.010708
 
  0.3888889E+00  0.3888889E+00  0.0000000E+00  0.7716049E-03
    1       -9.184027
    2       -9.109057
    3       -8.198143
    4       -8.154691
    5       -4.882796
    6       -4.807194
    7        2.743878
    8        3.273641
    9        5.592282
   10        5.620021
   11       15.490713
   12       16.114385
 
  0.4444444E+00  0.3888889E+00  0.0000000E+00  0.1543210E-02
    1       -9.795255
    2       -9.669326
    3       -8.211687
    4       -8.109668
    5       -3.838575
    6       -3.771106
    7        2.094210
    8        2.789024
    9        5.831696
   10        6.241479
   11       14.126349
   12       14.556789
 
  0.5000000E+00  0.3888889E+00  0.0000000E+00  0.1543210E-02
    1      -10.524585
    2      -10.372571
    3       -7.875216
    4       -7.757611
    5       -2.856997
    6       -2.802755
    7        1.364564
    8        2.292546
    9        6.229327
   10        6.890065
   11       12.889729
   12       13.220462
 
 -0.4444444E+00  0.3888889E+00  0.0000000E+00  0.1543210E-02
    1      -11.183681
    2      -11.018306
    3       -7.362799
    4       -7.245007
    5       -2.105191
    6       -2.062736
    7        0.684458
    8        1.792605
    9        6.775363
   10        7.563080
   11       12.046051
   12       12.332426
 
 -0.3888889E+00  0.3888889E+00  0.0000000E+00  0.7716049E-03
    1      -11.729880
    2      -11.555422
    3       -6.722370
    4       -6.609725
    5       -1.737424
    6       -1.699960
    7        0.105070
    8        1.338616
    9        7.432139
   10        8.246644
   11       11.785192
   12       12.042477
 
  0.4444444E+00  0.4444444E+00  0.0000000E+00  0.7716049E-03
    1       -9.749292
    2       -9.669850
    3       -8.686634
    4       -8.627763
    5       -2.932170
    6       -2.877433
    7        1.951012
    8        2.497133
    9        5.842842
   10        6.287611
   11       12.850237
   12       13.193180
 
  0.5000000E+00  0.4444444E+00  0.0000000E+00  0.1543210E-02
    1      -10.180309
    2      -10.049146
    3       -8.557714
    4       -8.447778
    5       -2.250656
    6       -2.207517
    7        1.574198
    8        2.269362
    9        5.958614
   10        6.577380
   11       11.968677
   12       12.274467
 
 -0.4444444E+00  0.4444444E+00  0.0000000E+00  0.7716049E-03
    1      -10.723038
    2      -10.568139
    3       -8.044400
    4       -7.922928
    5       -1.951916
    6       -1.913714
    7        1.109276
    8        2.039118
    9        6.276455
   10        7.032742
   11       11.674272
   12       11.965972
 
  0.5000000E+00  0.5000000E+00  0.0000000E+00  0.3858025E-03
    1       -9.937997
    2       -9.857076
    3       -8.870436
    4       -8.808957
    5       -2.024206
    6       -1.985961
    7        1.683902
    8        2.234728
    9        5.869102
   10        6.442966
   11       11.634649
   12       11.933818
 