32   
4    

1    
  0.0033387780453679  -0.0000012990538961   0.0094261635608676
  -0.2157733200    0.0077092400   -0.1344895600
   0.0277668400    0.0067985700   -0.0057057000
  -0.0075866200   -0.0136319500   -0.0056422000
  -0.0076789700    0.0273286700   -0.0058663800
  -0.0139825800    0.0064567400    0.0014931200
  -0.0139696400    0.0064594600    0.0015071900
  -0.0139770000    0.0064545300    0.0015067400
  -0.0139729300    0.0064613300    0.0015078100
   0.0123691700   -0.0080974000   -0.0015250500
   0.0122514700   -0.0081710700   -0.0015647500
   0.0123738300   -0.0080301300   -0.0015435800
   0.0122318900   -0.0081060100   -0.0010798300
   0.0118488400   -0.0056606800   -0.0016909400
   0.0119518800   -0.0057246100   -0.0016530500
   0.0119546900   -0.0057911700   -0.0016730600
   0.0118217200   -0.0057317800   -0.0011405300
   0.0081810700   -0.0063833600    0.0121649500
   0.0345383200   -0.0070989700    0.0476987700
   0.0788154300    0.0190718500    0.0480980900
   0.0788629100   -0.0320140200    0.0472513700
   0.0133599100   -0.0061682100   -0.0002205600
   0.0133603100   -0.0061697800   -0.0002116200
   0.0133621100   -0.0061690700   -0.0002127300
   0.0133587400   -0.0061690500   -0.0002085000
  -0.0120372100    0.0078196400    0.0005797700
  -0.0117307400    0.0078990300    0.0005924700
  -0.0119525200    0.0076005000    0.0005892900
  -0.0118231900    0.0077705200    0.0000749100
  -0.0108556600    0.0052085800    0.0004802700
  -0.0110972000    0.0052893200    0.0004548800
  -0.0110465900    0.0054642200    0.0004602900
  -0.0109249800    0.0053250700   -0.0000318800

1    
 -0.0033387780453679   0.0000012990538961  -0.0094261635608676
   0.1928864800    0.0073541300    0.1345389500
  -0.0506201800    0.0064270900    0.0057832200
  -0.0151834700    0.0269020400    0.0058443900
  -0.0152788800   -0.0140478500    0.0058175300
  -0.0095123600    0.0069239100   -0.0014384200
  -0.0095276700    0.0069240700   -0.0014528500
  -0.0095241700    0.0069250500   -0.0014543400
  -0.0095195300    0.0069214500   -0.0014543600
   0.0121637000   -0.0084874500    0.0015115100
   0.0122659000   -0.0084121600    0.0015505700
   0.0121507300   -0.0085415600    0.0015285800
   0.0122986000   -0.0084780000    0.0010026200
   0.0116714600   -0.0054994900    0.0015759900
   0.0115577900   -0.0054299100    0.0015342000
   0.0115584700   -0.0053629700    0.0015552600
   0.0116893900   -0.0054219600    0.0010863700
   0.0133968200   -0.0061685100   -0.0121729000
  -0.0129662600   -0.0066950700   -0.0477097800
  -0.0574782800   -0.0318408300   -0.0472985800
  -0.0570561100    0.0192434700   -0.0480717700
   0.0088061000   -0.0064587300    0.0002098100
   0.0088045200   -0.0064623400    0.0002001100
   0.0088053600   -0.0064619300    0.0001989800
   0.0088025700   -0.0064585200    0.0002002100
  -0.0117244000    0.0081063600   -0.0005250200
  -0.0119681500    0.0080218200   -0.0005370000
  -0.0117720700    0.0082716000   -0.0005318600
  -0.0119087800    0.0081356800   -0.0000315300
  -0.0108574000    0.0051438300   -0.0005163300
  -0.0105591800    0.0050637700   -0.0004785800
  -0.0106353900    0.0048431900   -0.0004817500
  -0.0107656000    0.0050198200    0.0000167700

17   
  0.0033387780453679  -0.0000012990538961   0.0094261635608676
  -0.0149047000    0.0064688500    0.0110233800
   0.0114670500    0.0069958400    0.0465565800
   0.0559692800    0.0321312500    0.0461456000
   0.0555550500   -0.0189437900    0.0469153700
  -0.0084553100    0.0068677100   -0.0013206500
  -0.0084541700    0.0068697500   -0.0013105600
  -0.0084553300    0.0068692700   -0.0013131300
  -0.0084532000    0.0068683900   -0.0013067900
   0.0130346200   -0.0090886500    0.0015905000
   0.0131065300   -0.0090248500    0.0016722100
   0.0130173900   -0.0090943000    0.0016292500
   0.0131266000   -0.0090679300    0.0011222600
   0.0116863100   -0.0053082700    0.0017011800
   0.0116232700   -0.0052048000    0.0015968300
   0.0115681800   -0.0052335700    0.0016413000
   0.0117130700   -0.0052569900    0.0011459300
  -0.1925358600   -0.0070280300   -0.1353452800
   0.0507891400   -0.0061144800   -0.0074206700
   0.0157597700   -0.0263527100   -0.0074816900
   0.0158565600    0.0141312200   -0.0074625300
   0.0076062100   -0.0063394400    0.0002626500
   0.0076043100   -0.0063397800    0.0001797300
   0.0076062600   -0.0063390600    0.0001795400
   0.0076042100   -0.0063412200    0.0001799400
  -0.0128396500    0.0087554900   -0.0000804200
  -0.0125455600    0.0087690100   -0.0000026900
  -0.0127027000    0.0085144600   -0.0000556200
  -0.0126796300    0.0086729600   -0.0002311800
  -0.0105155900    0.0046950300    0.0000638800
  -0.0108096800    0.0047070600   -0.0000643000
  -0.0106706700    0.0049606800   -0.0000165000
  -0.0106717800    0.0048008900   -0.0001941600

17   
 -0.0033387780453679   0.0000012990538961  -0.0094261635608676
  -0.0086458500    0.0069604900   -0.0108802500
  -0.0350063100    0.0076712500   -0.0464183100
  -0.0792770300   -0.0184865100   -0.0468198200
  -0.0793193500    0.0325845700   -0.0459702900
  -0.0142501500    0.0067255400    0.0014396000
  -0.0142498900    0.0067250600    0.0014292800
  -0.0142495400    0.0067257900    0.0014273500
  -0.0142505100    0.0067257700    0.0014306500
   0.0128775200   -0.0086130400   -0.0017357800
   0.0128128900   -0.0086715100   -0.0018166200
   0.0128940700   -0.0086048100   -0.0017696400
   0.0127843300   -0.0086313800   -0.0012750800
   0.0114148500   -0.0052018900   -0.0018145200
   0.0114810000   -0.0053162500   -0.0017193500
   0.0115427000   -0.0052874100   -0.0017632900
   0.0113971800   -0.0052640900   -0.0012558900
   0.2147958300   -0.0074004700    0.1353344800
  -0.0285490400   -0.0064901200    0.0074150100
   0.0063918900    0.0137014000    0.0073529900
   0.0064846400   -0.0267912100    0.0075833900
   0.0137167400   -0.0064568900   -0.0002629900
   0.0137174700   -0.0064561300   -0.0001787400
   0.0137169400   -0.0064567900   -0.0001790900
   0.0137181600   -0.0064571300   -0.0001791500
  -0.0123158700    0.0082437400    0.0000595600
  -0.0126077600    0.0082344600   -0.0000194300
  -0.0124552400    0.0084919200    0.0000285300
  -0.0124799500    0.0083305700    0.0002026700
  -0.0106799600    0.0049667500   -0.0000319600
  -0.0103813600    0.0049400800    0.0001027700
  -0.0105113200    0.0046994700    0.0000500600
  -0.0105170600    0.0048587600    0.0002338700
