32   
4    

1    
  0.0032980792850203  -0.0000001486515502   0.0094404805496131
  -0.2056655400    0.0040408200   -0.1351570200
   0.0329398700    0.0031126800   -0.0057818100
  -0.0015101000   -0.0167802800   -0.0057197000
  -0.0016118100    0.0230636500   -0.0058605100
  -0.0070648300    0.0031537100    0.0014592300
  -0.0070492100    0.0031519200    0.0014714700
  -0.0070528900    0.0031498600    0.0014710900
  -0.0070560800    0.0031583500    0.0014713600
   0.0048902800   -0.0031290700   -0.0010832000
   0.0050280800   -0.0030674800   -0.0014640000
   0.0049149700   -0.0031903400   -0.0014801700
   0.0050122700   -0.0031155700   -0.0014488300
   0.0056895000   -0.0029299000   -0.0010760600
   0.0058308100   -0.0029766100   -0.0015191300
   0.0058105200   -0.0029377900   -0.0015037800
   0.0057237000   -0.0028652600   -0.0015344200
   0.0281335400   -0.0034166300    0.0478647400
   0.0019577300   -0.0027921800    0.0119718600
   0.0717244600   -0.0280010200    0.0474268600
   0.0714797500    0.0221892800    0.0482576900
   0.0064903900   -0.0028446000   -0.0001761900
   0.0064937500   -0.0028460900   -0.0001842400
   0.0064950800   -0.0028475400   -0.0001752600
   0.0064926100   -0.0028461000   -0.0001760400
  -0.0044882400    0.0029217500    0.0004965400
  -0.0047484400    0.0028502500    0.0004725400
  -0.0045590100    0.0028065100    0.0000516500
  -0.0046801600    0.0026623600    0.0004886100
  -0.0050094000    0.0025607300    0.0004540300
  -0.0047970700    0.0024844700    0.0004781500
  -0.0048457800    0.0025778100    0.0000445800
  -0.0049687000    0.0027023300    0.0004599900

1    
 -0.0032980792850203   0.0000001486515502  -0.0094404805496131
   0.1947180400    0.0039596800    0.1351544400
  -0.0440194900    0.0031195700    0.0057007400
  -0.0093885600    0.0231176500    0.0057616500
  -0.0094748300   -0.0168277800    0.0056567800
  -0.0039653200    0.0031627300   -0.0014201600
  -0.0039788200    0.0031637700   -0.0014318500
  -0.0039742800    0.0031665700   -0.0014314000
  -0.0039751400    0.0031573300   -0.0014323000
   0.0051559200   -0.0032794400    0.0010336100
   0.0050162200   -0.0033336200    0.0014748200
   0.0051230100   -0.0032169800    0.0014907600
   0.0050357300   -0.0032892900    0.0014613900
   0.0059852400   -0.0031109600    0.0011433200
   0.0058442200   -0.0030581600    0.0015245500
   0.0058633500   -0.0031074500    0.0015077500
   0.0059557000   -0.0031824700    0.0015414200
  -0.0179779700   -0.0036230600   -0.0479096000
   0.0081036400   -0.0030147000   -0.0120081600
  -0.0614089500    0.0220206600   -0.0482719300
  -0.0615613900   -0.0282132600   -0.0475063100
   0.0032380900   -0.0027298100    0.0002242400
   0.0032345000   -0.0027312200    0.0002326900
   0.0032338700   -0.0027289700    0.0002242700
   0.0032342800   -0.0027289600    0.0002234900
  -0.0049168500    0.0028940000   -0.0005046300
  -0.0047092500    0.0029691400   -0.0004853800
  -0.0048704900    0.0029963100   -0.0000731200
  -0.0047485000    0.0031122800   -0.0004952500
  -0.0050649300    0.0028739800   -0.0004439300
  -0.0053231900    0.0029485500   -0.0004655900
  -0.0052540300    0.0028315400   -0.0000237400
  -0.0051298200    0.0026823700   -0.0004525700

17   
  0.0032980792850203  -0.0000001486515502   0.0094404805496131
   0.0182807900    0.0037007300    0.0468339600
  -0.0079103900    0.0030873400    0.0109211600
   0.0616446300   -0.0219095700    0.0471995700
   0.0618006500    0.0282529100    0.0464240400
  -0.0072664100    0.0030865800   -0.0011442200
  -0.0072649600    0.0030804900   -0.0011532200
  -0.0072620100    0.0030879300   -0.0011443300
  -0.0072681200    0.0030929600   -0.0011467000
   0.0054513300   -0.0032403500    0.0015341600
   0.0055858400   -0.0032080600    0.0011071900
   0.0054991600   -0.0032428300    0.0014975000
   0.0055578000   -0.0031543000    0.0015725500
   0.0058427400   -0.0030345500    0.0014284800
   0.0059467400   -0.0030631600    0.0010075600
   0.0059220600   -0.0031004000    0.0014693800
   0.0058559800   -0.0030461300    0.0013894800
  -0.1946804800   -0.0036461200   -0.1358158800
   0.0437574900   -0.0027942100   -0.0074171800
   0.0095876100   -0.0225255800   -0.0074752900
   0.0096773000    0.0168807500   -0.0073754800
   0.0069471900   -0.0029177300    0.0002860900
   0.0069497700   -0.0029193700    0.0002127200
   0.0069520300   -0.0029234800    0.0002139200
   0.0069448500   -0.0029253200    0.0002131000
  -0.0059058300    0.0031181800   -0.0000480300
  -0.0056449900    0.0031401600    0.0000562600
  -0.0057949700    0.0029019800   -0.0000033500
  -0.0057671900    0.0030522100   -0.0001405300
  -0.0057334400    0.0027120500   -0.0000549600
  -0.0059926200    0.0027230700   -0.0001220100
  -0.0058717100    0.0029381200   -0.0000979900
  -0.0058408500    0.0027956800   -0.0002279700

17   
 -0.0032980792850203   0.0000001486515502  -0.0094404805496131
  -0.0294436400    0.0036848900   -0.0471356700
  -0.0032901700    0.0030562200   -0.0112204600
  -0.0730207500    0.0282613900   -0.0466964200
  -0.0727798900   -0.0219153200   -0.0475341300
  -0.0022050300    0.0030579000    0.0009217900
  -0.0022015000    0.0030546200    0.0009303400
  -0.0022006100    0.0030548000    0.0009234800
  -0.0022045300    0.0030587800    0.0009198300
   0.0054723800   -0.0031771600   -0.0012116300
   0.0053793000   -0.0032076000   -0.0007903800
   0.0054650100   -0.0031998500   -0.0011717100
   0.0054002900   -0.0032473400   -0.0012520000
   0.0058098100   -0.0031135800   -0.0012144200
   0.0056829700   -0.0030810900   -0.0007867900
   0.0057056300   -0.0030242800   -0.0012549400
   0.0057653300   -0.0031106400   -0.0011744400
   0.2057749400   -0.0038326500    0.1358233300
  -0.0327050300   -0.0028960000    0.0074266200
   0.0013959200    0.0167909800    0.0073675100
   0.0014914700   -0.0226474300    0.0075029800
   0.0019348000   -0.0028833700   -0.0001895900
   0.0019422400   -0.0028836200   -0.0001169800
   0.0019407900   -0.0028867500   -0.0001168200
   0.0019384900   -0.0028848300   -0.0001169100
  -0.0049038300    0.0029594300    0.0000011100
  -0.0051598000    0.0029447100   -0.0000628500
  -0.0050203300    0.0031697700   -0.0000278000
  -0.0050585000    0.0030276300    0.0001049300
  -0.0053583400    0.0030543900   -0.0000533000
  -0.0051006300    0.0030318400    0.0000551100
  -0.0052102700    0.0028185900    0.0000049200
  -0.0052365000    0.0029656000    0.0001452900
