       N       E                     dE             d eps       ncg     rms          rms(c)
DAV:   1     0.576692833591E+02    0.57669E+02   -0.89953E+03 10968   0.137E+03
DAV:   2    -0.348512371343E+02   -0.92521E+02   -0.85304E+02 15308   0.245E+02
DAV:   3    -0.391963361050E+02   -0.43451E+01   -0.43074E+01 13956   0.535E+01
DAV:   4    -0.392569409245E+02   -0.60605E-01   -0.60482E-01 13544   0.717E+00
DAV:   5    -0.392583859074E+02   -0.14450E-02   -0.14442E-02 13584   0.105E+00    0.781E+00
DAV:   6    -0.374324166065E+02    0.18260E+01   -0.18050E+00 12656   0.937E+00    0.410E+00
DAV:   7    -0.368477152963E+02    0.58470E+00   -0.19006E+00 13096   0.970E+00    0.691E-01
DAV:   8    -0.368570343278E+02   -0.93190E-02   -0.52951E-02 12536   0.158E+00    0.905E-02
DAV:   9    -0.368572523480E+02   -0.21802E-03   -0.13343E-03 13824   0.305E-01    0.400E-02
DAV:  10    -0.368574190099E+02   -0.16666E-03   -0.19094E-04 13324   0.121E-01    0.597E-03
DAV:  11    -0.368574210636E+02   -0.20537E-05   -0.38149E-06 13904   0.165E-02    0.191E-03
DAV:  12    -0.368574214246E+02   -0.36103E-06   -0.77133E-07  9772   0.752E-03
   1 F= -.37455515E+02 E0= -.37455515E+02  d E =-.374555E+02
