# Thermal properties / unit cell (natom)

unit:
  temperature:   K
  free_energy:   kJ/mol
  entropy:       J/K/mol
  heat_capacity: J/K/mol

natom:     4
num_modes: 3888
num_integrated_modes: 3874

zero_point_energy:      65.9180307
high_T_entropy:        229.6654507

thermal_properties:
- temperature:         0.0000000
  free_energy:        65.9180307
  entropy:             0.0000000
  heat_capacity:       0.0000000
  energy:             65.9180307

- temperature:        10.0000000
  free_energy:        65.9179866
  entropy:             0.0165542
  heat_capacity:       0.0365395
  energy:             65.9181521

- temperature:        20.0000000
  free_energy:        65.9176153
  entropy:             0.0598214
  heat_capacity:       0.0997882
  energy:             65.9188117

- temperature:        30.0000000
  free_energy:        65.9167339
  entropy:             0.1205769
  heat_capacity:       0.2241778
  energy:             65.9203512

- temperature:        40.0000000
  free_energy:        65.9150907
  entropy:             0.2150593
  heat_capacity:       0.4661833
  energy:             65.9236931

- temperature:        50.0000000
  free_energy:        65.9122739
  entropy:             0.3569633
  heat_capacity:       0.8418593
  energy:             65.9301220

- temperature:        60.0000000
  free_energy:        65.9077694
  entropy:             0.5533815
  heat_capacity:       1.3502819
  energy:             65.9409723

- temperature:        70.0000000
  free_energy:        65.9010121
  entropy:             0.8080087
  heat_capacity:       1.9922329
  energy:             65.9575727

- temperature:        80.0000000
  free_energy:        65.8914071
  entropy:             1.1232498
  heat_capacity:       2.7690864
  energy:             65.9812671

- temperature:        90.0000000
  free_energy:        65.8783398
  entropy:             1.5006374
  heat_capacity:       3.6786024
  energy:             66.0133972

- temperature:       100.0000000
  free_energy:        65.8611852
  entropy:             1.9407306
  heat_capacity:       4.7137230
  energy:             66.0552583

- temperature:       110.0000000
  free_energy:        65.8393177
  entropy:             2.4430538
  heat_capacity:       5.8633338
  energy:             66.1080536

- temperature:       120.0000000
  free_energy:        65.8121214
  entropy:             3.0061591
  heat_capacity:       7.1135726
  energy:             66.1728605

- temperature:       130.0000000
  free_energy:        65.7789994
  entropy:             3.6277695
  heat_capacity:       8.4491191
  energy:             66.2506094

- temperature:       140.0000000
  free_energy:        65.7393807
  entropy:             4.3049593
  heat_capacity:       9.8543229
  energy:             66.3420750

- temperature:       150.0000000
  free_energy:        65.6927262
  entropy:             5.0343435
  heat_capacity:      11.3141180
  energy:             66.4478777

- temperature:       160.0000000
  free_energy:        65.6385321
  entropy:             5.8122566
  heat_capacity:      12.8146913
  energy:             66.5684931

- temperature:       170.0000000
  free_energy:        65.5763319
  entropy:             6.6349108
  heat_capacity:      14.3438964
  energy:             66.7042668

- temperature:       180.0000000
  free_energy:        65.5056973
  entropy:             7.4985257
  heat_capacity:      15.8914347
  energy:             66.8554320

- temperature:       190.0000000
  free_energy:        65.4262371
  entropy:             8.3994265
  heat_capacity:      17.4488466
  energy:             67.0221282

- temperature:       200.0000000
  free_energy:        65.3375962
  entropy:             9.3341145
  heat_capacity:      19.0093706
  energy:             67.2044191

- temperature:       210.0000000
  free_energy:        65.2394532
  entropy:            10.2993097
  heat_capacity:      20.5677240
  energy:             67.4023082

- temperature:       220.0000000
  free_energy:        65.1315185
  entropy:            11.2919738
  heat_capacity:      22.1198499
  energy:             67.6157527

- temperature:       230.0000000
  free_energy:        65.0135315
  entropy:            12.3093158
  heat_capacity:      23.6626652
  energy:             67.8446741

- temperature:       240.0000000
  free_energy:        64.8852584
  entropy:            13.3487862
  heat_capacity:      25.1938294
  energy:             68.0889671

- temperature:       250.0000000
  free_energy:        64.7464898
  entropy:            14.4080643
  heat_capacity:      26.7115482
  energy:             68.3485058

- temperature:       260.0000000
  free_energy:        64.5970382
  entropy:            15.4850399
  heat_capacity:      28.2144130
  energy:             68.6231485

- temperature:       270.0000000
  free_energy:        64.4367364
  entropy:            16.5777939
  heat_capacity:      29.7012780
  energy:             68.9127408

- temperature:       280.0000000
  free_energy:        64.2654355
  entropy:            17.6845785
  heat_capacity:      31.1711699
  energy:             69.2171175

- temperature:       290.0000000
  free_energy:        64.0830034
  entropy:            18.8037976
  heat_capacity:      32.6232251
  energy:             69.5361047

- temperature:       300.0000000
  free_energy:        63.8893230
  entropy:            19.9339896
  heat_capacity:      34.0566491
  energy:             69.8695199

- temperature:       310.0000000
  free_energy:        63.6842915
  entropy:            21.0738115
  heat_capacity:      35.4706926
  energy:             70.2171731

- temperature:       320.0000000
  free_energy:        63.4678188
  entropy:            22.2220248
  heat_capacity:      36.8646404
  energy:             70.5788668

- temperature:       330.0000000
  free_energy:        63.2398269
  entropy:            23.3774840
  heat_capacity:      38.2378075
  energy:             70.9543966

- temperature:       340.0000000
  free_energy:        63.0002485
  entropy:            24.5391263
  heat_capacity:      39.5895417
  energy:             71.3435515

- temperature:       350.0000000
  free_energy:        62.7490270
  entropy:            25.7059626
  heat_capacity:      40.9192283
  energy:             71.7461139

- temperature:       360.0000000
  free_energy:        62.4861151
  entropy:            26.8770710
  heat_capacity:      42.2262967
  energy:             72.1618606

- temperature:       370.0000000
  free_energy:        62.2114742
  entropy:            28.0515905
  heat_capacity:      43.5102267
  energy:             72.5905627

- temperature:       380.0000000
  free_energy:        61.9250746
  entropy:            29.2287156
  heat_capacity:      44.7705545
  energy:             73.0319865

- temperature:       390.0000000
  free_energy:        61.6268938
  entropy:            30.4076924
  heat_capacity:      46.0068773
  energy:             73.4858938

- temperature:       400.0000000
  free_energy:        61.3169169
  entropy:            31.5878149
  heat_capacity:      47.2188564
  energy:             73.9520429

- temperature:       410.0000000
  free_energy:        60.9951359
  entropy:            32.7684220
  heat_capacity:      48.4062197
  energy:             74.4301889

- temperature:       420.0000000
  free_energy:        60.6615489
  entropy:            33.9488943
  heat_capacity:      49.5687621
  energy:             74.9200845

- temperature:       430.0000000
  free_energy:        60.3161604
  entropy:            35.1286524
  heat_capacity:      50.7063453
  energy:             75.4214809

- temperature:       440.0000000
  free_energy:        59.9589801
  entropy:            36.3071544
  heat_capacity:      51.8188958
  energy:             75.9341280

- temperature:       450.0000000
  free_energy:        59.5900231
  entropy:            37.4838937
  heat_capacity:      52.9064029
  energy:             76.4577753

- temperature:       460.0000000
  free_energy:        59.2093096
  entropy:            38.6583980
  heat_capacity:      53.9689157
  energy:             76.9921727

- temperature:       470.0000000
  free_energy:        58.8168641
  entropy:            39.8302267
  heat_capacity:      55.0065390
  energy:             77.5370707

- temperature:       480.0000000
  free_energy:        58.4127154
  entropy:            40.9989701
  heat_capacity:      56.0194298
  energy:             78.0922211

- temperature:       490.0000000
  free_energy:        57.9968963
  entropy:            42.1642474
  heat_capacity:      57.0077932
  energy:             78.6573775

- temperature:       500.0000000
  free_energy:        57.5694432
  entropy:            43.3257056
  heat_capacity:      57.9718775
  energy:             79.2322960

- temperature:       510.0000000
  free_energy:        57.1303960
  entropy:            44.4830179
  heat_capacity:      58.9119704
  energy:             79.8167351

- temperature:       520.0000000
  free_energy:        56.6797976
  entropy:            45.6358824
  heat_capacity:      59.8283945
  energy:             80.4104565

- temperature:       530.0000000
  free_energy:        56.2176941
  entropy:            46.7840211
  heat_capacity:      60.7215034
  energy:             81.0132253

- temperature:       540.0000000
  free_energy:        55.7441338
  entropy:            47.9271783
  heat_capacity:      61.5916771
  energy:             81.6248101

- temperature:       550.0000000
  free_energy:        55.2591679
  entropy:            49.0651196
  heat_capacity:      62.4393190
  energy:             82.2449837

- temperature:       560.0000000
  free_energy:        54.7628495
  entropy:            50.1976308
  heat_capacity:      63.2648515
  energy:             82.8735228

- temperature:       570.0000000
  free_energy:        54.2552340
  entropy:            51.3245166
  heat_capacity:      64.0687134
  energy:             83.5102085

- temperature:       580.0000000
  free_energy:        53.7363786
  entropy:            52.4455996
  heat_capacity:      64.8513563
  energy:             84.1548263

- temperature:       590.0000000
  free_energy:        53.2063419
  entropy:            53.5607195
  heat_capacity:      65.6132420
  energy:             84.8071664

- temperature:       600.0000000
  free_energy:        52.6651845
  entropy:            54.6697317
  heat_capacity:      66.3548399
  energy:             85.4670235

- temperature:       610.0000000
  free_energy:        52.1129681
  entropy:            55.7725067
  heat_capacity:      67.0766242
  energy:             86.1341972

- temperature:       620.0000000
  free_energy:        51.5497556
  entropy:            56.8689290
  heat_capacity:      67.7790727
  energy:             86.8084916

- temperature:       630.0000000
  free_energy:        50.9756110
  entropy:            57.9588964
  heat_capacity:      68.4626638
  energy:             87.4897158

- temperature:       640.0000000
  free_energy:        50.3905995
  entropy:            59.0423189
  heat_capacity:      69.1278755
  energy:             88.1776836

- temperature:       650.0000000
  free_energy:        49.7947867
  entropy:            60.1191183
  heat_capacity:      69.7751839
  energy:             88.8722136

- temperature:       660.0000000
  free_energy:        49.1882394
  entropy:            61.1892269
  heat_capacity:      70.4050613
  energy:             89.5731292

- temperature:       670.0000000
  free_energy:        48.5710247
  entropy:            62.2525875
  heat_capacity:      71.0179756
  energy:             90.2802583

- temperature:       680.0000000
  free_energy:        47.9432103
  entropy:            63.3091520
  heat_capacity:      71.6143891
  energy:             90.9934337

- temperature:       690.0000000
  free_energy:        47.3048644
  entropy:            64.3588814
  heat_capacity:      72.1947575
  energy:             91.7124926

- temperature:       700.0000000
  free_energy:        46.6560556
  entropy:            65.4017447
  heat_capacity:      72.7595293
  energy:             92.4372768

- temperature:       710.0000000
  free_energy:        45.9968525
  entropy:            66.4377185
  heat_capacity:      73.3091452
  energy:             93.1676326

- temperature:       720.0000000
  free_energy:        45.3273242
  entropy:            67.4667867
  heat_capacity:      73.8440374
  energy:             93.9034107

- temperature:       730.0000000
  free_energy:        44.6475398
  entropy:            68.4889396
  heat_capacity:      74.3646295
  energy:             94.6444657

- temperature:       740.0000000
  free_energy:        43.9575685
  entropy:            69.5041736
  heat_capacity:      74.8713357
  energy:             95.3906570

- temperature:       750.0000000
  free_energy:        43.2574794
  entropy:            70.5124908
  heat_capacity:      75.3645610
  energy:             96.1418475

- temperature:       760.0000000
  free_energy:        42.5473417
  entropy:            71.5138985
  heat_capacity:      75.8447008
  energy:             96.8979046

- temperature:       770.0000000
  free_energy:        41.8272244
  entropy:            72.5084088
  heat_capacity:      76.3121405
  energy:             97.6586992

- temperature:       780.0000000
  free_energy:        41.0971965
  entropy:            73.4960382
  heat_capacity:      76.7672560
  energy:             98.4241063

- temperature:       790.0000000
  free_energy:        40.3573265
  entropy:            74.4768075
  heat_capacity:      77.2104132
  energy:             99.1940045

- temperature:       800.0000000
  free_energy:        39.6076831
  entropy:            75.4507410
  heat_capacity:      77.6419681
  energy:             99.9682759

- temperature:       810.0000000
  free_energy:        38.8483344
  entropy:            76.4178665
  heat_capacity:      78.0622670
  energy:            100.7468063

- temperature:       820.0000000
  free_energy:        38.0793484
  entropy:            77.3782152
  heat_capacity:      78.4716465
  energy:            101.5294848

- temperature:       830.0000000
  free_energy:        37.3007926
  entropy:            78.3318209
  heat_capacity:      78.8704334
  energy:            102.3162039

- temperature:       840.0000000
  free_energy:        36.5127343
  entropy:            79.2787202
  heat_capacity:      79.2589451
  energy:            103.1068592

- temperature:       850.0000000
  free_energy:        35.7152404
  entropy:            80.2189520
  heat_capacity:      79.6374897
  energy:            103.9013496

- temperature:       860.0000000
  free_energy:        34.9083773
  entropy:            81.1525575
  heat_capacity:      80.0063660
  energy:            104.6995768

- temperature:       870.0000000
  free_energy:        34.0922112
  entropy:            82.0795799
  heat_capacity:      80.3658638
  energy:            105.5014457

- temperature:       880.0000000
  free_energy:        33.2668075
  entropy:            83.0000639
  heat_capacity:      80.7162641
  energy:            106.3068638

- temperature:       890.0000000
  free_energy:        32.4322315
  entropy:            83.9140562
  heat_capacity:      81.0578391
  energy:            107.1157415

- temperature:       900.0000000
  free_energy:        31.5885479
  entropy:            84.8216046
  heat_capacity:      81.3908527
  energy:            107.9279920

- temperature:       910.0000000
  free_energy:        30.7358208
  entropy:            85.7227584
  heat_capacity:      81.7155605
  energy:            108.7435309

- temperature:       920.0000000
  free_energy:        29.8741139
  entropy:            86.6175679
  heat_capacity:      82.0322100
  energy:            109.5622764

- temperature:       930.0000000
  free_energy:        29.0034904
  entropy:            87.5060846
  heat_capacity:      82.3410410
  energy:            110.3841490

- temperature:       940.0000000
  free_energy:        28.1240130
  entropy:            88.3883605
  heat_capacity:      82.6422855
  energy:            111.2090719

- temperature:       950.0000000
  free_energy:        27.2357438
  entropy:            89.2644488
  heat_capacity:      82.9361682
  energy:            112.0369702

- temperature:       960.0000000
  free_energy:        26.3387445
  entropy:            90.1344031
  heat_capacity:      83.2229066
  energy:            112.8677714

- temperature:       970.0000000
  free_energy:        25.4330760
  entropy:            90.9982775
  heat_capacity:      83.5027112
  energy:            113.7014052

- temperature:       980.0000000
  free_energy:        24.5187990
  entropy:            91.8561268
  heat_capacity:      83.7757858
  energy:            114.5378032

- temperature:       990.0000000
  free_energy:        23.5959734
  entropy:            92.7080058
  heat_capacity:      84.0423274
  energy:            115.3768992

- temperature:      1000.0000000
  free_energy:        22.6646586
  entropy:            93.5539701
  heat_capacity:      84.3025269
  energy:            116.2186286
