   32   32    1    1
  0.7976710E+01  0.4934311E-09  0.4934311E-09  0.1210634E-08  0.5000000E-15
  1.000000000000000E-004
  CAR 
 graphite                                
    128    163     84
 
  0.0000000E+00  0.0000000E+00  0.0000000E+00  0.3086420E-02
    1      -14.152110
    2      -13.854902
    3      -13.854032
    4      -13.515930
    5       -8.753354
    6       -8.750886
    7       -8.748318
    8       -8.607858
    9       -8.603951
   10       -8.603561
   11       -8.603076
   12       -8.603052
   13       -8.599014
   14       -8.510182
   15       -8.509109
   16       -8.507522
   17       -7.601235
   18       -7.598126
   19       -7.596704
   20       -7.561126
   21       -7.557147
   22       -7.555910
   23       -7.555697
   24       -7.555680
   25       -7.551324
   26       -7.425657
   27       -7.422397
   28       -7.419648
   29       -3.380375
   30       -1.959455
   31       -1.956945
   32       -0.792942
   33       -0.790317
   34       -0.786058
   35       -0.724310
   36       -0.720058
   37       -0.720033
   38       -0.719530
   39       -0.716918
   40       -0.713341
   41       -0.649961
   42       -0.647568
   43       -0.643033
   44       -0.167848
   45        2.510327
   46        2.512419
   47        2.514975
   48        2.624998
   49        2.636657
   50        2.649135
   51        2.655307
   52        2.660060
   53        2.666441
   54        2.678454
   55        2.690407
   56        3.270378
   57        3.274202
   58        3.274485
   59        3.274593
   60        3.274934
   61        3.278715
   62        3.624501
   63        3.625331
   64        3.626099
   65        7.254557
   66        7.262907
   67        7.263834
   68        7.264663
   69        7.265271
   70        7.271688
   71        7.284777
   72        7.287512
   73        7.289870
   74        8.161483
   75        8.166282
   76        8.169573
   77       11.034996
   78       12.621637
   79       12.625566
   80       12.630148
   81       13.009213
   82       13.011127
   83       13.012060
   84       13.016169
 
  0.1111111E+00 -0.1387779E-16  0.0000000E+00  0.6172840E-02
    1      -14.077879
    2      -13.781791
    3      -13.780925
    4      -13.444124
    5       -9.580817
    6       -9.358630
    7       -9.357886
    8       -9.117566
    9       -9.023127
   10       -9.020600
   11       -8.827236
   12       -8.825420
   13       -8.824679
   14       -8.822212
   15       -8.629381
   16       -8.626976
   17       -7.363787
   18       -7.360446
   19       -7.219155
   20       -7.215902
   21       -7.214424
   22       -7.213829
   23       -7.032612
   24       -7.029450
   25       -6.867235
   26       -6.692862
   27       -6.690655
   28       -6.495187
   29       -3.290112
   30       -1.873036
   31       -1.870532
   32       -1.021976
   33       -1.017139
   34       -0.945237
   35       -0.944381
   36       -0.941329
   37       -0.937889
   38       -0.865458
   39       -0.860361
   40       -0.719571
   41       -0.650695
   42       -0.647863
   43       -0.577474
   44       -0.086520
   45        1.867919
   46        2.327687
   47        2.360155
   48        2.364661
   49        2.376215
   50        2.379747
   51        2.398615
   52        2.464883
   53        2.494856
   54        2.500047
   55        2.530004
   56        2.847711
   57        2.850094
   58        3.221629
   59        3.222705
   60        3.222942
   61        3.226844
   62        3.707673
   63        3.750859
   64        3.752221
   65        7.286024
   66        7.289959
   67        7.386776
   68        7.393845
   69        7.394777
   70        7.397810
   71        7.432993
   72        7.802167
   73        7.807667
   74        8.298093
   75        8.302858
   76        8.808107
   77       11.117832
   78       12.667652
   79       12.960247
   80       12.966834
   81       13.049204
   82       13.050882
   83       13.343611
   84       13.350582
 
  0.2222222E+00 -0.1387779E-16  0.0000000E+00  0.6172840E-02
    1      -13.855547
    2      -13.562709
    3      -13.561853
    4      -13.229320
    5      -10.602639
    6      -10.358489
    7      -10.357771
    8      -10.088226
    9       -9.381610
   10       -9.379471
   11       -9.163698
   12       -9.161863
   13       -9.161315
   14       -9.159352
   15       -8.926128
   16       -8.923952
   17       -6.699330
   18       -6.696058
   19       -6.529975
   20       -6.527033
   21       -6.525436
   22       -6.524815
   23       -6.337938
   24       -6.334787
   25       -5.540109
   26       -5.371988
   27       -5.369950
   28       -5.188694
   29       -3.020792
   30       -1.638202
   31       -1.633718
   32       -1.614560
   33       -1.612072
   34       -1.546624
   35       -1.546011
   36       -1.543093
   37       -1.539756
   38       -1.449955
   39       -1.445230
   40       -0.504127
   41       -0.436503
   42       -0.433505
   43       -0.364579
   44        0.156041
   45        0.802000
   46        1.487978
   47        1.540477
   48        1.545249
   49        1.598481
   50        1.963599
   51        1.965681
   52        2.037969
   53        2.078632
   54        2.084586
   55        2.121821
   56        2.125696
   57        2.129331
   58        3.100366
   59        3.101491
   60        3.101896
   61        3.105818
   62        3.280465
   63        3.963036
   64        3.965084
   65        7.381481
   66        7.385850
   67        7.720235
   68        7.726796
   69        7.727660
   70        7.730283
   71        8.376599
   72        8.582083
   73        8.585929
   74        9.018738
   75        9.023237
   76       10.010370
   77       11.367591
   78       12.795497
   79       13.166222
   80       13.168036
   81       13.535924
   82       13.888893
   83       13.912956
   84       13.950637
 
  0.3333333E+00 -0.2775558E-16  0.0000000E+00  0.6172840E-02
    1      -13.486314
    2      -13.198852
    3      -13.198012
    4      -12.872554
    5      -11.523033
    6      -11.264349
    7      -11.263589
    8      -10.975340
    9       -9.642986
   10       -9.641017
   11       -9.416602
   12       -9.414704
   13       -9.414357
   14       -9.412532
   15       -9.166892
   16       -9.164869
   17       -5.886241
   18       -5.882908
   19       -5.727362
   20       -5.724167
   21       -5.722520
   22       -5.722055
   23       -5.552662
   24       -5.549475
   25       -4.095834
   26       -3.947413
   27       -3.945181
   28       -3.786599
   29       -2.574642
   30       -2.461067
   31       -2.457201
   32       -2.357213
   33       -2.356943
   34       -2.354552
   35       -2.351149
   36       -2.244854
   37       -2.240679
   38       -1.187522
   39       -1.185041
   40       -0.243405
   41       -0.154554
   42       -0.088993
   43       -0.085734
   44       -0.019120
   45        0.286827
   46        0.364054
   47        0.368066
   48        0.446058
   49        0.555156
   50        1.015614
   51        1.017753
   52        1.470433
   53        1.521033
   54        1.525671
   55        1.577104
   56        1.908905
   57        1.910971
   58        2.537516
   59        2.976272
   60        2.977508
   61        2.978003
   62        2.981975
   63        4.104722
   64        4.107168
   65        7.612637
   66        7.616765
   67        8.110107
   68        8.115923
   69        8.116642
   70        8.118373
   71        8.830088
   72        8.833181
   73        9.842628
   74       10.488389
   75       10.492226
   76       11.369256
   77       11.784237
   78       12.989938
   79       13.351407
   80       13.353408
   81       13.599957
   82       13.815517
   83       13.863869
   84       13.868794
 
  0.4444444E+00 -0.2775558E-16  0.0000000E+00  0.6172840E-02
    1      -12.972007
    2      -12.692050
    3      -12.691229
    4      -12.375577
    5      -12.315768
    6      -12.045442
    7      -12.044649
    8      -11.741376
    9       -9.777201
   10       -9.775308
   11       -9.547697
   12       -9.545725
   13       -9.545562
   14       -9.543739
   15       -9.293642
   16       -9.291691
   17       -5.116756
   18       -5.113781
   19       -4.998311
   20       -4.994078
   21       -4.993454
   22       -4.992839
   23       -4.877612
   24       -4.875106
   25       -3.193411
   26       -3.191239
   27       -3.115334
   28       -3.114115
   29       -3.113866
   30       -3.109960
   31       -3.013263
   32       -3.010351
   33       -2.602047
   34       -2.476523
   35       -2.473865
   36       -2.340931
   37       -1.956163
   38       -1.174170
   39       -1.114996
   40       -1.016444
   41       -1.013092
   42       -0.904646
   43       -0.593488
   44       -0.591370
   45        0.145497
   46        0.147730
   47        0.312742
   48        0.375168
   49        0.378818
   50        0.442275
   51        0.870099
   52        0.927912
   53        0.931848
   54        0.990535
   55        1.101350
   56        1.775694
   57        1.791520
   58        1.793614
   59        2.901627
   60        2.902961
   61        2.903488
   62        2.907482
   63        4.161891
   64        4.164473
   65        7.835259
   66        7.838539
   67        8.375958
   68        8.381314
   69        8.381665
   70        8.382290
   71        8.945229
   72        8.947982
   73       11.482438
   74       12.013632
   75       12.017084
   76       12.358679
   77       12.762086
   78       13.012276
   79       13.114520
   80       13.355373
   81       13.367618
   82       13.372981
   83       13.578188
   84       13.595262
 
 -0.8470329E-21  0.1111111E+00  0.0000000E+00  0.6172840E-02
    1      -14.077881
    2      -13.781793
    3      -13.780926
    4      -13.444126
    5       -9.580740
    6       -9.358498
    7       -9.357826
    8       -9.117463
    9       -9.023297
   10       -9.020680
   11       -8.827605
   12       -8.825422
   13       -8.824674
   14       -8.822529
   15       -8.629472
   16       -8.627330
   17       -7.363890
   18       -7.358987
   19       -7.219528
   20       -7.215902
   21       -7.214390
   22       -7.210891
   23       -7.032864
   24       -7.027935
   25       -6.868301
   26       -6.693070
   27       -6.692534
   28       -6.496220
   29       -3.290108
   30       -1.873030
   31       -1.870526
   32       -1.023155
   33       -1.017347
   34       -0.947293
   35       -0.944381
   36       -0.941328
   37       -0.938633
   38       -0.866557
   39       -0.860702
   40       -0.718083
   41       -0.647972
   42       -0.647734
   43       -0.576101
   44       -0.086512
   45        1.868811
   46        2.325006
   47        2.358582
   48        2.360167
   49        2.375685
   50        2.379061
   51        2.394710
   52        2.468669
   53        2.500034
   54        2.501124
   55        2.532694
   56        2.849370
   57        2.850541
   58        3.219754
   59        3.222731
   60        3.222934
   61        3.225988
   62        3.708826
   63        3.750246
   64        3.751866
   65        7.286113
   66        7.291550
   67        7.387571
   68        7.393755
   69        7.395237
   70        7.401275
   71        7.431012
   72        7.800992
   73        7.804971
   74        8.298292
   75        8.305056
   76        8.806251
   77       11.117844
   78       12.668185
   79       12.960299
   80       12.966105
   81       13.050106
   82       13.051106
   83       13.344072
   84       13.347489
 
  0.1111111E+00  0.1111111E+00  0.0000000E+00  0.6172840E-02
    1      -13.929586
    2      -13.635673
    3      -13.634813
    4      -13.300832
    5      -10.051231
    6      -10.047985
    7       -9.818569
    8       -9.815183
    9       -9.815150
   10       -9.811952
   11       -9.559797
   12       -9.556487
   13       -8.559983
   14       -8.416010
   15       -8.414384
   16       -8.321839
   17       -7.416387
   18       -7.378089
   19       -7.374623
   20       -7.248205
   21       -6.186946
   22       -6.183523
   23       -6.013918
   24       -6.011294
   25       -6.011269
   26       -6.006821
   27       -5.822625
   28       -5.818985
   29       -3.110318
   30       -1.710103
   31       -1.700545
   32       -1.698051
   33       -1.618264
   34       -1.615782
   35       -1.519941
   36       -0.877795
   37       -0.874785
   38       -0.803622
   39       -0.799381
   40       -0.799357
   41       -0.797811
   42       -0.723187
   43       -0.720380
   44        0.075445
   45        1.406751
   46        1.409140
   47        1.794910
   48        1.828950
   49        1.834215
   50        1.862983
   51        2.157551
   52        2.180392
   53        2.185862
   54        2.214488
   55        2.490020
   56        2.493580
   57        2.493884
   58        2.495795
   59        2.779371
   60        3.539028
   61        3.541899
   62        3.623954
   63        3.626348
   64        3.879160
   65        7.184473
   66        7.190641
   67        7.296184
   68        7.794592
   69        7.797188
   70        7.906664
   71        8.340196
   72        8.342383
   73        8.343054
   74        8.348626
   75        9.318243
   76        9.321216
   77       11.284525
   78       13.045814
   79       13.050176
   80       13.419746
   81       13.424983
   82       13.425051
   83       13.428640
   84       13.823187
 
  0.2222222E+00  0.1111111E+00  0.0000000E+00  0.6172840E-02
    1      -13.633809
    2      -13.344177
    3      -13.343330
    4      -13.014987
    5      -11.024986
    6      -10.774108
    7      -10.773370
    8      -10.495135
    9      -10.394453
   10      -10.153826
   11      -10.153110
   12       -9.887719
   13       -8.632789
   14       -8.442931
   15       -8.441957
   16       -8.252638
   17       -7.012639
   18       -6.876795
   19       -6.873859
   20       -6.703228
   21       -5.396623
   22       -5.234572
   23       -5.233929
   24       -5.060071
   25       -4.794593
   26       -4.637586
   27       -4.635527
   28       -4.467152
   29       -2.752496
   30       -2.626828
   31       -2.519016
   32       -2.516569
   33       -2.401173
   34       -1.410583
   35       -1.357693
   36       -1.355209
   37       -1.321845
   38       -1.321348
   39       -1.228451
   40       -0.589502
   41       -0.516972
   42       -0.514060
   43       -0.439423
   44        0.332326
   45        0.396449
   46        0.829098
   47        0.883336
   48        0.888696
   49        0.940011
   50        1.056153
   51        1.546305
   52        1.548379
   53        1.602775
   54        1.639528
   55        1.645305
   56        1.686276
   57        2.207509
   58        2.209258
   59        2.894911
   60        2.980967
   61        3.515366
   62        3.739782
   63        3.742589
   64        4.261551
   65        7.175737
   66        7.193676
   67        7.198538
   68        7.822062
   69        8.306341
   70        8.908322
   71        8.911441
   72        9.053821
   73        9.705807
   74        9.709535
   75        9.744777
   76       10.605857
   77       11.619853
   78       13.211355
   79       13.575089
   80       13.576897
   81       13.898683
   82       14.016755
   83       14.117606
   84       14.120602
 
  0.3333333E+00  0.1111111E+00  0.0000000E+00  0.6172840E-02
    1      -13.192021
    2      -12.908823
    3      -12.907994
    4      -12.588119
    5      -11.882233
    6      -11.618225
    7      -11.617451
    8      -11.322466
    9      -10.604447
   10      -10.360131
   11      -10.359398
   12      -10.089465
   13       -8.786866
   14       -8.578712
   15       -8.578043
   16       -8.354472
   17       -6.256204
   18       -6.110246
   19       -6.107472
   20       -5.949759
   21       -4.583916
   22       -4.447610
   23       -4.446337
   24       -4.304400
   25       -3.561426
   26       -3.454876
   27       -3.452267
   28       -3.332934
   29       -3.329529
   30       -3.197682
   31       -3.195407
   32       -3.052299
   33       -2.220008
   34       -2.110729
   35       -2.020107
   36       -2.018752
   37       -1.917948
   38       -0.850507
   39       -0.847930
   40       -0.660947
   41       -0.434835
   42       -0.349784
   43       -0.345460
   44       -0.263859
   45       -0.171287
   46       -0.102451
   47       -0.099346
   48       -0.028371
   49        0.628251
   50        0.630420
   51        0.837166
   52        0.869711
   53        0.968432
   54        1.020891
   55        1.025726
   56        1.080915
   57        2.025307
   58        2.027209
   59        2.207063
   60        2.864653
   61        3.426459
   62        3.828313
   63        3.830708
   64        4.703929
   65        6.940360
   66        7.312328
   67        7.316455
   68        7.930663
   69        8.798709
   70        9.361004
   71        9.363532
   72        9.987386
   73       10.616358
   74       11.202596
   75       11.205834
   76       11.967650
   77       12.121642
   78       13.366910
   79       13.662859
   80       13.771773
   81       13.783222
   82       13.785223
   83       13.851652
   84       13.858751
 
  0.4444444E+00  0.1111111E+00  0.0000000E+00  0.6172840E-02
    1      -12.608352
    2      -12.605342
    3      -12.334871
    4      -12.331814
    5      -12.331692
    6      -12.328668
    7      -12.024155
    8      -12.021050
    9      -10.674745
   10      -10.429524
   11      -10.428784
   12      -10.157309
   13       -8.844832
   14       -8.633109
   15       -8.632482
   16       -8.403066
   17       -5.726520
   18       -5.626420
   19       -5.623825
   20       -5.535886
   21       -4.080881
   22       -4.039128
   23       -3.995803
   24       -3.993738
   25       -3.992360
   26       -3.990848
   27       -3.917815
   28       -3.908311
   29       -2.500812
   30       -2.455586
   31       -2.452215
   32       -2.379936
   33       -1.857651
   34       -1.854514
   35       -1.747091
   36       -1.746613
   37       -1.746565
   38       -1.740342
   39       -1.630176
   40       -1.626573
   41       -1.520132
   42       -1.517683
   43       -0.182904
   44       -0.179224
   45       -0.178713
   46       -0.175868
   47        0.355513
   48        0.361485
   49        0.416552
   50        0.425265
   51        0.425323
   52        0.426745
   53        0.487945
   54        0.492517
   55        0.763476
   56        1.480789
   57        1.483605
   58        1.962882
   59        1.964905
   60        2.841631
   61        3.393143
   62        3.849867
   63        3.851735
   64        4.902453
   65        6.828697
   66        7.380153
   67        7.382871
   68        7.984972
   69        9.020570
   70        9.537884
   71        9.540442
   72       10.045472
   73       12.238667
   74       12.241915
   75       12.676521
   76       12.680377
   77       12.681985
   78       12.686420
   79       12.774277
   80       12.778098
   81       13.319843
   82       13.323728
   83       13.753762
   84       13.757374
 
 -0.4444444E+00  0.1111111E+00  0.0000000E+00  0.6172840E-02
    1      -13.192130
    2      -12.908935
    3      -12.908106
    4      -12.588230
    5      -11.882064
    6      -11.618055
    7      -11.617279
    8      -11.322293
    9      -10.604674
   10      -10.360356
   11      -10.359619
   12      -10.089685
   13       -8.786742
   14       -8.578584
   15       -8.577971
   16       -8.354406
   17       -6.253545
   18       -6.106856
   19       -6.105911
   20       -5.947481
   21       -4.586649
   22       -4.451001
   23       -4.448136
   24       -4.306830
   25       -3.564159
   26       -3.456892
   27       -3.456073
   28       -3.333889
   29       -3.331609
   30       -3.197820
   31       -3.195154
   32       -3.052191
   33       -2.220041
   34       -2.107681
   35       -2.017804
   36       -2.014521
   37       -1.914496
   38       -0.850525
   39       -0.847955
   40       -0.660909
   41       -0.435873
   42       -0.350274
   43       -0.347534
   44       -0.265456
   45       -0.171473
   46       -0.102786
   47       -0.099248
   48       -0.028430
   49        0.628254
   50        0.630460
   51        0.837213
   52        0.869782
   53        0.970172
   54        1.023085
   55        1.026237
   56        1.081958
   57        2.025403
   58        2.027515
   59        2.206988
   60        2.864078
   61        3.426834
   62        3.828094
   63        3.829407
   64        4.703028
   65        6.943145
   66        7.315180
   67        7.317628
   68        7.931552
   69        8.796466
   70        9.359009
   71        9.362504
   72        9.986768
   73       10.616737
   74       11.202838
   75       11.206373
   76       11.968187
   77       12.121663
   78       13.366033
   79       13.662410
   80       13.771067
   81       13.781879
   82       13.784573
   83       13.853843
   84       13.860310
 
 -0.3333333E+00  0.1111111E+00  0.0000000E+00  0.6172840E-02
    1      -13.633887
    2      -13.344256
    3      -13.343407
    4      -13.015066
    5      -11.024788
    6      -10.773905
    7      -10.773166
    8      -10.494906
    9      -10.394923
   10      -10.154270
   11      -10.153549
   12       -9.888148
   13       -8.632675
   14       -8.442663
   15       -8.442115
   16       -8.252645
   17       -7.009510
   18       -6.872616
   19       -6.872118
   20       -6.700412
   21       -5.399501
   22       -5.238230
   23       -5.235908
   24       -5.062829
   25       -4.794756
   26       -4.637797
   27       -4.635588
   28       -4.467260
   29       -2.752521
   30       -2.630431
   31       -2.521651
   32       -2.521276
   33       -2.404910
   34       -1.406562
   35       -1.357701
   36       -1.355224
   37       -1.318926
   38       -1.316032
   39       -1.224230
   40       -0.589547
   41       -0.517110
   42       -0.513932
   43       -0.439397
   44        0.332363
   45        0.396459
   46        0.826618
   47        0.881906
   48        0.884168
   49        0.936322
   50        1.056403
   51        1.546247
   52        1.548440
   53        1.606813
   54        1.644199
   55        1.646770
   56        1.688755
   57        2.207690
   58        2.209901
   59        2.893649
   60        2.980902
   61        3.516107
   62        3.739438
   63        3.740205
   64        4.260906
   65        7.179813
   66        7.197776
   67        7.201026
   68        7.824399
   69        8.302847
   70        8.904992
   71        8.909433
   72        9.054043
   73        9.705944
   74        9.710071
   75        9.742940
   76       10.606290
   77       11.619860
   78       13.210717
   79       13.574280
   80       13.576447
   81       13.897940
   82       14.023374
   83       14.120404
   84       14.122507
 
 -0.2222222E+00  0.1111111E+00  0.0000000E+00  0.6172840E-02
    1      -13.929633
    2      -13.635721
    3      -13.634860
    4      -13.300880
    5      -10.050192
    6      -10.049375
    7       -9.816210
    8       -9.815525
    9       -9.815305
   10       -9.814609
   11       -9.558739
   12       -9.557980
   13       -8.560057
   14       -8.415434
   15       -8.415073
   16       -8.321633
   17       -7.413270
   18       -7.373338
   19       -7.373078
   20       -7.245064
   21       -6.188458
   22       -6.184880
   23       -6.015119
   24       -6.012977
   25       -6.011537
   26       -6.009451
   27       -5.824021
   28       -5.820510
   29       -3.110335
   30       -1.714137
   31       -1.700553
   32       -1.698060
   33       -1.621261
   34       -1.620957
   35       -1.524089
   36       -0.876959
   37       -0.871131
   38       -0.802183
   39       -0.799267
   40       -0.796282
   41       -0.793492
   42       -0.722477
   43       -0.716612
   44        0.075450
   45        1.407626
   46        1.408740
   47        1.789429
   48        1.825533
   49        1.825840
   50        1.856447
   51        2.164523
   52        2.189027
   53        2.189156
   54        2.219987
   55        2.491418
   56        2.493612
   57        2.493670
   58        2.495940
   59        2.777671
   60        3.538634
   61        3.539099
   62        3.624525
   63        3.626745
   64        3.878916
   65        7.189989
   66        7.193897
   67        7.299156
   68        7.790799
   69        7.796981
   70        7.910771
   71        8.336268
   72        8.341384
   73        8.342523
   74        8.347478
   75        9.316116
   76        9.320853
   77       11.284527
   78       13.047320
   79       13.053341
   80       13.422927
   81       13.424860
   82       13.429082
   83       13.430726
   84       13.825160
 
 -0.1111111E+00  0.1111111E+00  0.0000000E+00  0.6172840E-02
    1      -14.077897
    2      -13.781809
    3      -13.780942
    4      -13.444142
    5       -9.581442
    6       -9.359160
    7       -9.358492
    8       -9.118050
    9       -9.022884
   10       -9.020365
   11       -8.827482
   12       -8.824541
   13       -8.824466
   14       -8.822421
   15       -8.629326
   16       -8.626937
   17       -7.361051
   18       -7.359060
   19       -7.215417
   20       -7.214580
   21       -7.214507
   22       -7.211131
   23       -7.030279
   24       -7.028143
   25       -6.870989
   26       -6.696493
   27       -6.694298
   28       -6.498750
   29       -3.290113
   30       -1.873033
   31       -1.870529
   32       -1.023773
   33       -1.021080
   34       -0.948408
   35       -0.944367
   36       -0.944341
   37       -0.943191
   38       -0.867057
   39       -0.864540
   40       -0.713671
   41       -0.644743
   42       -0.641977
   43       -0.571519
   44       -0.086510
   45        1.869591
   46        2.318214
   47        2.350453
   48        2.356707
   49        2.375730
   50        2.377691
   51        2.389356
   52        2.473948
   53        2.503527
   54        2.509487
   55        2.539636
   56        2.849737
   57        2.852261
   58        3.218789
   59        3.222700
   60        3.222939
   61        3.224135
   62        3.709905
   63        3.749919
   64        3.751468
   65        7.289736
   66        7.291630
   67        7.392645
   68        7.395404
   69        7.395979
   70        7.402661
   71        7.426903
   72        7.796113
   73        7.801725
   74        8.302156
   75        8.305508
   76        8.802642
   77       11.117844
   78       12.673247
   79       12.958534
   80       12.962603
   81       13.054833
   82       13.056357
   83       13.342824
   84       13.347926
 
 -0.3388132E-20  0.2222222E+00  0.0000000E+00  0.6172840E-02
    1      -13.855553
    2      -13.562716
    3      -13.561859
    4      -13.229328
    5      -10.602678
    6      -10.358530
    7      -10.357805
    8      -10.088262
    9       -9.382068
   10       -9.379091
   11       -9.164596
   12       -9.161859
   13       -9.161301
   14       -9.158637
   15       -8.926551
   16       -8.923634
   17       -6.699652
   18       -6.694605
   19       -6.530715
   20       -6.527033
   21       -6.525373
   22       -6.521818
   23       -6.338279
   24       -6.333239
   25       -5.541083
   26       -5.372211
   27       -5.371702
   28       -5.189701
   29       -3.020772
   30       -1.639482
   31       -1.633901
   32       -1.614536
   33       -1.612048
   34       -1.548944
   35       -1.546021
   36       -1.543092
   37       -1.540310
   38       -1.451143
   39       -1.445474
   40       -0.502582
   41       -0.433644
   42       -0.433411
   43       -0.363160
   44        0.156078
   45        0.802486
   46        1.485709
   47        1.540174
   48        1.540505
   49        1.595631
   50        1.964365
   51        1.966111
   52        2.041131
   53        2.083786
   54        2.084580
   55        2.121768
   56        2.124855
   57        2.131561
   58        3.098334
   59        3.101613
   60        3.101931
   61        3.105192
   62        3.281357
   63        3.962200
   64        3.964650
   65        7.381722
   66        7.387760
   67        7.721047
   68        7.726744
   69        7.728116
   70        7.733613
   71        8.374848
   72        8.582159
   73        8.588060
   74        9.017754
   75        9.021308
   76       10.009036
   77       11.367628
   78       12.796131
   79       13.167302
   80       13.168222
   81       13.536574
   82       13.893404
   83       13.918356
   84       13.965278
 
  0.1111111E+00  0.2222222E+00  0.0000000E+00  0.6172840E-02
    1      -13.633814
    2      -13.344182
    3      -13.343334
    4      -13.014992
    5      -11.025043
    6      -10.774170
    7      -10.773420
    8      -10.495192
    9      -10.394412
   10      -10.153786
   11      -10.153076
   12       -9.887687
   13       -8.632777
   14       -8.442929
   15       -8.441943
   16       -8.252633
   17       -7.012582
   18       -6.876662
   19       -6.873859
   20       -6.703150
   21       -5.395532
   22       -5.234082
   23       -5.232206
   24       -5.058939
   25       -4.795660
   26       -4.637909
   27       -4.637390
   28       -4.468277
   29       -2.752480
   30       -2.626925
   31       -2.519016
   32       -2.516750
   33       -2.401258
   34       -1.412106
   35       -1.357671
   36       -1.355189
   37       -1.324373
   38       -1.321783
   39       -1.229894
   40       -0.587884
   41       -0.514126
   42       -0.513796
   43       -0.437924
   44        0.332747
   45        0.396449
   46        0.827972
   47        0.883340
   48        0.886255
   49        0.938668