   32   32    1    1
  0.8206758E+01  0.4932875E-09  0.4932875E-09  0.1246769E-08  0.5000000E-15
  1.000000000000000E-004
  CAR 
 graphite                                
    128    163     84
 
  0.0000000E+00  0.0000000E+00  0.0000000E+00  0.3086420E-02
    1      -14.381425
    2      -14.136740
    3      -14.135959
    4      -13.863399
    5       -9.004535
    6       -8.997280
    7       -8.993801
    8       -8.890757
    9       -8.890300
   10       -8.882620
   11       -8.878909
   12       -8.878882
   13       -8.876565
   14       -8.810301
   15       -8.798026
   16       -8.795902
   17       -7.884743
   18       -7.882201
   19       -7.880700
   20       -7.845468
   21       -7.841451
   22       -7.839340
   23       -7.838754
   24       -7.838748
   25       -7.834797
   26       -7.741782
   27       -7.736372
   28       -7.733573
   29       -3.501425
   30       -2.253970
   31       -2.251695
   32       -1.065824
   33       -1.063080
   34       -1.043668
   35       -1.013350
   36       -1.009029
   37       -1.009013
   38       -1.008220
   39       -0.990387
   40       -0.987839
   41       -0.955393
   42       -0.952881
   43       -0.933438
   44       -0.692197
   45        2.341401
   46        2.353193
   47        2.354557
   48        2.357659
   49        2.366060
   50        2.369516
   51        2.369562
   52        2.385560
   53        2.386756
   54        2.392229
   55        2.410119
   56        2.991509
   57        2.993304
   58        2.995454
   59        2.999122
   60        2.999152
   61        3.000638
   62        3.323452
   63        3.343639
   64        3.345025
   65        6.941227
   66        6.942845
   67        6.948651
   68        6.984926
   69        6.991650
   70        6.995501
   71        6.996822
   72        6.997311
   73        7.004203
   74        7.766630
   75        7.780876
   76        7.784272
   77       10.387362
   78       12.421061
   79       12.425138
   80       12.458403
   81       12.739511
   82       12.744036
   83       12.752357
   84       12.768824
 
  0.1111111E+00  0.2081668E-16  0.0000000E+00  0.6172840E-02
    1      -14.307315
    2      -14.063563
    3      -14.062786
    4      -13.791421
    5       -9.817534
    6       -9.637198
    7       -9.636397
    8       -9.443646
    9       -9.269631
   10       -9.261634
   11       -9.111690
   12       -9.111191
   13       -9.102632
   14       -9.102060
   15       -8.952675
   16       -8.942760
   17       -7.622628
   18       -7.616590
   19       -7.503616
   20       -7.500427
   21       -7.495209
   22       -7.494870
   23       -7.355973
   24       -7.348646
   25       -7.114511
   26       -6.972859
   27       -6.970996
   28       -6.815678
   29       -3.411549
   30       -2.167178
   31       -2.164907
   32       -1.293435
   33       -1.273744
   34       -1.233713
   35       -1.233157
   36       -1.214878
   37       -1.212362
   38       -1.171998
   39       -1.152271
   40       -0.992435
   41       -0.939595
   42       -0.936568
   43       -0.882792
   44       -0.610060
   45        1.724105
   46        2.058399
   47        2.082873
   48        2.087328
   49        2.112167
   50        2.188421
   51        2.209737
   52        2.217095
   53        2.226041
   54        2.226843
   55        2.240302
   56        2.570385
   57        2.572864
   58        2.939769
   59        2.941468
   60        2.946658
   61        2.947696
   62        3.349314
   63        3.428805
   64        3.446627
   65        6.969317
   66        6.973869
   67        7.116605
   68        7.123212
   69        7.127329
   70        7.130316
   71        7.166107
   72        7.536712
   73        7.541719
   74        7.904943
   75        7.916852
   76        8.409467
   77       10.472362
   78       12.465843
   79       12.758800
   80       12.781341
   81       12.782916
   82       12.794361
   83       13.080187
   84       13.105220
 
  0.2222222E+00  0.4163336E-16  0.0000000E+00  0.6172840E-02
    1      -14.085327
    2      -13.844406
    3      -13.843640
    4      -13.575810
    5      -10.837219
    6      -10.638181
    7      -10.637533
    8      -10.421502
    9       -9.624545
   10       -9.618888
   11       -9.447718
   12       -9.446804
   13       -9.441307
   14       -9.440687
   15       -9.257858
   16       -9.251524
   17       -6.951573
   18       -6.942381
   19       -6.814629
   20       -6.811856
   21       -6.803984
   22       -6.803546
   23       -6.661859
   24       -6.652454
   25       -5.785858
   26       -5.650677
   27       -5.648975
   28       -5.505238
   29       -3.142493
   30       -1.907946
   31       -1.906904
   32       -1.905568
   33       -1.888486
   34       -1.834832
   35       -1.834435
   36       -1.817212
   37       -1.814732
   38       -1.759638
   39       -1.741133
   40       -0.777087
   41       -0.725175
   42       -0.721988
   43       -0.669335
   44       -0.364867
   45        0.669599
   46        1.223322
   47        1.263703
   48        1.268027
   49        1.308829
   50        1.682802
   51        1.684862
   52        1.764201
   53        1.795260
   54        1.800692
   55        1.831992
   56        1.978116
   57        1.980396
   58        2.818658
   59        2.819739
   60        2.823928
   61        2.825597
   62        2.837823
   63        3.592504
   64        3.604799
   65        7.119173
   66        7.121063
   67        7.451952
   68        7.458031
   69        7.462131
   70        7.464780
   71        8.182568
   72        8.200790
   73        8.208115
   74        8.757986
   75        8.762075
   76        9.616394
   77       10.728405
   78       12.590248
   79       12.895356
   80       12.897292
   81       13.195678
   82       13.636798
   83       13.669288
   84       13.704227
 
  0.3333333E+00  0.8326673E-16  0.0000000E+00  0.6172840E-02
    1      -13.716611
    2      -13.480339
    3      -13.479590
    4      -13.217619
    5      -11.756163
    6      -11.544718
    7      -11.544058
    8      -11.312660
    9       -9.884068
   10       -9.880426
   11       -9.700145
   12       -9.698875
   13       -9.695749
   14       -9.695002
   15       -9.500345
   16       -9.496446
   17       -6.139251
   18       -6.128468
   19       -6.011428
   20       -6.008520
   21       -5.999498
   22       -5.998846
   23       -5.872335
   24       -5.861858
   25       -4.343700
   26       -4.225213
   27       -4.223317
   28       -4.098094
   29       -2.727845
   30       -2.711855
   31       -2.696723
   32       -2.645249
   33       -2.644968
   34       -2.630178
   35       -2.627577
   36       -2.557149
   37       -2.540904
   38       -1.479185
   39       -1.476927
   40       -0.427352
   41       -0.377012
   42       -0.373572
   43       -0.370267
   44       -0.322759
   45        0.027274
   46        0.038932
   47        0.087268
   48        0.090921
   49        0.151406
   50        0.731392
   51        0.733427
   52        1.197423
   53        1.235952
   54        1.240693
   55        1.279696
   56        1.768440
   57        1.770830
   58        2.057915
   59        2.694805
   60        2.695469
   61        2.698362
   62        2.700895
   63        3.687913
   64        3.695172
   65        7.398368
   66        7.402559
   67        7.844631
   68        7.850000
   69        7.853206
   70        7.855113
   71        8.470894
   72        8.474588
   73        9.669020
   74       10.233810
   75       10.237347
   76       10.992369
   77       11.155854
   78       12.771273
   79       13.074626
   80       13.076770
   81       13.216276
   82       13.573367
   83       13.578955
   84       13.580799
 
  0.4444444E+00  0.8326673E-16  0.0000000E+00  0.6172840E-02
    1      -13.203051
    2      -12.973268
    3      -12.972536
    4      -12.718657
    5      -12.547917
    6      -12.326293
    7      -12.325613
    8      -12.081936
    9      -10.017271
   10      -10.015163
   11       -9.830903
   12       -9.829101
   13       -9.828072
   14       -9.826923
   15       -9.627301
   16       -9.625114
   17       -5.374001
   18       -5.365706
   19       -5.279334
   20       -5.275643
   21       -5.270436
   22       -5.268859
   23       -5.181829
   24       -5.175165
   25       -3.465805
   26       -3.457473
   27       -3.402064
   28       -3.400641
   29       -3.393544
   30       -3.390454
   31       -3.322577
   32       -3.312459
   33       -2.853213
   34       -2.753505
   35       -2.751186
   36       -2.646891
   37       -2.079035
   38       -1.370260
   39       -1.299671
   40       -1.292181
   41       -1.287798
   42       -1.204725
   43       -0.884379
   44       -0.882406
   45       -0.141902
   46       -0.139820
   47        0.040262
   48        0.087979
   49        0.091796
   50        0.140038
   51        0.592302
   52        0.597589
   53        0.641724
   54        0.645819
   55        0.690227
   56        1.277731
   57        1.653834
   58        1.655939
   59        2.620159
   60        2.621273
   61        2.622386
   62        2.625751
   63        3.720755
   64        3.724091
   65        7.648055
   66        7.651656
   67        8.113109
   68        8.118173
   69        8.119293
   70        8.120124
   71        8.604248
   72        8.606956
   73       11.308564
   74       11.745643
   75       11.769451
   76       11.774358
   77       12.406408
   78       12.477213
   79       12.932280
   80       13.092586
   81       13.144723
   82       13.150528
   83       13.304602
   84       13.308942
 
 -0.1355253E-19  0.1111111E+00  0.0000000E+00  0.6172840E-02
    1      -14.307317
    2      -14.063565
    3      -14.062787
    4      -13.791423
    5       -9.817456
    6       -9.637040
    7       -9.636368
    8       -9.443539
    9       -9.269614
   10       -9.261922
   11       -9.111693
   12       -9.111185
   13       -9.102962
   14       -9.102400
   15       -8.952636
   16       -8.943212
   17       -7.622730
   18       -7.615199
   19       -7.503936
   20       -7.500429
   21       -7.495033
   22       -7.492182
   23       -7.356110
   24       -7.347243
   25       -7.115543
   26       -6.973194
   27       -6.972703
   28       -6.816694
   29       -3.411544
   30       -2.167171
   31       -2.164902
   32       -1.294766
   33       -1.273766
   34       -1.236193
   35       -1.233168
   36       -1.214878
   37       -1.212600
   38       -1.173273
   39       -1.152411
   40       -0.990958
   41       -0.936838
   42       -0.936542
   43       -0.881471
   44       -0.610052
   45        1.724987
   46        2.055742
   47        2.081148
   48        2.082877
   49        2.108382
   50        2.192765
   51        2.214329
   52        2.217092
   53        2.224622
   54        2.227764
   55        2.243364
   56        2.572123
   57        2.573190
   58        2.939747
   59        2.941421
   60        2.944872
   61        2.946892
   62        3.350466
   63        3.428824
   64        3.445552
   65        6.971149
   66        6.973791
   67        7.117120
   68        7.123127
   69        7.128126
   70        7.133583
   71        7.164182
   72        7.535511
   73        7.539141
   74        7.905078
   75        7.919091
   76        8.407612
   77       10.472372
   78       12.466368
   79       12.758263
   80       12.781701
   81       12.782915
   82       12.795037
   83       13.079167
   84       13.097164
 
  0.1111111E+00  0.1111111E+00  0.0000000E+00  0.6172840E-02
    1      -14.159142
    2      -13.917273
    3      -13.916504
    4      -13.647503
    5      -10.287499
    6      -10.284319
    7      -10.098551
    8      -10.094993
    9      -10.094965
   10      -10.092106
   11       -9.890735
   12       -9.887501
   13       -8.813983
   14       -8.702473
   15       -8.701169
   16       -8.623018
   17       -7.699485
   18       -7.661698
   19       -7.658056
   20       -7.562700
   21       -6.431708
   22       -6.428354
   23       -6.292392
   24       -6.289562
   25       -6.289539
   26       -6.285465
   27       -6.140098
   28       -6.136535
   29       -3.231915
   30       -1.994011
   31       -1.991748
   32       -1.964457
   33       -1.892228
   34       -1.890082
   35       -1.815702
   36       -1.149720
   37       -1.146737
   38       -1.092623
   39       -1.088220
   40       -1.088205
   41       -1.086962
   42       -1.029806
   43       -1.027098
   44       -0.446230
   45        1.269150
   46        1.271426
   47        1.528399
   48        1.553486
   49        1.558292
   50        1.580526
   51        1.877557
   52        1.895619
   53        1.901074
   54        1.922203
   55        2.210699
   56        2.214307
   57        2.214519
   58        2.216257
   59        2.623954
   60        3.215181
   61        3.217540
   62        3.256910
   63        3.259581
   64        3.580058
   65        6.914067
   66        6.920250
   67        6.952175
   68        7.540873
   69        7.573396
   70        7.575910
   71        8.077320
   72        8.079416
   73        8.080097
   74        8.085236
   75        8.925910
   76        8.928818
   77       10.643349
   78       12.842211
   79       12.846495
   80       13.151679
   81       13.157035
   82       13.157078
   83       13.160359
   84       13.484007
 
  0.2222222E+00  0.1111111E+00  0.0000000E+00  0.6172840E-02
    1      -13.863720
    2      -13.625560
    3      -13.624806
    4      -13.360479
    5      -11.259539
    6      -11.054797
    7      -11.054134
    8      -10.830994
    9      -10.630902
   10      -10.434972
   11      -10.434297
   12      -10.221609
   13       -8.880820
   14       -8.728503
   15       -8.727825
   16       -8.575287
   17       -7.272104
   18       -7.160492
   19       -7.157381
   20       -7.023091
   21       -5.641509
   22       -5.511611
   23       -5.510832
   24       -5.372953
   25       -5.040511
   26       -4.914760
   27       -4.913036
   28       -4.779703
   29       -2.879783
   30       -2.874284
   31       -2.794332
   32       -2.792220
   33       -2.701892
   34       -1.680431
   35       -1.649781
   36       -1.647521
   37       -1.610605
   38       -1.610349
   39       -1.537840
   40       -0.861761
   41       -0.805851
   42       -0.802749
   43       -0.745532
   44       -0.121524
   45        0.202511
   46        0.565085
   47        0.606516
   48        0.611471
   49        0.651160
   50        0.922091
   51        1.263340
   52        1.265355
   53        1.326952
   54        1.355290
   55        1.361116
   56        1.391754
   57        1.926203
   58        1.927757
   59        2.515958
   60        2.743281
   61        3.072349
   62        3.458640
   63        3.461134
   64        3.943316
   65        6.864611
   66        6.924528
   67        6.929763
   68        7.467362
   69        8.112431
   70        8.648015
   71        8.651003
   72        8.873453
   73        9.373417
   74        9.448267
   75        9.451783
   76       10.226468
   77       10.986713
   78       13.001258
   79       13.302973
   80       13.304904
   81       13.546822
   82       13.776764
   83       13.784474
   84       13.825642
 
  0.3333333E+00  0.1111111E+00  0.0000000E+00  0.6172840E-02
    1      -13.422455
    2      -13.189890
    3      -13.189157
    4      -12.931781
    5      -12.115482
    6      -11.899417
    7      -11.898738
    8      -11.661820
    9      -10.841357
   10      -10.642239
   11      -10.641535
   12      -10.425175
   13       -9.031391
   14       -8.863000
   15       -8.862506
   16       -8.683814
   17       -6.510341
   18       -6.392874
   19       -6.389921
   20       -6.264583
   21       -4.832039
   22       -4.723426
   23       -4.721945
   24       -4.609582
   25       -3.818631
   26       -3.732654
   27       -3.730383
   28       -3.634285
   29       -3.581383
   30       -3.473923
   31       -3.471985
   32       -3.359509
   33       -2.380409
   34       -2.342265
   35       -2.308213
   36       -2.307145
   37       -2.228317
   38       -1.139978
   39       -1.137638
   40       -0.787146
   41       -0.694005
   42       -0.628293
   43       -0.624300
   44       -0.560414
   45       -0.443914
   46       -0.390922
   47       -0.387635
   48       -0.333307
   49        0.341869
   50        0.344005
   51        0.358004
   52        0.695073
   53        0.705427
   54        0.736757
   55        0.741363
   56        0.783313
   57        1.716865
   58        1.742404
   59        1.744118
   60        2.718836
   61        2.964406
   62        3.548325
   63        3.550423
   64        4.331781
   65        6.708180
   66        7.045678
   67        7.049869
   68        7.574060
   69        8.615223
   70        9.102444
   71        9.105030
   72        9.643929
   73       10.442501
   74       10.951713
   75       10.954743
   76       11.500459
   77       11.609213
   78       12.949022
   79       13.309673
   80       13.502402
   81       13.504552
   82       13.585793
   83       13.616858
   84       13.624366
 
  0.4444444E+00  0.1111111E+00  0.0000000E+00  0.6172840E-02
    1      -12.840068
    2      -12.836960
    3      -12.616103
    4      -12.613258
    5      -12.612313
    6      -12.609991
    7      -12.365894
    8      -12.362711
    9      -10.912254
   10      -10.712539
   11      -10.711822
   12      -10.494151
   13       -9.087763
   14       -8.916226
   15       -8.915681
   16       -8.732354
   17       -5.983442
   18       -5.904426
   19       -5.901630
   20       -5.830199
   21       -4.341201
   22       -4.317690
   23       -4.277938
   24       -4.276408
   25       -4.273718
   26       -4.271091
   27       -4.212274
   28       -4.210714
   29       -2.777338
   30       -2.738940
   31       -2.735917
   32       -2.680481
   33       -2.111646
   34       -2.108221
   35       -2.024411
   36       -2.024166
   37       -2.022399
   38       -2.017507
   39       -1.932509
   40       -1.928591
   41       -1.643949
   42       -1.641378
   43       -0.471593
   44       -0.468160
   45       -0.467319
   46       -0.464893
   47        0.083338
   48        0.089582
   49        0.130266
   50        0.137874
   51        0.140056
   52        0.140165
   53        0.186359
   54        0.191033
   55        0.631042
   56        0.977258
   57        0.980134
   58        1.678839
   59        1.680615
   60        2.698525
   61        2.924256
   62        3.571307
   63        3.572906
   64        4.497179
   65        6.641622
   66        7.114802
   67        7.117689
   68        7.628520
   69        8.837369
   70        9.278920
   71        9.281656
   72        9.716165
   73       12.059069
   74       12.062817
   75       12.175059
   76       12.176738
   77       12.439151
   78       12.441052
   79       12.442564
   80       12.449017
   81       12.980597
   82       12.984656
   83       13.523079
   84       13.528497
 
 -0.4444444E+00  0.1111111E+00  0.0000000E+00  0.6172840E-02
    1      -13.423222
    2      -13.190651
    3      -13.189907
    4      -12.932544
    5      -12.114274
    6      -11.898203
    7      -11.897538
    8      -11.660615
    9      -10.843128
   10      -10.644112
   11      -10.643396
   12      -10.426995
   13       -9.028801
   14       -8.860213
   15       -8.859641
   16       -8.680614
   17       -6.501982
   18       -6.383615
   19       -6.382478
   20       -6.256464
   21       -4.843625
   22       -4.735420
   23       -4.732379
   24       -4.620198
   25       -3.830664
   26       -3.744233
   27       -3.743694
   28       -3.647017
   29       -3.583558
   30       -3.476315
   31       -3.473998
   32       -3.361738
   33       -2.366097
   34       -2.342989
   35       -2.294462
   36       -2.291529
   37       -2.213311
   38       -1.140684
   39       -1.138359
   40       -0.786072
   41       -0.693983
   42       -0.627641
   43       -0.625208
   44       -0.560764
   45       -0.441833
   46       -0.389042
   47       -0.385332
   48       -0.331229
   49        0.342853
   50        0.345062
   51        0.357336
   52        0.695279
   53        0.704261
   54        0.737402
   55        0.740384
   56        0.782791
   57        1.717914
   58        1.740645
   59        1.742489
   60        2.718766
   61        2.961725
   62        3.551214
   63        3.552305
   64        4.341024
   65        6.706966
   66        7.049575
   67        7.052026
   68        7.574619
   69        8.609668
   70        9.097228
   71        9.100817
   72        9.642871
   73       10.443524
   74       10.951108
   75       10.954384
   76       11.499420
   77       11.607370
   78       12.949476
   79       13.307153
   80       13.498976
   81       13.501896
   82       13.583744
   83       13.620450
   84       13.627185
 
 -0.3333333E+00  0.1111111E+00  0.0000000E+00  0.6172840E-02
    1      -13.864257
    2      -13.626109
    3      -13.625348
    4      -13.361019
    5      -11.258114
    6      -11.053360
    7      -11.052719
    8      -10.829558
    9      -10.634475
   10      -10.438534
   11      -10.437840
   12      -10.225296
   13       -8.875423
   14       -8.722153
   15       -8.721607
   16       -8.567680
   17       -7.265838
   18       -7.152002
   19       -7.151407
   20       -7.015359
   21       -5.653181
   22       -5.524009
   23       -5.521502
   24       -5.384292
   25       -5.042807
   26       -4.917161
   27       -4.915288
   28       -4.782063
   29       -2.895689
   30       -2.874837
   31       -2.809412
   32       -2.809109
   33       -2.717913
   34       -1.662037
   35       -1.650293
   36       -1.648048
   37       -1.593288
   38       -1.590745
   39       -1.519380
   40       -0.860028
   41       -0.804257
   42       -0.800895
   43       -0.743829
   44       -0.122039
   45        0.203701
   46        0.561085
   47        0.603639
   48        0.605537
   49        0.646090
   50        0.919812
   51        1.264374
   52        1.266519
   53        1.332493
   54        1.361008
   55        1.363706
   56        1.395074
   57        1.922817
   58        1.924746
   59        2.516840
   60        2.741949
   61        3.066767
   62        3.464059
   63        3.464684
   64        3.960066
   65        6.860255
   66        6.930711
   67        6.933715
   68        7.472401
   69        8.105857
   70        8.639687
   71        8.644112
   72        8.873851
   73        9.369118
   74        9.447324
   75        9.451072
   76       10.224533
   77       10.985942
   78       12.998805
   79       13.300518
   80       13.302833
   81       13.544842
   82       13.779304
   83       13.786609
   84       13.855500
 
 -0.2222222E+00  0.1111111E+00  0.0000000E+00  0.6172840E-02
    1      -14.159474
    2      -13.917602
    3      -13.916828
    4      -13.647840
    5      -10.291243
    6      -10.284281
    7      -10.100962
    8      -10.100324
    9      -10.093896
   10      -10.093232
   11       -9.894793
   12       -9.887580
   13       -8.805369
   14       -8.691468
   15       -8.691029
   16       -8.609934
   17       -7.697392
   18       -7.656332
   19       -7.655967
   20       -7.557629
   21       -6.440451
   22       -6.431625
   23       -6.300798
   24       -6.298470
   25       -6.291742
   26       -6.289996
   27       -6.148714
   28       -6.140072
   29       -3.232241
   30       -1.994333
   31       -1.992076
   32       -1.982346
   33       -1.909348
   34       -1.908949
   35       -1.833568
   36       -1.147758
   37       -1.127700
   38       -1.090115
   39       -1.087009
   40       -1.069784
   41       -1.067339
   42       -1.028072
   43       -1.008122
   44       -0.446543
   45        1.267706
   46        1.271146
   47        1.515647
   48        1.542954
   49        1.543660
   50        1.567725
   51        1.891554
   52        1.910825
   53        1.910867
   54        1.933928
   55        2.208617
   56        2.210680
   57        2.213532
   58        2.215786
   59        2.621417
   60        3.207945
   61        3.216378
   62        3.263887
   63        3.264299
   64        3.600862
   65        6.921946
   66        6.925481
   67        6.944393
   68        7.551501
   69        7.569248
   70        7.576044
   71        8.068359
   72        8.073376
   73        8.078423
   74        8.082932
   75        8.919252
   76        8.926286
   77       10.642860
   78       12.842541
   79       12.878575
   80       13.153792
   81       13.155836
   82       13.189983
   83       13.191302
   84       13.481898
 
 -0.1111111E+00  0.1111111E+00  0.0000000E+00  0.6172840E-02
    1      -14.307426
    2      -14.063675
    3      -14.062895
    4      -13.791531
    5       -9.824688
    6       -9.644479
    7       -9.643934
    8       -9.451407
    9       -9.261719
   10       -9.259262
   11       -9.104261
   12       -9.101140
   13       -9.101088
   14       -9.099352
   15       -8.943059
   16       -8.940705
   17       -7.618380
   18       -7.616432
   19       -7.497721
   20       -7.496665
   21       -7.496624
   22       -7.493586
   23       -7.350891
   24       -7.348800
   25       -7.123352
   26       -6.981894
   27       -6.979513
   28       -6.824454
   29       -3.411653
   30       -2.167278
   31       -2.165010
   32       -1.295041
   33       -1.292368
   34       -1.236989
   35       -1.232780
   36       -1.232763
   37       -1.231904
   38       -1.173426
   39       -1.170998
   40       -0.971105
   41       -0.918038
   42       -0.915617
   43       -0.861593
   44       -0.610157
   45        1.722369
   46        2.040121
   47        2.064920
   48        2.070816
   49        2.095265
   50        2.206537
   51        2.222821
   52        2.224699
   53        2.229181
   54        2.237006
   55        2.258314
   56        2.565855
   57        2.568084
   58        2.943223
   59        2.947253
   60        2.947452
   61        2.948419
   62        3.337513
   63        3.445039
   64        3.446760
   65        6.969932
   66        6.971942
   67        7.125297
   68        7.127851
   69        7.128304
   70        7.134537
   71        7.163408
   72        7.526230
   73        7.531706
   74        7.915014
   75        7.918307
   76        8.398439
   77       10.472203
   78       12.500918
   79       12.756305
   80       12.760335
   81       12.816314
   82       12.817528
   83       13.075307
   84       13.080000
 
 -0.4065758E-19  0.2222222E+00  0.0000000E+00  0.6172840E-02
    1      -14.085333
    2      -13.844416
    3      -13.843644
    4      -13.575817
    5      -10.837258
    6      -10.638236
    7      -10.637552
    8      -10.421538
    9       -9.624713
   10       -9.618805
   11       -9.448221
   12       -9.446829
   13       -9.441242
   14       -9.440379
   15       -9.257970
   16       -9.251497
   17       -6.951727
   18       -6.941149
   19       -6.815070
   20       -6.811860
   21       -6.803686
   22       -6.801134
   23       -6.661965
   24       -6.651151
   25       -5.786807
   26       -5.651039
   27       -5.650543
   28       -5.506224
   29       -3.142473
   30       -1.908436
   31       -1.907705
   32       -1.905570
   33       -1.888580
   34       -1.837354
   35       -1.834462
   36       -1.817212
   37       -1.814993
   38       -1.760903
   39       -1.741264
   40       -0.775551
   41       -0.722315
   42       -0.721968
   43       -0.667972
   44       -0.364833
   45        0.670082
   46        1.221131
   47        1.263066
   48        1.263712
   49        1.305960
   50        1.683629
   51        1.685217
   52        1.767408
   53        1.800392
   54        1.800696
   55        1.834173
   56        1.977357
   57        1.980106
   58        2.818139
   59        2.819113
   60        2.823541
   61        2.824602
   62        2.838740
   63        3.592425
   64        3.603593
   65        7.119808
   66        7.122557
   67        7.452549
   68        7.457955
   69        7.462996
   70        7.467837
   71        8.180924
   72        8.200983
   73        8.210117
   74        8.756960
   75        8.760261
   76        9.615056
   77       10.728433
   78       12.590874
   79       12.896505
   80       12.897394
   81       13.196318
   82       13.640816
   83       13.650514
   84       13.695514
 
  0.1111111E+00  0.2222222E+00  0.0000000E+00  0.6172840E-02
    1      -13.863725
    2      -13.625567
    3      -13.624809
    4      -13.360484
    5      -11.259595
    6      -11.054881
    7      -11.054163
    8      -10.831050
    9      -10.630861
   10      -10.434917
   11      -10.434277
   12      -10.221575
   13       -8.880809
   14       -8.728501
   15       -8.727810
   16       -8.575281
   17       -7.272046
   18       -7.160365
   19       -7.157381
   20       -7.023019
   21       -5.640446
   22       -5.510912
   23       -5.509365
   24       -5.371846
   25       -5.041553
   26       -4.915267
   27       -4.914667
   28       -4.780803
   29       -2.879873
   30       -2.874268
   31       -2.794333
   32       -2.792395
   33       -2.701977
   34       -1.681931
   35       -1.649758
   36       -1.647504
   37       -1.613317
   38       -1.610529
   39       -1.539239
   40       -0.860158
   41       -0.802881
   42       -0.802684
   43       -0.744086
   44       -0.121494
   45        0.202899
   46        0.564043
   47        0.606517
   48        0.609098
   49        0.649729