 running on    6 total cores
 distrk:  each k-point on    6 cores,    1 groups
 distr:  one band on    1 cores,    6 groups
 using from now: INCAR     
 vasp.5.3.5 31Mar14 (build Nov 02 2014 15:17:37) complex                        
  
 POSCAR found :  1 types and      32 ions
 scaLAPACK will be used

 ----------------------------------------------------------------------------- 
|                                                                             |
|           W    W    AA    RRRRR   N    N  II  N    N   GGGG   !!!           |
|           W    W   A  A   R    R  NN   N  II  NN   N  G    G  !!!           |
|           W    W  A    A  R    R  N N  N  II  N N  N  G       !!!           |
|           W WW W  AAAAAA  RRRRR   N  N N  II  N  N N  G  GGG   !            |
|           WW  WW  A    A  R   R   N   NN  II  N   NN  G    G                |
|           W    W  A    A  R    R  N    N  II  N    N   GGGG   !!!           |
|                                                                             |
|      For optimal performance we recommend to set                            |
|        NCORE= 4 - approx SQRT( number of cores)                             |
|      NCORE specifies how many cores store one orbital (NPAR=cpu/NCORE).     |
|      This setting can  greatly improve the performance of VASP for DFT.     |
|      The default, NPAR=number of cores might be grossly inefficient         |
|      on modern multi-core architectures or massively parallel machines.     |
|      Do your own testing !!!!                                               |
|      Unfortunately you need to use the default for GW and RPA calculations. |
|      (for HF NCORE is supported but not extensively tested yet)             |
|                                                                             |
 ----------------------------------------------------------------------------- 


 ----------------------------------------------------------------------------- 
|                                                                             |
|  ADVICE TO THIS USER RUNNING 'VASP/VAMP'   (HEAR YOUR MASTER'S VOICE ...):  |
|                                                                             |
|      You have a (more or less) 'large supercell' and for larger cells       |
|      it might be more efficient to use real space projection operators      |
|      So try LREAL= Auto  in the INCAR   file.                               |
|      Mind: If you want to do a very accurate calculations keep the          |
|      reciprocal projection scheme          (i.e. LREAL=.FALSE.)             |
|                                                                             |
 ----------------------------------------------------------------------------- 

 LDA part: xc-table for Pade appr. of Perdew
 POSCAR, INCAR and KPOINTS ok, starting setup
 WARNING: small aliasing (wrap around) errors must be expected
 FFT: planning ...
 WAVECAR not read
 WARNING: random wavefunctions but no delay for mixing, default for NELMDL
 entering main loop
       N       E                     dE             d eps       ncg     rms          rms(c)
DAV:   1     0.558169766782E+03    0.55817E+03   -0.72566E+04 27384   0.161E+03
DAV:   2    -0.266010673040E+03   -0.82418E+03   -0.79399E+03 33924   0.310E+02
DAV:   3    -0.311560312335E+03   -0.45550E+02   -0.45085E+02 33396   0.725E+01
DAV:   4    -0.312382663054E+03   -0.82235E+00   -0.82080E+00 34104   0.106E+01
DAV:   5    -0.312406456776E+03   -0.23794E-01   -0.23783E-01 34296   0.170E+00    0.221E+01
DAV:   6    -0.298325337604E+03    0.14081E+02   -0.14523E+01 31296   0.107E+01    0.116E+01
DAV:   7    -0.293931471575E+03    0.43939E+01   -0.14833E+01 31176   0.108E+01    0.188E+00
DAV:   8    -0.293980614982E+03   -0.49143E-01   -0.34447E-01 31104   0.170E+00    0.250E-01
DAV:   9    -0.293982218473E+03   -0.16035E-02   -0.11205E-02 32772   0.371E-01    0.106E-01
DAV:  10    -0.293983103750E+03   -0.88528E-03   -0.50178E-03 37644   0.214E-01    0.641E-02
DAV:  11    -0.293983047588E+03    0.56162E-04   -0.76761E-04 31884   0.110E-01    0.433E-02
DAV:  12    -0.293983099098E+03   -0.51509E-04   -0.67477E-04 36852   0.724E-02    0.254E-02
DAV:  13    -0.293983089548E+03    0.95495E-05   -0.11394E-04 31296   0.317E-02    0.395E-03
DAV:  14    -0.293983090627E+03   -0.10791E-05   -0.10329E-05 28860   0.791E-03    0.858E-03
DAV:  15    -0.293983095945E+03   -0.53182E-05   -0.10817E-04 27036   0.136E-02    0.177E-02
DAV:  16    -0.293983093513E+03    0.24324E-05   -0.23117E-06 19440   0.483E-03    0.154E-02
DAV:  17    -0.293983092336E+03    0.11772E-05   -0.87492E-05 27036   0.132E-02    0.158E-02
DAV:  18    -0.293983089809E+03    0.25270E-05   -0.12238E-05 19404   0.545E-03    0.343E-03
DAV:  19    -0.293983089728E+03    0.80909E-07   -0.13012E-06 19320   0.216E-03
   1 F= -.29943346E+03 E0= -.29943346E+03  d E =0.000000E+00
