 vasp.5.3.5 31Mar14 (build Nov 02 2014 15:17:37) complex                        
  
 executed on        ion-Intel-MKL date 2016.08.31  00:36:59
 running on    6 total cores
 distrk:  each k-point on    6 cores,    1 groups
 distr:  one band on NCORES_PER_BAND=   1 cores,    6 groups


--------------------------------------------------------------------------------------------------------


 INCAR:
 POTCAR:   PAW_PBE C 08Apr2002                    

 ----------------------------------------------------------------------------- 
|                                                                             |
|           W    W    AA    RRRRR   N    N  II  N    N   GGGG   !!!           |
|           W    W   A  A   R    R  NN   N  II  NN   N  G    G  !!!           |
|           W    W  A    A  R    R  N N  N  II  N N  N  G       !!!           |
|           W WW W  AAAAAA  RRRRR   N  N N  II  N  N N  G  GGG   !            |
|           WW  WW  A    A  R   R   N   NN  II  N   NN  G    G                |
|           W    W  A    A  R    R  N    N  II  N    N   GGGG   !!!           |
|                                                                             |
|      For optimal performance we recommend to set                            |
|        NCORE= 4 - approx SQRT( number of cores)                             |
|      NCORE specifies how many cores store one orbital (NPAR=cpu/NCORE).     |
|      This setting can  greatly improve the performance of VASP for DFT.     |
|      The default, NPAR=number of cores might be grossly inefficient         |
|      on modern multi-core architectures or massively parallel machines.     |
|      Do your own testing !!!!                                               |
|      Unfortunately you need to use the default for GW and RPA calculations. |
|      (for HF NCORE is supported but not extensively tested yet)             |
|                                                                             |
 ----------------------------------------------------------------------------- 

 POTCAR:   PAW_PBE C 08Apr2002                    
   VRHFIN =C: s2p2                                                              
   LEXCH  = PE                                                                  
   EATOM  =   147.1560 eV,   10.8157 Ry                                         
                                                                                
   TITEL  = PAW_PBE C 08Apr2002                                                 
   LULTRA =        F    use ultrasoft PP ?                                      
   IUNSCR =        0    unscreen: 0-lin 1-nonlin 2-no                           
   RPACOR =     .000    partial core radius                                     
   POMASS =   12.011; ZVAL   =    4.000    mass and valenz                      
   RCORE  =    1.500    outmost cutoff radius                                   
   RWIGS  =    1.630; RWIGS  =     .863    wigner-seitz radius (au A)           
   ENMAX  =  400.000; ENMIN  =  300.000 eV                                      
   ICORE  =        2    local potential                                         
   LCOR   =        T    correct aug charges                                     
   LPAW   =        T    paw PP                                                  
   EAUG   =  644.873                                                            
   DEXC   =     .000                                                            
   RMAX   =    2.266    core radius for proj-oper                               
   RAUG   =    1.300    factor for augmentation sphere                          
   RDEP   =    1.501    radius for radial grids                                 
   RDEPT  =    1.300    core radius for aug-charge                              
   QCUT   =   -5.516; QGAM   =   11.032    optimization parameters              
                                                                                
   Description                                                                  
     l     E      TYP  RCUT    TYP  RCUT                                        
     0   .000     23  1.200                                                     
     0   .000     23  1.200                                                     
     1   .000     23  1.500                                                     
     1  2.500     23  1.500                                                     
     2   .000      7  1.500                                                     
  local pseudopotential read in
  atomic valenz-charges read in
  non local Contribution for L=           0  read in
    real space projection operators read in
  non local Contribution for L=           0  read in
    real space projection operators read in
  non local Contribution for L=           1  read in
    real space projection operators read in
  non local Contribution for L=           1  read in
    real space projection operators read in
    PAW grid and wavefunctions read in
 
   number of l-projection  operators is LMAX  =           4
   number of lm-projection operators is LMMAX =           8
 

 ----------------------------------------------------------------------------- 
|                                                                             |
|  ADVICE TO THIS USER RUNNING 'VASP/VAMP'   (HEAR YOUR MASTER'S VOICE ...):  |
|                                                                             |
|      You have a (more or less) 'large supercell' and for larger cells       |
|      it might be more efficient to use real space projection operators      |
|      So try LREAL= Auto  in the INCAR   file.                               |
|      Mind: If you want to do a very accurate calculations keep the          |
|      reciprocal projection scheme          (i.e. LREAL=.FALSE.)             |
|                                                                             |
 ----------------------------------------------------------------------------- 

 PAW_PBE C 08Apr2002                    :
 energy of atom  1       EATOM= -147.1560
 kinetic energy error for atom=    0.0057 (will be added to EATOM!!)
 
 
 POSCAR: C                                       
  positions in direct lattice
  No initial velocities read in
 exchange correlation table for  LEXCH =        8
   RHO(1)=    0.500       N(1)  =     2000
   RHO(2)=  100.500       N(2)  =     4000
 


--------------------------------------------------------------------------------------------------------


 ion  position               nearest neighbor table
   1  0.500  0.000  0.125-  18 1.42  19 1.42  20 1.42
   2  1.000  0.000  0.125-  20 1.42  17 1.42  19 1.42
   3  0.500  0.500  0.125-  20 1.42  18 1.42  17 1.43
   4  1.000  0.500  0.125-  17 1.42  19 1.42  18 1.42
   5  0.500  0.000  0.625-  22 1.42  23 1.42  24 1.42
   6  1.000  0.000  0.625-  21 1.42  24 1.42  23 1.42
   7  0.500  0.500  0.625-  24 1.42  21 1.42  22 1.42
   8  1.000  0.500  0.625-  23 1.42  22 1.42  21 1.42
   9  0.000  0.500  0.375-  27 1.42  26 1.42  28 1.42
  10  0.500  0.500  0.375-  28 1.42  25 1.42  27 1.42
  11  0.000  1.000  0.375-  25 1.42  28 1.42  26 1.42
  12  0.500  1.000  0.375-  26 1.42  27 1.42  25 1.42
  13  0.000  0.500  0.875-  31 1.42  30 1.42  32 1.42
  14  0.500  0.500  0.875-  32 1.42  29 1.42  31 1.42
  15  0.000  1.000  0.875-  29 1.42  32 1.42  30 1.42
  16  0.500  1.000  0.875-  30 1.42  31 1.42  29 1.42
  17  0.166  0.334  0.124-   4 1.42   2 1.42   3 1.43
  18  0.666  0.334  0.125-   1 1.42   4 1.42   3 1.42
  19  0.166  0.834  0.125-   4 1.42   1 1.42   2 1.42
  20  0.666  0.834  0.125-   3 1.42   2 1.42   1 1.42
  21  0.166  0.334  0.625-   6 1.42   7 1.42   8 1.42
  22  0.666  0.334  0.625-   5 1.42   8 1.42   7 1.42
  23  0.166  0.834  0.625-   8 1.42   5 1.42   6 1.42
  24  0.666  0.834  0.625-   7 1.42   6 1.42   5 1.42
  25  0.334  0.166  0.375-  11 1.42  10 1.42  12 1.42
  26  0.834  0.166  0.375-  12 1.42   9 1.42  11 1.42
  27  0.334  0.666  0.375-   9 1.42  12 1.42  10 1.42
  28  0.834  0.666  0.375-  10 1.42  11 1.42   9 1.42
  29  0.334  0.166  0.875-  15 1.42  14 1.42  16 1.42
  30  0.834  0.166  0.875-  16 1.42  13 1.42  15 1.42
  31  0.334  0.666  0.875-  13 1.42  16 1.42  14 1.42
  32  0.834  0.666  0.875-  14 1.42  15 1.42  13 1.42
 
  LATTYP: Found a base centered orthorhombic cell.
 ALAT       =     4.9295501972
 B/A-ratio  =     1.7336081796
 C/A-ratio  =     2.5291742391
  
  Lattice vectors:
  
 A1 = (   4.9328744980,  -0.0019192860,   0.0000000000)
 A2 = (  -2.4680993993,   4.2710349859,   0.0000000000)
 A3 = (   0.0000000000,   0.0000000000,  12.4676913689)


Analysis of symmetry for initial positions (statically):
=====================================================================
 Subroutine PRICEL returns:
 Original cell was already a primitive cell.
 

 Routine SETGRP: Setting up the symmetry group for a 
 base centered orthorhombic supercell.


 Subroutine GETGRP returns: Found  1 space group operations
 (whereof  1 operations were pure point group operations)
 out of a pool of  8 trial point group operations.


The static configuration has the point symmetry C_1 .


Analysis of symmetry for dynamics (positions and initial velocities):
=====================================================================
 Subroutine PRICEL returns:
 Original cell was already a primitive cell.
 

 Routine SETGRP: Setting up the symmetry group for a 
 base centered orthorhombic supercell.


 Subroutine GETGRP returns: Found  1 space group operations
 (whereof  1 operations were pure point group operations)
 out of a pool of  8 trial point group operations.


The dynamic configuration has the point symmetry C_1 .
 
 
 KPOINTS: B4C B11C-CBC                            

Automatic generation of k-mesh.
Space group operators:
 irot       det(A)        alpha          n_x          n_y          n_z        tau_x        tau_y        tau_z
    1     1.000000     0.000000     1.000000     0.000000     0.000000     0.000000     0.000000     0.000000
 
 Subroutine IBZKPT returns following result:
 ===========================================
 
 Found    163 irreducible k-points:
 
 Following reciprocal coordinates:
            Coordinates               Weight
  0.000000  0.000000  0.000000      1.000000
  0.111111  0.000000  0.000000      2.000000
  0.222222  0.000000  0.000000      2.000000
  0.333333  0.000000  0.000000      2.000000
  0.444444  0.000000  0.000000      2.000000
 -0.000000  0.111111  0.000000      2.000000
  0.111111  0.111111  0.000000      2.000000
  0.222222  0.111111  0.000000      2.000000
  0.333333  0.111111  0.000000      2.000000
  0.444444  0.111111  0.000000      2.000000
 -0.444444  0.111111  0.000000      2.000000
 -0.333333  0.111111  0.000000      2.000000
 -0.222222  0.111111  0.000000      2.000000
 -0.111111  0.111111  0.000000      2.000000
 -0.000000  0.222222  0.000000      2.000000
  0.111111  0.222222  0.000000      2.000000
  0.222222  0.222222  0.000000      2.000000
  0.333333  0.222222  0.000000      2.000000
  0.444444  0.222222  0.000000      2.000000
 -0.444444  0.222222  0.000000      2.000000
 -0.333333  0.222222  0.000000      2.000000
 -0.222222  0.222222  0.000000      2.000000
 -0.111111  0.222222  0.000000      2.000000
  0.000000  0.333333  0.000000      2.000000
  0.111111  0.333333  0.000000      2.000000
  0.222222  0.333333  0.000000      2.000000
  0.333333  0.333333  0.000000      2.000000
  0.444444  0.333333  0.000000      2.000000
 -0.444444  0.333333  0.000000      2.000000
 -0.333333  0.333333  0.000000      2.000000
 -0.222222  0.333333  0.000000      2.000000
 -0.111111  0.333333  0.000000      2.000000
 -0.000000  0.444444  0.000000      2.000000
  0.111111  0.444444  0.000000      2.000000
  0.222222  0.444444  0.000000      2.000000
  0.333333  0.444444  0.000000      2.000000
  0.444444  0.444444  0.000000      2.000000
 -0.444444  0.444444  0.000000      2.000000
 -0.333333  0.444444  0.000000      2.000000
 -0.222222  0.444444  0.000000      2.000000
 -0.111111  0.444444  0.000000      2.000000
  0.000000  0.000000  0.250000      2.000000
  0.111111  0.000000  0.250000      2.000000
  0.222222  0.000000  0.250000      2.000000
  0.333333  0.000000  0.250000      2.000000
  0.444444  0.000000  0.250000      2.000000
 -0.444444 -0.000000  0.250000      2.000000
 -0.333333 -0.000000  0.250000      2.000000
 -0.222222 -0.000000  0.250000      2.000000
 -0.111111 -0.000000  0.250000      2.000000
 -0.000000  0.111111  0.250000      2.000000
  0.111111  0.111111  0.250000      2.000000
  0.222222  0.111111  0.250000      2.000000
  0.333333  0.111111  0.250000      2.000000
  0.444444  0.111111  0.250000      2.000000
 -0.444444  0.111111  0.250000      2.000000
 -0.333333  0.111111  0.250000      2.000000
 -0.222222  0.111111  0.250000      2.000000
 -0.111111  0.111111  0.250000      2.000000
 -0.000000  0.222222  0.250000      2.000000
  0.111111  0.222222  0.250000      2.000000
  0.222222  0.222222  0.250000      2.000000
  0.333333  0.222222  0.250000      2.000000
  0.444444  0.222222  0.250000      2.000000
 -0.444444  0.222222  0.250000      2.000000
 -0.333333  0.222222  0.250000      2.000000
 -0.222222  0.222222  0.250000      2.000000
 -0.111111  0.222222  0.250000      2.000000
  0.000000  0.333333  0.250000      2.000000
  0.111111  0.333333  0.250000      2.000000
  0.222222  0.333333  0.250000      2.000000
  0.333333  0.333333  0.250000      2.000000
  0.444444  0.333333  0.250000      2.000000
 -0.444444  0.333333  0.250000      2.000000
 -0.333333  0.333333  0.250000      2.000000
 -0.222222  0.333333  0.250000      2.000000
 -0.111111  0.333333  0.250000      2.000000
 -0.000000  0.444444  0.250000      2.000000
  0.111111  0.444444  0.250000      2.000000
  0.222222  0.444444  0.250000      2.000000
  0.333333  0.444444  0.250000      2.000000
  0.444444  0.444444  0.250000      2.000000
 -0.444444  0.444444  0.250000      2.000000
 -0.333333  0.444444  0.250000      2.000000
 -0.222222  0.444444  0.250000      2.000000
 -0.111111  0.444444  0.250000      2.000000
  0.000000 -0.444444  0.250000      2.000000
  0.111111 -0.444444  0.250000      2.000000
  0.222222 -0.444444  0.250000      2.000000
  0.333333 -0.444444  0.250000      2.000000
  0.444444 -0.444444  0.250000      2.000000
 -0.444444 -0.444444  0.250000      2.000000
 -0.333333 -0.444444  0.250000      2.000000
 -0.222222 -0.444444  0.250000      2.000000
 -0.111111 -0.444444  0.250000      2.000000
  0.000000 -0.333333  0.250000      2.000000
  0.111111 -0.333333  0.250000      2.000000
  0.222222 -0.333333  0.250000      2.000000
  0.333333 -0.333333  0.250000      2.000000
  0.444444 -0.333333  0.250000      2.000000
 -0.444444 -0.333333  0.250000      2.000000
 -0.333333 -0.333333  0.250000      2.000000
 -0.222222 -0.333333  0.250000      2.000000
 -0.111111 -0.333333  0.250000      2.000000
  0.000000 -0.222222  0.250000      2.000000
  0.111111 -0.222222  0.250000      2.000000
  0.222222 -0.222222  0.250000      2.000000
  0.333333 -0.222222  0.250000      2.000000
  0.444444 -0.222222  0.250000      2.000000
 -0.444444 -0.222222  0.250000      2.000000
 -0.333333 -0.222222  0.250000      2.000000
 -0.222222 -0.222222  0.250000      2.000000
 -0.111111 -0.222222  0.250000      2.000000
  0.000000 -0.111111  0.250000      2.000000
  0.111111 -0.111111  0.250000      2.000000
  0.222222 -0.111111  0.250000      2.000000
  0.333333 -0.111111  0.250000      2.000000
  0.444444 -0.111111  0.250000      2.000000
 -0.444444 -0.111111  0.250000      2.000000
 -0.333333 -0.111111  0.250000      2.000000
 -0.222222 -0.111111  0.250000      2.000000
 -0.111111 -0.111111  0.250000      2.000000
  0.000000  0.000000  0.500000      1.000000
  0.111111  0.000000  0.500000      2.000000
  0.222222  0.000000  0.500000      2.000000
  0.333333  0.000000  0.500000      2.000000
  0.444444  0.000000  0.500000      2.000000
 -0.000000  0.111111  0.500000      2.000000
  0.111111  0.111111  0.500000      2.000000
  0.222222  0.111111  0.500000      2.000000
  0.333333  0.111111  0.500000      2.000000
  0.444444  0.111111  0.500000      2.000000
 -0.444444  0.111111  0.500000      2.000000
 -0.333333  0.111111  0.500000      2.000000
 -0.222222  0.111111  0.500000      2.000000
 -0.111111  0.111111  0.500000      2.000000
 -0.000000  0.222222  0.500000      2.000000
  0.111111  0.222222  0.500000      2.000000
  0.222222  0.222222  0.500000      2.000000
  0.333333  0.222222  0.500000      2.000000
  0.444444  0.222222  0.500000      2.000000
 -0.444444  0.222222  0.500000      2.000000
 -0.333333  0.222222  0.500000      2.000000
 -0.222222  0.222222  0.500000      2.000000
 -0.111111  0.222222  0.500000      2.000000
  0.000000  0.333333  0.500000      2.000000
  0.111111  0.333333  0.500000      2.000000
  0.222222  0.333333  0.500000      2.000000
  0.333333  0.333333  0.500000      2.000000
  0.444444  0.333333  0.500000      2.000000
 -0.444444  0.333333  0.500000      2.000000
 -0.333333  0.333333  0.500000      2.000000
 -0.222222  0.333333  0.500000      2.000000
 -0.111111  0.333333  0.500000      2.000000
 -0.000000  0.444444  0.500000      2.000000
  0.111111  0.444444  0.500000      2.000000
  0.222222  0.444444  0.500000      2.000000
  0.333333  0.444444  0.500000      2.000000
  0.444444  0.444444  0.500000      2.000000
 -0.444444  0.444444  0.500000      2.000000
 -0.333333  0.444444  0.500000      2.000000
 -0.222222  0.444444  0.500000      2.000000
 -0.111111  0.444444  0.500000      2.000000
 
 Following cartesian coordinates:
            Coordinates               Weight
  0.000000  0.000000  0.000000      1.000000
  0.022530  0.013019  0.000000      2.000000
  0.045059  0.026038  0.000000      2.000000
  0.067589  0.039058  0.000000      2.000000
  0.090119  0.052077  0.000000      2.000000
  0.000010  0.026021  0.000000      2.000000
  0.022540  0.039040  0.000000      2.000000
  0.045069  0.052059  0.000000      2.000000
  0.067599  0.065079  0.000000      2.000000
  0.090129  0.078098  0.000000      2.000000
 -0.090109 -0.026056  0.000000      2.000000
 -0.067579 -0.013037  0.000000      2.000000
 -0.045049 -0.000018  0.000000      2.000000
 -0.022520  0.013002  0.000000      2.000000
  0.000020  0.052042  0.000000      2.000000
  0.022550  0.065061  0.000000      2.000000
  0.045080  0.078080  0.000000      2.000000
  0.067609  0.091099  0.000000      2.000000
  0.090139  0.104119  0.000000      2.000000
 -0.090098 -0.000035  0.000000      2.000000
 -0.067569  0.012984  0.000000      2.000000
 -0.045039  0.026003  0.000000      2.000000
 -0.022509  0.039023  0.000000      2.000000
  0.000030  0.078063  0.000000      2.000000
  0.022560  0.091082  0.000000      2.000000
  0.045090  0.104101  0.000000      2.000000
  0.067619  0.117120  0.000000      2.000000
  0.090149  0.130139  0.000000      2.000000
 -0.090088  0.025986  0.000000      2.000000
 -0.067559  0.039005  0.000000      2.000000
 -0.045029  0.052024  0.000000      2.000000
 -0.022499  0.065043  0.000000      2.000000
  0.000040  0.104084  0.000000      2.000000
  0.022570  0.117103  0.000000      2.000000
  0.045100  0.130122  0.000000      2.000000
  0.067630  0.143141  0.000000      2.000000
  0.090159  0.156160  0.000000      2.000000
 -0.090078  0.052007  0.000000      2.000000
 -0.067549  0.065026  0.000000      2.000000
 -0.045019  0.078045  0.000000      2.000000
 -0.022489  0.091064  0.000000      2.000000
  0.000000  0.000000  0.020052      2.000000
  0.022530  0.013019  0.020052      2.000000
  0.045059  0.026038  0.020052      2.000000
  0.067589  0.039058  0.020052      2.000000
  0.090119  0.052077  0.020052      2.000000
 -0.090119 -0.052077  0.020052      2.000000
 -0.067589 -0.039058  0.020052      2.000000
 -0.045059 -0.026038  0.020052      2.000000
 -0.022530 -0.013019  0.020052      2.000000
  0.000010  0.026021  0.020052      2.000000
  0.022540  0.039040  0.020052      2.000000
  0.045069  0.052059  0.020052      2.000000
  0.067599  0.065079  0.020052      2.000000
  0.090129  0.078098  0.020052      2.000000
 -0.090109 -0.026056  0.020052      2.000000
 -0.067579 -0.013037  0.020052      2.000000
 -0.045049 -0.000018  0.020052      2.000000
 -0.022520  0.013002  0.020052      2.000000
  0.000020  0.052042  0.020052      2.000000
  0.022550  0.065061  0.020052      2.000000
  0.045080  0.078080  0.020052      2.000000
  0.067609  0.091099  0.020052      2.000000
  0.090139  0.104119  0.020052      2.000000
 -0.090098 -0.000035  0.020052      2.000000
 -0.067569  0.012984  0.020052      2.000000
 -0.045039  0.026003  0.020052      2.000000
 -0.022509  0.039023  0.020052      2.000000
  0.000030  0.078063  0.020052      2.000000
  0.022560  0.091082  0.020052      2.000000
  0.045090  0.104101  0.020052      2.000000
  0.067619  0.117120  0.020052      2.000000
  0.090149  0.130139  0.020052      2.000000
 -0.090088  0.025986  0.020052      2.000000
 -0.067559  0.039005  0.020052      2.000000
 -0.045029  0.052024  0.020052      2.000000
 -0.022499  0.065043  0.020052      2.000000
  0.000040  0.104084  0.020052      2.000000
  0.022570  0.117103  0.020052      2.000000
  0.045100  0.130122  0.020052      2.000000
  0.067630  0.143141  0.020052      2.000000
  0.090159  0.156160  0.020052      2.000000
 -0.090078  0.052007  0.020052      2.000000
 -0.067549  0.065026  0.020052      2.000000
 -0.045019  0.078045  0.020052      2.000000
 -0.022489  0.091064  0.020052      2.000000
 -0.000040 -0.104084  0.020052      2.000000
  0.022489 -0.091064  0.020052      2.000000
  0.045019 -0.078045  0.020052      2.000000
  0.067549 -0.065026  0.020052      2.000000
  0.090078 -0.052007  0.020052      2.000000
 -0.090159 -0.156160  0.020052      2.000000
 -0.067630 -0.143141  0.020052      2.000000
 -0.045100 -0.130122  0.020052      2.000000
 -0.022570 -0.117103  0.020052      2.000000
 -0.000030 -0.078063  0.020052      2.000000
  0.022499 -0.065043  0.020052      2.000000
  0.045029 -0.052024  0.020052      2.000000
  0.067559 -0.039005  0.020052      2.000000
  0.090088 -0.025986  0.020052      2.000000
 -0.090149 -0.130139  0.020052      2.000000
 -0.067619 -0.117120  0.020052      2.000000
 -0.045090 -0.104101  0.020052      2.000000
 -0.022560 -0.091082  0.020052      2.000000
 -0.000020 -0.052042  0.020052      2.000000
  0.022509 -0.039023  0.020052      2.000000
  0.045039 -0.026003  0.020052      2.000000
  0.067569 -0.012984  0.020052      2.000000
  0.090098  0.000035  0.020052      2.000000
 -0.090139 -0.104119  0.020052      2.000000
 -0.067609 -0.091099  0.020052      2.000000
 -0.045080 -0.078080  0.020052      2.000000
 -0.022550 -0.065061  0.020052      2.000000
 -0.000010 -0.026021  0.020052      2.000000
  0.022520 -0.013002  0.020052      2.000000
  0.045049  0.000018  0.020052      2.000000
  0.067579  0.013037  0.020052      2.000000
  0.090109  0.026056  0.020052      2.000000
 -0.090129 -0.078098  0.020052      2.000000
 -0.067599 -0.065079  0.020052      2.000000
 -0.045069 -0.052059  0.020052      2.000000
 -0.022540 -0.039040  0.020052      2.000000
  0.000000  0.000000  0.040104      1.000000
  0.022530  0.013019  0.040104      2.000000
  0.045059  0.026038  0.040104      2.000000
  0.067589  0.039058  0.040104      2.000000
  0.090119  0.052077  0.040104      2.000000
  0.000010  0.026021  0.040104      2.000000
  0.022540  0.039040  0.040104      2.000000
  0.045069  0.052059  0.040104      2.000000
  0.067599  0.065079  0.040104      2.000000
  0.090129  0.078098  0.040104      2.000000
 -0.090109 -0.026056  0.040104      2.000000
 -0.067579 -0.013037  0.040104      2.000000
 -0.045049 -0.000018  0.040104      2.000000
 -0.022520  0.013002  0.040104      2.000000
  0.000020  0.052042  0.040104      2.000000
  0.022550  0.065061  0.040104      2.000000
  0.045080  0.078080  0.040104      2.000000
  0.067609  0.091099  0.040104      2.000000
  0.090139  0.104119  0.040104      2.000000
 -0.090098 -0.000035  0.040104      2.000000
 -0.067569  0.012984  0.040104      2.000000
 -0.045039  0.026003  0.040104      2.000000
 -0.022509  0.039023  0.040104      2.000000
  0.000030  0.078063  0.040104      2.000000
  0.022560  0.091082  0.040104      2.000000
  0.045090  0.104101  0.040104      2.000000
  0.067619  0.117120  0.040104      2.000000
  0.090149  0.130139  0.040104      2.000000
 -0.090088  0.025986  0.040104      2.000000
 -0.067559  0.039005  0.040104      2.000000
 -0.045029  0.052024  0.040104      2.000000
 -0.022499  0.065043  0.040104      2.000000
  0.000040  0.104084  0.040104      2.000000
  0.022570  0.117103  0.040104      2.000000
  0.045100  0.130122  0.040104      2.000000
  0.067630  0.143141  0.040104      2.000000
  0.090159  0.156160  0.040104      2.000000
 -0.090078  0.052007  0.040104      2.000000
 -0.067549  0.065026  0.040104      2.000000
 -0.045019  0.078045  0.040104      2.000000
 -0.022489  0.091064  0.040104      2.000000
 
 TETIRR: Found    970 inequivalent tetrahedra from     1944


--------------------------------------------------------------------------------------------------------




 Dimension of arrays:
   k-points           NKPTS =    163   k-points in BZ     NKDIM =    163   number of bands    NBANDS=     84
   number of dos      NEDOS =    301   number of ions     NIONS =     32
   non local maximal  LDIM  =      4   non local SUM 2l+1 LMDIM =      8
   total plane-waves  NPLWV = 160000
   max r-space proj   IRMAX =      1   max aug-charges    IRDMAX=   7388
   dimension x,y,z NGX =    40 NGY =   40 NGZ =  100
   dimension x,y,z NGXF=    80 NGYF=   80 NGZF=  200
   support grid    NGXF=    80 NGYF=   80 NGZF=  200
   ions per type =              32
 NGX,Y,Z   is equivalent  to a cutoff of  13.48, 13.48, 13.33 a.u.
 NGXF,Y,Z  is equivalent  to a cutoff of  26.96, 26.96, 26.67 a.u.


 I would recommend the setting:
   dimension x,y,z NGX =    39 NGY =   39 NGZ =  100
 SYSTEM =  graphite                                
 POSCAR =  C                                       

 Startparameter for this run:
   NWRITE =      2    write-flag & timer
   PREC   = accura    normal or accurate (medium, high low for compatibility)
   ISTART =      0    job   : 0-new  1-cont  2-samecut
   ICHARG =      2    charge: 1-file 2-atom 10-const
   ISPIN  =      1    spin polarized calculation?
   LNONCOLLINEAR =      F non collinear calculations
   LSORBIT =      F    spin-orbit coupling
   INIWAV =      1    electr: 0-lowe 1-rand  2-diag
   LASPH  =      F    aspherical Exc in radial PAW
   METAGGA=      F    non-selfconsistent MetaGGA calc.

 Electronic Relaxation 1
   ENCUT  =  600.0 eV  44.10 Ry    6.64 a.u.   9.85  9.85 24.90*2*pi/ulx,y,z
   ENINI  =  600.0     initial cutoff
   ENAUG  =  644.9 eV  augmentation charge cutoff
   NELM   =    200;   NELMIN=  2; NELMDL=  0     # of ELM steps 
   EDIFF  = 0.1E-05   stopping-criterion for ELM
   LREAL  =      F    real-space projection
   NLSPLINE    = F    spline interpolate recip. space projectors
   LCOMPAT=      F    compatible to vasp.4.4
   GGA_COMPAT  = T    GGA compatible to vasp.4.4-vasp.4.6
   LMAXPAW     = -100 max onsite density
   LMAXMIX     =    2 max onsite mixed and CHGCAR
   VOSKOWN=      0    Vosko Wilk Nusair interpolation
   ROPT   =    0.00000
 Ionic relaxation
   EDIFFG = 0.1E-02   stopping-criterion for IOM
   NSW    =      0    number of steps for IOM
   NBLOCK =      1;   KBLOCK =      1    inner block; outer block 
   IBRION =     -1    ionic relax: 0-MD 1-quasi-New 2-CG
   NFREE  =      0    steps in history (QN), initial steepest desc. (CG)
   ISIF   =      2    stress and relaxation
   IWAVPR =     10    prediction:  0-non 1-charg 2-wave 3-comb
   ISYM   =      2    0-nonsym 1-usesym 2-fastsym
   LCORR  =      T    Harris-Foulkes like correction to forces

   POTIM  = 0.5000    time-step for ionic-motion
   TEIN   =    0.0    initial temperature
   TEBEG  =    0.0;   TEEND  =   0.0 temperature during run
   SMASS  =  -3.00    Nose mass-parameter (am)
   estimated Nose-frequenzy (Omega)   =  0.10E-29 period in steps =****** mass=  -0.556E-27a.u.
   SCALEE = 1.0000    scale energy and forces
   NPACO  =    256;   APACO  = 16.0  distance and # of slots for P.C.
   PSTRESS=    0.0 pullay stress

  Mass of Ions in am
   POMASS =  12.01
  Ionic Valenz
   ZVAL   =   4.00
  Atomic Wigner-Seitz radii
   RWIGS  =  -1.00
  virtual crystal weights 
   VCA    =   1.00
   NELECT =     128.0000    total number of electrons
   NUPDOWN=      -1.0000    fix difference up-down

 DOS related values:
   EMIN   =  10.00;   EMAX   =-10.00  energy-range for DOS
   EFERMI =   0.00
   ISMEAR =    -5;   SIGMA  =   0.20  broadening in eV -4-tet -1-fermi 0-gaus

 Electronic relaxation 2 (details)
   IALGO  =     38    algorithm
   LDIAG  =      T    sub-space diagonalisation (order eigenvalues)
   LSUBROT=      F    optimize rotation matrix (better conditioning)
   TURBO    =      0    0=normal 1=particle mesh
   IRESTART =      0    0=no restart 2=restart with 2 vectors
   NREBOOT  =      0    no. of reboots
   NMIN     =      0    reboot dimension
   EREF     =   0.00    reference energy to select bands
   IMIX   =      4    mixing-type and parameters
     AMIX     =   0.40;   BMIX     =  1.00
     AMIX_MAG =   1.60;   BMIX_MAG =  1.00
     AMIN     =   0.10
     WC   =   100.;   INIMIX=   1;  MIXPRE=   1;  MAXMIX= -45

 Intra band minimization:
   WEIMIN = 0.0000     energy-eigenvalue tresh-hold
   EBREAK =  0.30E-08  absolut break condition
   DEPER  =   0.30     relativ break condition  

   TIME   =   0.40     timestep for ELM

  volume/ion in A,a.u.               =       8.21        55.38
  Fermi-wavevector in a.u.,A,eV,Ry     =   1.288361  2.434650 22.583964  1.659875
  Thomas-Fermi vector in A             =   2.420320
 
 Write flags
   LWAVE  =      F    write WAVECAR
   LCHARG =      F    write CHGCAR
   LVTOT  =      F    write LOCPOT, total local potential
   LVHAR  =      F    write LOCPOT, Hartree potential only
   LELF   =      F    write electronic localiz. function (ELF)
   LORBIT =      0    0 simple, 1 ext, 2 COOP (PROOUT)


 Dipole corrections
   LMONO  =      F    monopole corrections only (constant potential shift)
   LDIPOL =      F    correct potential (dipole corrections)
   IDIPOL =      0    1-x, 2-y, 3-z, 4-all directions 
   EPSILON=  1.0000000 bulk dielectric constant

 Exchange correlation treatment:
   GGA     =    PE    GGA type
   LEXCH   =     8    internal setting for exchange type
   VOSKOWN=      0    Vosko Wilk Nusair interpolation
   LHFCALC =     F    Hartree Fock is set to
   LHFONE  =     F    Hartree Fock one center treatment
   AEXX    =    0.0000 exact exchange contribution

 Linear response parameters
   LEPSILON=     F    determine dielectric tensor
   LRPA    =     F    only Hartree local field effects (RPA)
   LNABLA  =     F    use nabla operator in PAW spheres
   LVEL    =     F    velocity operator in full k-point grid
   LINTERFAST=   F  fast interpolation
   KINTER  =     0    interpolate to denser k-point grid
   CSHIFT  =0.1000    complex shift for real part using Kramers Kronig
   OMEGAMAX=  -1.0    maximum frequency
   DEG_THRESHOLD= 0.2000000E-02 threshold for treating states as degnerate
   RTIME   =    0.100 relaxation time in fs

 Orbital magnetization related:
   ORBITALMAG=     F  switch on orbital magnetization
   LCHIMAG   =     F  perturbation theory with respect to B field
   DQ        =  0.001000  dq finite difference perturbation B field



--------------------------------------------------------------------------------------------------------


 Static calculation
 charge density and potential will be updated during run
 non-spin polarized calculation
 Variant of blocked Davidson
 Davidson routine will perform the subspace rotation
 perform sub-space diagonalisation
    after iterative eigenvector-optimisation
 modified Broyden-mixing scheme, WC =      100.0
 initial mixing is a Kerker type mixing with AMIX =  0.4000 and BMIX =      1.0000
 Hartree-type preconditioning will be used
 using additional bands           20
 reciprocal scheme for non local part
 calculate Harris-corrections to forces 
   (improved forces if not selfconsistent)
 use gradient corrections 
 use of overlap-Matrix (Vanderbilt PP)
 Fermi weights with tetrahedron method with Bloechl corrections


--------------------------------------------------------------------------------------------------------


  energy-cutoff  :      600.00
  volume of cell :      262.62
      direct lattice vectors                 reciprocal lattice vectors
     4.932874498 -0.001919286  0.000000000     0.202767147  0.117172881  0.000000000
    -2.468099399  4.271034986  0.000000000     0.000091118  0.234187941  0.000000000
     0.000000000  0.000000000 12.467691369     0.000000000  0.000000000  0.080207311

  length of vectors
     4.932874871  4.932874871 12.467691369     0.234187958  0.234187958  0.080207311


 
 k-points in units of 2pi/SCALE and weight: B4C B11C-CBC                            
   0.00000000  0.00000000  0.00000000       0.003
   0.02252968  0.01301921  0.00000000       0.006
   0.04505937  0.02603842  0.00000000       0.006
   0.06758905  0.03905763  0.00000000       0.006
   0.09011873  0.05207684  0.00000000       0.006
   0.00001012  0.02602088  0.00000000       0.006
   0.02253981  0.03904009  0.00000000       0.006
   0.04506949  0.05205930  0.00000000       0.006
   0.06759917  0.06507851  0.00000000       0.006
   0.09012886  0.07809772  0.00000000       0.006
  -0.09010861 -0.02605595  0.00000000       0.006
  -0.06757892 -0.01303674  0.00000000       0.006
  -0.04504924 -0.00001754  0.00000000       0.006
  -0.02251956  0.01300167  0.00000000       0.006
   0.00002025  0.05204176  0.00000000       0.006
   0.02254993  0.06506097  0.00000000       0.006
   0.04507961  0.07808018  0.00000000       0.006
   0.06760930  0.09109939  0.00000000       0.006
   0.09013898  0.10411860  0.00000000       0.006
  -0.09009848 -0.00003507  0.00000000       0.006
  -0.06756880  0.01298414  0.00000000       0.006
  -0.04503912  0.02600335  0.00000000       0.006
  -0.02250943  0.03902256  0.00000000       0.006
   0.00003037  0.07806265  0.00000000       0.006
   0.02256006  0.09108186  0.00000000       0.006
   0.04508974  0.10410106  0.00000000       0.006
   0.06761942  0.11712027  0.00000000       0.006
   0.09014910  0.13013948  0.00000000       0.006
  -0.09008836  0.02598581  0.00000000       0.006
  -0.06755868  0.03900502  0.00000000       0.006
  -0.04502899  0.05202423  0.00000000       0.006
  -0.02249931  0.06504344  0.00000000       0.006
   0.00004050  0.10408353  0.00000000       0.006
   0.02257018  0.11710274  0.00000000       0.006
   0.04509986  0.13012195  0.00000000       0.006
   0.06762955  0.14314116  0.00000000       0.006
   0.09015923  0.15616037  0.00000000       0.006
  -0.09007824  0.05200669  0.00000000       0.006
  -0.06754855  0.06502590  0.00000000       0.006
  -0.04501887  0.07804511  0.00000000       0.006
  -0.02248919  0.09106432  0.00000000       0.006
   0.00000000  0.00000000  0.02005183       0.006
   0.02252968  0.01301921  0.02005183       0.006
   0.04505937  0.02603842  0.02005183       0.006
   0.06758905  0.03905763  0.02005183       0.006
   0.09011873  0.05207684  0.02005183       0.006
  -0.09011873 -0.05207684  0.02005183       0.006
  -0.06758905 -0.03905763  0.02005183       0.006
  -0.04505937 -0.02603842  0.02005183       0.006
  -0.02252968 -0.01301921  0.02005183       0.006
   0.00001012  0.02602088  0.02005183       0.006
   0.02253981  0.03904009  0.02005183       0.006
   0.04506949  0.05205930  0.02005183       0.006
   0.06759917  0.06507851  0.02005183       0.006
   0.09012886  0.07809772  0.02005183       0.006
  -0.09010861 -0.02605595  0.02005183       0.006
  -0.06757892 -0.01303674  0.02005183       0.006
  -0.04504924 -0.00001754  0.02005183       0.006
  -0.02251956  0.01300167  0.02005183       0.006
   0.00002025  0.05204176  0.02005183       0.006
   0.02254993  0.06506097  0.02005183       0.006
   0.04507961  0.07808018  0.02005183       0.006
   0.06760930  0.09109939  0.02005183       0.006
   0.09013898  0.10411860  0.02005183       0.006
  -0.09009848 -0.00003507  0.02005183       0.006
  -0.06756880  0.01298414  0.02005183       0.006
  -0.04503912  0.02600335  0.02005183       0.006
  -0.02250943  0.03902256  0.02005183       0.006
   0.00003037  0.07806265  0.02005183       0.006
   0.02256006  0.09108186  0.02005183       0.006
   0.04508974  0.10410106  0.02005183       0.006
   0.06761942  0.11712027  0.02005183       0.006
   0.09014910  0.13013948  0.02005183       0.006
  -0.09008836  0.02598581  0.02005183       0.006
  -0.06755868  0.03900502  0.02005183       0.006
  -0.04502899  0.05202423  0.02005183       0.006
  -0.02249931  0.06504344  0.02005183       0.006
   0.00004050  0.10408353  0.02005183       0.006
   0.02257018  0.11710274  0.02005183       0.006
   0.04509986  0.13012195  0.02005183       0.006
   0.06762955  0.14314116  0.02005183       0.006
   0.09015923  0.15616037  0.02005183       0.006
  -0.09007824  0.05200669  0.02005183       0.006
  -0.06754855  0.06502590  0.02005183       0.006
  -0.04501887  0.07804511  0.02005183       0.006
  -0.02248919  0.09106432  0.02005183       0.006
  -0.00004050 -0.10408353  0.02005183       0.006
   0.02248919 -0.09106432  0.02005183       0.006
   0.04501887 -0.07804511  0.02005183       0.006
   0.06754855 -0.06502590  0.02005183       0.006
   0.09007824 -0.05200669  0.02005183       0.006
  -0.09015923 -0.15616037  0.02005183       0.006
  -0.06762955 -0.14314116  0.02005183       0.006
  -0.04509986 -0.13012195  0.02005183       0.006
  -0.02257018 -0.11710274  0.02005183       0.006
  -0.00003037 -0.07806265  0.02005183       0.006
   0.02249931 -0.06504344  0.02005183       0.006
   0.04502899 -0.05202423  0.02005183       0.006
   0.06755868 -0.03900502  0.02005183       0.006
   0.09008836 -0.02598581  0.02005183       0.006
  -0.09014910 -0.13013948  0.02005183       0.006
  -0.06761942 -0.11712027  0.02005183       0.006
  -0.04508974 -0.10410106  0.02005183       0.006
  -0.02256006 -0.09108186  0.02005183       0.006
  -0.00002025 -0.05204176  0.02005183       0.006
   0.02250943 -0.03902256  0.02005183       0.006
   0.04503912 -0.02600335  0.02005183       0.006
   0.06756880 -0.01298414  0.02005183       0.006
   0.09009848  0.00003507  0.02005183       0.006
  -0.09013898 -0.10411860  0.02005183       0.006
  -0.06760930 -0.09109939  0.02005183       0.006
  -0.04507961 -0.07808018  0.02005183       0.006
  -0.02254993 -0.06506097  0.02005183       0.006
  -0.00001012 -0.02602088  0.02005183       0.006
   0.02251956 -0.01300167  0.02005183       0.006
   0.04504924  0.00001754  0.02005183       0.006
   0.06757892  0.01303674  0.02005183       0.006
   0.09010861  0.02605595  0.02005183       0.006
  -0.09012886 -0.07809772  0.02005183       0.006
  -0.06759917 -0.06507851  0.02005183       0.006
  -0.04506949 -0.05205930  0.02005183       0.006
  -0.02253981 -0.03904009  0.02005183       0.006
   0.00000000  0.00000000  0.04010366       0.003
   0.02252968  0.01301921  0.04010366       0.006
   0.04505937  0.02603842  0.04010366       0.006
   0.06758905  0.03905763  0.04010366       0.006
   0.09011873  0.05207684  0.04010366       0.006
   0.00001012  0.02602088  0.04010366       0.006
   0.02253981  0.03904009  0.04010366       0.006
   0.04506949  0.05205930  0.04010366       0.006
   0.06759917  0.06507851  0.04010366       0.006
   0.09012886  0.07809772  0.04010366       0.006
  -0.09010861 -0.02605595  0.04010366       0.006
  -0.06757892 -0.01303674  0.04010366       0.006
  -0.04504924 -0.00001754  0.04010366       0.006
  -0.02251956  0.01300167  0.04010366       0.006
   0.00002025  0.05204176  0.04010366       0.006
   0.02254993  0.06506097  0.04010366       0.006
   0.04507961  0.07808018  0.04010366       0.006
   0.06760930  0.09109939  0.04010366       0.006
   0.09013898  0.10411860  0.04010366       0.006
  -0.09009848 -0.00003507  0.04010366       0.006
  -0.06756880  0.01298414  0.04010366       0.006
  -0.04503912  0.02600335  0.04010366       0.006
  -0.02250943  0.03902256  0.04010366       0.006
   0.00003037  0.07806265  0.04010366       0.006
   0.02256006  0.09108186  0.04010366       0.006
   0.04508974  0.10410106  0.04010366       0.006
   0.06761942  0.11712027  0.04010366       0.006
   0.09014910  0.13013948  0.04010366       0.006
  -0.09008836  0.02598581  0.04010366       0.006
  -0.06755868  0.03900502  0.04010366       0.006
  -0.04502899  0.05202423  0.04010366       0.006
  -0.02249931  0.06504344  0.04010366       0.006
   0.00004050  0.10408353  0.04010366       0.006
   0.02257018  0.11710274  0.04010366       0.006
   0.04509986  0.13012195  0.04010366       0.006
   0.06762955  0.14314116  0.04010366       0.006
   0.09015923  0.15616037  0.04010366       0.006
  -0.09007824  0.05200669  0.04010366       0.006
  -0.06754855  0.06502590  0.04010366       0.006
  -0.04501887  0.07804511  0.04010366       0.006
  -0.02248919  0.09106432  0.04010366       0.006
 
 k-points in reciprocal lattice and weights: B4C B11C-CBC                            
   0.00000000  0.00000000  0.00000000       0.003
   0.11111111  0.00000000  0.00000000       0.006
   0.22222222  0.00000000  0.00000000       0.006
   0.33333333  0.00000000  0.00000000       0.006
   0.44444444  0.00000000  0.00000000       0.006
  -0.00000000  0.11111111  0.00000000       0.006
   0.11111111  0.11111111  0.00000000       0.006
   0.22222222  0.11111111  0.00000000       0.006
   0.33333333  0.11111111  0.00000000       0.006
   0.44444444  0.11111111  0.00000000       0.006
  -0.44444444  0.11111111  0.00000000       0.006
  -0.33333333  0.11111111  0.00000000       0.006
  -0.22222222  0.11111111  0.00000000       0.006
  -0.11111111  0.11111111  0.00000000       0.006
  -0.00000000  0.22222222  0.00000000       0.006
   0.11111111  0.22222222  0.00000000       0.006
   0.22222222  0.22222222  0.00000000       0.006
   0.33333333  0.22222222  0.00000000       0.006
   0.44444444  0.22222222  0.00000000       0.006
  -0.44444444  0.22222222  0.00000000       0.006
  -0.33333333  0.22222222  0.00000000       0.006
  -0.22222222  0.22222222  0.00000000       0.006
  -0.11111111  0.22222222  0.00000000       0.006
   0.00000000  0.33333333  0.00000000       0.006
   0.11111111  0.33333333  0.00000000       0.006
   0.22222222  0.33333333  0.00000000       0.006
   0.33333333  0.33333333  0.00000000       0.006
   0.44444444  0.33333333  0.00000000       0.006
  -0.44444444  0.33333333  0.00000000       0.006
  -0.33333333  0.33333333  0.00000000       0.006
  -0.22222222  0.33333333  0.00000000       0.006
  -0.11111111  0.33333333  0.00000000       0.006
  -0.00000000  0.44444444  0.00000000       0.006
   0.11111111  0.44444444  0.00000000       0.006
   0.22222222  0.44444444  0.00000000       0.006
   0.33333333  0.44444444  0.00000000       0.006
   0.44444444  0.44444444  0.00000000       0.006
  -0.44444444  0.44444444  0.00000000       0.006
  -0.33333333  0.44444444  0.00000000       0.006
  -0.22222222  0.44444444  0.00000000       0.006
  -0.11111111  0.44444444  0.00000000       0.006
   0.00000000  0.00000000  0.25000000       0.006
   0.11111111  0.00000000  0.25000000       0.006
   0.22222222  0.00000000  0.25000000       0.006
   0.33333333  0.00000000  0.25000000       0.006
   0.44444444  0.00000000  0.25000000       0.006
  -0.44444444 -0.00000000  0.25000000       0.006
  -0.33333333 -0.00000000  0.25000000       0.006
  -0.22222222 -0.00000000  0.25000000       0.006
  -0.11111111 -0.00000000  0.25000000       0.006
  -0.00000000  0.11111111  0.25000000       0.006
   0.11111111  0.11111111  0.25000000       0.006
   0.22222222  0.11111111  0.25000000       0.006
   0.33333333  0.11111111  0.25000000       0.006
   0.44444444  0.11111111  0.25000000       0.006
  -0.44444444  0.11111111  0.25000000       0.006
  -0.33333333  0.11111111  0.25000000       0.006
  -0.22222222  0.11111111  0.25000000       0.006
  -0.11111111  0.11111111  0.25000000       0.006
  -0.00000000  0.22222222  0.25000000       0.006
   0.11111111  0.22222222  0.25000000       0.006
   0.22222222  0.22222222  0.25000000       0.006
   0.33333333  0.22222222  0.25000000       0.006
   0.44444444  0.22222222  0.25000000       0.006
  -0.44444444  0.22222222  0.25000000       0.006
  -0.33333333  0.22222222  0.25000000       0.006
  -0.22222222  0.22222222  0.25000000       0.006
  -0.11111111  0.22222222  0.25000000       0.006
   0.00000000  0.33333333  0.25000000       0.006
   0.11111111  0.33333333  0.25000000       0.006
   0.22222222  0.33333333  0.25000000       0.006
   0.33333333  0.33333333  0.25000000       0.006
   0.44444444  0.33333333  0.25000000       0.006
  -0.44444444  0.33333333  0.25000000       0.006
  -0.33333333  0.33333333  0.25000000       0.006
  -0.22222222  0.33333333  0.25000000       0.006
  -0.11111111  0.33333333  0.25000000       0.006
  -0.00000000  0.44444444  0.25000000       0.006
   0.11111111  0.44444444  0.25000000       0.006
   0.22222222  0.44444444  0.25000000       0.006
   0.33333333  0.44444444  0.25000000       0.006
   0.44444444  0.44444444  0.25000000       0.006
  -0.44444444  0.44444444  0.25000000       0.006
  -0.33333333  0.44444444  0.25000000       0.006
  -0.22222222  0.44444444  0.25000000       0.006
  -0.11111111  0.44444444  0.25000000       0.006
   0.00000000 -0.44444444  0.25000000       0.006
   0.11111111 -0.44444444  0.25000000       0.006
   0.22222222 -0.44444444  0.25000000       0.006
   0.33333333 -0.44444444  0.25000000       0.006
   0.44444444 -0.44444444  0.25000000       0.006
  -0.44444444 -0.44444444  0.25000000       0.006
  -0.33333333 -0.44444444  0.25000000       0.006
  -0.22222222 -0.44444444  0.25000000       0.006
  -0.11111111 -0.44444444  0.25000000       0.006
   0.00000000 -0.33333333  0.25000000       0.006
   0.11111111 -0.33333333  0.25000000       0.006
   0.22222222 -0.33333333  0.25000000       0.006
   0.33333333 -0.33333333  0.25000000       0.006
   0.44444444 -0.33333333  0.25000000       0.006
  -0.44444444 -0.33333333  0.25000000       0.006
  -0.33333333 -0.33333333  0.25000000       0.006
  -0.22222222 -0.33333333  0.25000000       0.006
  -0.11111111 -0.33333333  0.25000000       0.006
   0.00000000 -0.22222222  0.25000000       0.006
   0.11111111 -0.22222222  0.25000000       0.006
   0.22222222 -0.22222222  0.25000000       0.006
   0.33333333 -0.22222222  0.25000000       0.006
   0.44444444 -0.22222222  0.25000000       0.006
  -0.44444444 -0.22222222  0.25000000       0.006
  -0.33333333 -0.22222222  0.25000000       0.006
  -0.22222222 -0.22222222  0.25000000       0.006
  -0.11111111 -0.22222222  0.25000000       0.006
   0.00000000 -0.11111111  0.25000000       0.006
   0.11111111 -0.11111111  0.25000000       0.006
   0.22222222 -0.11111111  0.25000000       0.006
   0.33333333 -0.11111111  0.25000000       0.006
   0.44444444 -0.11111111  0.25000000       0.006
  -0.44444444 -0.11111111  0.25000000       0.006
  -0.33333333 -0.11111111  0.25000000       0.006
  -0.22222222 -0.11111111  0.25000000       0.006
  -0.11111111 -0.11111111  0.25000000       0.006
   0.00000000  0.00000000  0.50000000       0.003
   0.11111111  0.00000000  0.50000000       0.006
   0.22222222  0.00000000  0.50000000       0.006
   0.33333333  0.00000000  0.50000000       0.006
   0.44444444  0.00000000  0.50000000       0.006
  -0.00000000  0.11111111  0.50000000       0.006
   0.11111111  0.11111111  0.50000000       0.006
   0.22222222  0.11111111  0.50000000       0.006
   0.33333333  0.11111111  0.50000000       0.006
   0.44444444  0.11111111  0.50000000       0.006
  -0.44444444  0.11111111  0.50000000       0.006
  -0.33333333  0.11111111  0.50000000       0.006
  -0.22222222  0.11111111  0.50000000       0.006
  -0.11111111  0.11111111  0.50000000       0.006
  -0.00000000  0.22222222  0.50000000       0.006
   0.11111111  0.22222222  0.50000000       0.006
   0.22222222  0.22222222  0.50000000       0.006
   0.33333333  0.22222222  0.50000000       0.006
   0.44444444  0.22222222  0.50000000       0.006
  -0.44444444  0.22222222  0.50000000       0.006
  -0.33333333  0.22222222  0.50000000       0.006
  -0.22222222  0.22222222  0.50000000       0.006
  -0.11111111  0.22222222  0.50000000       0.006
   0.00000000  0.33333333  0.50000000       0.006
   0.11111111  0.33333333  0.50000000       0.006
   0.22222222  0.33333333  0.50000000       0.006
   0.33333333  0.33333333  0.50000000       0.006
   0.44444444  0.33333333  0.50000000       0.006
  -0.44444444  0.33333333  0.50000000       0.006
  -0.33333333  0.33333333  0.50000000       0.006
  -0.22222222  0.33333333  0.50000000       0.006
  -0.11111111  0.33333333  0.50000000       0.006
  -0.00000000  0.44444444  0.50000000       0.006
   0.11111111  0.44444444  0.50000000       0.006
   0.22222222  0.44444444  0.50000000       0.006
   0.33333333  0.44444444  0.50000000       0.006
   0.44444444  0.44444444  0.50000000       0.006
  -0.44444444  0.44444444  0.50000000       0.006
  -0.33333333  0.44444444  0.50000000       0.006
  -0.22222222  0.44444444  0.50000000       0.006
  -0.11111111  0.44444444  0.50000000       0.006
 
 position of ions in fractional coordinates (direct lattice) 
   0.49967330  0.00032672  0.12500000
   0.99967330  0.00032672  0.12500000
   0.49967330  0.50032672  0.12500000
   0.99967330  0.50032672  0.12500000
   0.49967330  0.00032672  0.62500000
   0.99967330  0.00032672  0.62500000
   0.49967330  0.50032672  0.62500000
   0.99967330  0.50032672  0.62500000
   0.00032672  0.49967330  0.37500000
   0.50032672  0.49967330  0.37500000
   0.00032672  0.99967330  0.37500000
   0.50032672  0.99967330  0.37500000
   0.00032672  0.49967330  0.87500000
   0.50032672  0.49967330  0.87500000
   0.00032672  0.99967330  0.87500000
   0.50032672  0.99967330  0.87500000
   0.16554664  0.33370753  0.12425418
   0.66629246  0.33370753  0.12500000
   0.16629246  0.83370753  0.12500000
   0.66629246  0.83370753  0.12500000
   0.16629246  0.33370753  0.62500000
   0.66629246  0.33370753  0.62500000
   0.16629246  0.83370753  0.62500000
   0.66629246  0.83370753  0.62500000
   0.33370753  0.16629246  0.37500000
   0.83370753  0.16629246  0.37500000
   0.33370753  0.66629246  0.37500000
   0.83370753  0.66629246  0.37500000
   0.33370753  0.16629246  0.87500000
   0.83370753  0.16629246  0.87500000
   0.33370753  0.66629246  0.87500000
   0.83370753  0.66629246  0.87500000
 
 position of ions in cartesian coordinates  (Angst):
   2.46401933  0.00043641  1.55846142
   4.93045658 -0.00052323  1.55846142
   1.22996963  2.13595390  1.55846142
   3.69640688  2.13499426  1.55846142
   2.46401933  0.00043641  7.79230711
   4.93045658 -0.00052323  7.79230711
   1.22996963  2.13595390  7.79230711
   3.69640688  2.13499426  7.79230711
  -1.23163172  2.13412154  4.67538426
   1.23480553  2.13316189  4.67538426
  -2.46568142  4.26963903  4.67538426
   0.00075583  4.26867939  4.67538426
  -1.23163172  2.13412154 10.90922995
   1.23480553  2.13316189 10.90922995
  -2.46568142  4.26963903 10.90922995
   0.00075583  4.26867939 10.90922995
  -0.00700254  1.42495880  1.54916278
   2.46311374  1.42399773  1.55846142
  -1.23737320  3.56047486  1.55846142
   1.22906405  3.55951522  1.55846142
  -0.00332350  1.42495737  7.79230711
   2.46311374  1.42399773  7.79230711
  -1.23737320  3.56047486  7.79230711
   1.22906405  3.55951522  7.79230711
   1.23571103  0.70960044  4.67538426
   3.70214828  0.70864080  4.67538426
   0.00166133  2.84511794  4.67538426
   2.46809858  2.84415829  4.67538426
   1.23571103  0.70960044 10.90922995
   3.70214828  0.70864080 10.90922995
   0.00166133  2.84511794 10.90922995
   2.46809858  2.84415829 10.90922995
 


--------------------------------------------------------------------------------------------------------


 k-point  1 :   0.0000 0.0000 0.0000  plane waves:    8701
 k-point  2 :   0.1111 0.0000 0.0000  plane waves:    8731
 k-point  3 :   0.2222 0.0000 0.0000  plane waves:    8779
 k-point  4 :   0.3333 0.0000 0.0000  plane waves:    8767
 k-point  5 :   0.4444 0.0000 0.0000  plane waves:    8777
 k-point  6 :  -0.0000 0.1111 0.0000  plane waves:    8731
 k-point  7 :   0.1111 0.1111 0.0000  plane waves:    8742
 k-point  8 :   0.2222 0.1111 0.0000  plane waves:    8754
 k-point  9 :   0.3333 0.1111 0.0000  plane waves:    8762
 k-point 10 :   0.4444 0.1111 0.0000  plane waves:    8798
 k-point 11 :  -0.4444 0.1111 0.0000  plane waves:    8764
 k-point 12 :  -0.3333 0.1111 0.0000  plane waves:    8752
 k-point 13 :  -0.2222 0.1111 0.0000  plane waves:    8742
 k-point 14 :  -0.1111 0.1111 0.0000  plane waves:    8731
 k-point 15 :  -0.0000 0.2222 0.0000  plane waves:    8779
 k-point 16 :   0.1111 0.2222 0.0000  plane waves:    8754
 k-point 17 :   0.2222 0.2222 0.0000  plane waves:    8748
 k-point 18 :   0.3333 0.2222 0.0000  plane waves:    8762
 k-point 19 :   0.4444 0.2222 0.0000  plane waves:    8760
 k-point 20 :  -0.4444 0.2222 0.0000  plane waves:    8750
 k-point 21 :  -0.3333 0.2222 0.0000  plane waves:    8760
 k-point 22 :  -0.2222 0.2222 0.0000  plane waves:    8781
 k-point 23 :  -0.1111 0.2222 0.0000  plane waves:    8742
 k-point 24 :   0.0000 0.3333 0.0000  plane waves:    8767
 k-point 25 :   0.1111 0.3333 0.0000  plane waves:    8762
 k-point 26 :   0.2222 0.3333 0.0000  plane waves:    8762
 k-point 27 :   0.3333 0.3333 0.0000  plane waves:    8788
 k-point 28 :   0.4444 0.3333 0.0000  plane waves:    8764
 k-point 29 :  -0.4444 0.3333 0.0000  plane waves:    8768
 k-point 30 :  -0.3333 0.3333 0.0000  plane waves:    8765
 k-point 31 :  -0.2222 0.3333 0.0000  plane waves:    8760
 k-point 32 :  -0.1111 0.3333 0.0000  plane waves:    8752
 k-point 33 :  -0.0000 0.4444 0.0000  plane waves:    8777
 k-point 34 :   0.1111 0.4444 0.0000  plane waves:    8798
 k-point 35 :   0.2222 0.4444 0.0000  plane waves:    8760
 k-point 36 :   0.3333 0.4444 0.0000  plane waves:    8764
 k-point 37 :   0.4444 0.4444 0.0000  plane waves:    8788
 k-point 38 :  -0.4444 0.4444 0.0000  plane waves:    8785
 k-point 39 :  -0.3333 0.4444 0.0000  plane waves:    8768
 k-point 40 :  -0.2222 0.4444 0.0000  plane waves:    8750
 k-point 41 :  -0.1111 0.4444 0.0000  plane waves:    8764
 k-point 42 :   0.0000 0.0000 0.2500  plane waves:    8700
 k-point 43 :   0.1111 0.0000 0.2500  plane waves:    8734
 k-point 44 :   0.2222 0.0000 0.2500  plane waves:    8763
 k-point 45 :   0.3333 0.0000 0.2500  plane waves:    8775
 k-point 46 :   0.4444 0.0000 0.2500  plane waves:    8780
 k-point 47 :  -0.4444-0.0000 0.2500  plane waves:    8780
 k-point 48 :  -0.3333-0.0000 0.2500  plane waves:    8775
 k-point 49 :  -0.2222-0.0000 0.2500  plane waves:    8763
 k-point 50 :  -0.1111-0.0000 0.2500  plane waves:    8734
 k-point 51 :  -0.0000 0.1111 0.2500  plane waves:    8734
 k-point 52 :   0.1111 0.1111 0.2500  plane waves:    8740
 k-point 53 :   0.2222 0.1111 0.2500  plane waves:    8764
 k-point 54 :   0.3333 0.1111 0.2500  plane waves:    8768
 k-point 55 :   0.4444 0.1111 0.2500  plane waves:    8774
 k-point 56 :  -0.4444 0.1111 0.2500  plane waves:    8769
 k-point 57 :  -0.3333 0.1111 0.2500  plane waves:    8767
 k-point 58 :  -0.2222 0.1111 0.2500  plane waves:    8742
 k-point 59 :  -0.1111 0.1111 0.2500  plane waves:    8734
 k-point 60 :  -0.0000 0.2222 0.2500  plane waves:    8763
 k-point 61 :   0.1111 0.2222 0.2500  plane waves:    8764
 k-point 62 :   0.2222 0.2222 0.2500  plane waves:    8762
 k-point 63 :   0.3333 0.2222 0.2500  plane waves:    8775
 k-point 64 :   0.4444 0.2222 0.2500  plane waves:    8777
 k-point 65 :  -0.4444 0.2222 0.2500  plane waves:    8763
 k-point 66 :  -0.3333 0.2222 0.2500  plane waves:    8767
 k-point 67 :  -0.2222 0.2222 0.2500  plane waves:    8770
 k-point 68 :  -0.1111 0.2222 0.2500  plane waves:    8742
 k-point 69 :   0.0000 0.3333 0.2500  plane waves:    8775
 k-point 70 :   0.1111 0.3333 0.2500  plane waves:    8768
 k-point 71 :   0.2222 0.3333 0.2500  plane waves:    8775
 k-point 72 :   0.3333 0.3333 0.2500  plane waves:    8774
 k-point 73 :   0.4444 0.3333 0.2500  plane waves:    8778
 k-point 74 :  -0.4444 0.3333 0.2500  plane waves:    8769
 k-point 75 :  -0.3333 0.3333 0.2500  plane waves:    8781
 k-point 76 :  -0.2222 0.3333 0.2500  plane waves:    8767
 k-point 77 :  -0.1111 0.3333 0.2500  plane waves:    8767
 k-point 78 :  -0.0000 0.4444 0.2500  plane waves:    8780
 k-point 79 :   0.1111 0.4444 0.2500  plane waves:    8774
 k-point 80 :   0.2222 0.4444 0.2500  plane waves:    8777
 k-point 81 :   0.3333 0.4444 0.2500  plane waves:    8778
 k-point 82 :   0.4444 0.4444 0.2500  plane waves:    8770
 k-point 83 :  -0.4444 0.4444 0.2500  plane waves:    8781
 k-point 84 :  -0.3333 0.4444 0.2500  plane waves:    8769
 k-point 85 :  -0.2222 0.4444 0.2500  plane waves:    8763
 k-point 86 :  -0.1111 0.4444 0.2500  plane waves:    8769
 k-point 87 :   0.0000-0.4444 0.2500  plane waves:    8780
 k-point 88 :   0.1111-0.4444 0.2500  plane waves:    8769
 k-point 89 :   0.2222-0.4444 0.2500  plane waves:    8763
 k-point 90 :   0.3333-0.4444 0.2500  plane waves:    8769
 k-point 91 :   0.4444-0.4444 0.2500  plane waves:    8781
 k-point 92 :  -0.4444-0.4444 0.2500  plane waves:    8770
 k-point 93 :  -0.3333-0.4444 0.2500  plane waves:    8778
 k-point 94 :  -0.2222-0.4444 0.2500  plane waves:    8777
 k-point 95 :  -0.1111-0.4444 0.2500  plane waves:    8774
 k-point 96 :   0.0000-0.3333 0.2500  plane waves:    8775
 k-point 97 :   0.1111-0.3333 0.2500  plane waves:    8767
 k-point 98 :   0.2222-0.3333 0.2500  plane waves:    8767
 k-point 99 :   0.3333-0.3333 0.2500  plane waves:    8781
 k-point ** :   0.4444-0.3333 0.2500  plane waves:    8769
 k-point ** :  -0.4444-0.3333 0.2500  plane waves:    8778
 k-point ** :  -0.3333-0.3333 0.2500  plane waves:    8774
 k-point ** :  -0.2222-0.3333 0.2500  plane waves:    8775
 k-point ** :  -0.1111-0.3333 0.2500  plane waves:    8768
 k-point ** :   0.0000-0.2222 0.2500  plane waves:    8763
 k-point ** :   0.1111-0.2222 0.2500  plane waves:    8742
 k-point ** :   0.2222-0.2222 0.2500  plane waves:    8770
 k-point ** :   0.3333-0.2222 0.2500  plane waves:    8767
 k-point ** :   0.4444-0.2222 0.2500  plane waves:    8763
 k-point ** :  -0.4444-0.2222 0.2500  plane waves:    8777
 k-point ** :  -0.3333-0.2222 0.2500  plane waves:    8775
 k-point ** :  -0.2222-0.2222 0.2500  plane waves:    8762
 k-point ** :  -0.1111-0.2222 0.2500  plane waves:    8764
 k-point ** :   0.0000-0.1111 0.2500  plane waves:    8734
 k-point ** :   0.1111-0.1111 0.2500  plane waves:    8734
 k-point ** :   0.2222-0.1111 0.2500  plane waves:    8742
 k-point ** :   0.3333-0.1111 0.2500  plane waves:    8767
 k-point ** :   0.4444-0.1111 0.2500  plane waves:    8769
 k-point ** :  -0.4444-0.1111 0.2500  plane waves:    8774
 k-point ** :  -0.3333-0.1111 0.2500  plane waves:    8768
 k-point ** :  -0.2222-0.1111 0.2500  plane waves:    8764
 k-point ** :  -0.1111-0.1111 0.2500  plane waves:    8740
 k-point ** :   0.0000 0.0000 0.5000  plane waves:    8726
 k-point ** :   0.1111 0.0000 0.5000  plane waves:    8752
 k-point ** :   0.2222 0.0000 0.5000  plane waves:    8742
 k-point ** :   0.3333 0.0000 0.5000  plane waves:    8784
 k-point ** :   0.4444 0.0000 0.5000  plane waves:    8786
 k-point ** :  -0.0000 0.1111 0.5000  plane waves:    8752
 k-point ** :   0.1111 0.1111 0.5000  plane waves:    8754
 k-point ** :   0.2222 0.1111 0.5000  plane waves:    8770
 k-point ** :   0.3333 0.1111 0.5000  plane waves:    8768
 k-point ** :   0.4444 0.1111 0.5000  plane waves:    8772
 k-point ** :  -0.4444 0.1111 0.5000  plane waves:    8770
 k-point ** :  -0.3333 0.1111 0.5000  plane waves:    8772
 k-point ** :  -0.2222 0.1111 0.5000  plane waves:    8754
 k-point ** :  -0.1111 0.1111 0.5000  plane waves:    8752
 k-point ** :  -0.0000 0.2222 0.5000  plane waves:    8742
 k-point ** :   0.1111 0.2222 0.5000  plane waves:    8770
 k-point ** :   0.2222 0.2222 0.5000  plane waves:    8776
 k-point ** :   0.3333 0.2222 0.5000  plane waves:    8774
 k-point ** :   0.4444 0.2222 0.5000  plane waves:    8768
 k-point ** :  -0.4444 0.2222 0.5000  plane waves:    8778
 k-point ** :  -0.3333 0.2222 0.5000  plane waves:    8774
 k-point ** :  -0.2222 0.2222 0.5000  plane waves:    8742
 k-point ** :  -0.1111 0.2222 0.5000  plane waves:    8754
 k-point ** :   0.0000 0.3333 0.5000  plane waves:    8784
 k-point ** :   0.1111 0.3333 0.5000  plane waves:    8768
 k-point ** :   0.2222 0.3333 0.5000  plane waves:    8774
 k-point ** :   0.3333 0.3333 0.5000  plane waves:    8766
 k-point ** :   0.4444 0.3333 0.5000  plane waves:    8770
 k-point ** :  -0.4444 0.3333 0.5000  plane waves:    8776
 k-point ** :  -0.3333 0.3333 0.5000  plane waves:    8780
 k-point ** :  -0.2222 0.3333 0.5000  plane waves:    8774
 k-point ** :  -0.1111 0.3333 0.5000  plane waves:    8772
 k-point ** :  -0.0000 0.4444 0.5000  plane waves:    8786
 k-point ** :   0.1111 0.4444 0.5000  plane waves:    8772
 k-point ** :   0.2222 0.4444 0.5000  plane waves:    8768
 k-point ** :   0.3333 0.4444 0.5000  plane waves:    8770
 k-point ** :   0.4444 0.4444 0.5000  plane waves:    8768
 k-point ** :  -0.4444 0.4444 0.5000  plane waves:    8782
 k-point ** :  -0.3333 0.4444 0.5000  plane waves:    8776
 k-point ** :  -0.2222 0.4444 0.5000  plane waves:    8778
 k-point ** :  -0.1111 0.4444 0.5000  plane waves:    8770

 maximum and minimum number of plane-waves per node :      8798     8700

 maximum number of plane-waves:      8798
 maximum index in each direction: 
   IXMAX=   10   IYMAX=   10   IZMAX=   24
   IXMIN=  -10   IYMIN=  -10   IZMIN=  -25

 WARNING: aliasing errors must be expected set NGX to  42 to avoid them
 WARNING: aliasing errors must be expected set NGY to  42 to avoid them
 NGZ is ok and might be reduce to 100
 aliasing errors are usually negligible using standard VASP settings
 and one can safely disregard these warnings

 serial   3D FFT for wavefunctions
 parallel 3D FFT for charge:
    minimum data exchange during FFTs selected (reduces bandwidth)


 total amount of memory used by VASP on root node   482616. kBytes
========================================================================

   base      :      30000. kBytes
   nonl-proj :      96329. kBytes
   fftplans  :       8142. kBytes
   grid      :      17249. kBytes
   one-center:         98. kBytes
   wavefun   :     330798. kBytes
 
     INWAV:  cpu time    0.00: real time    0.00
 Broyden mixing: mesh for mixing (old mesh)
   NGX = 19   NGY = 19   NGZ = 49
  (NGX  = 80   NGY  = 80   NGZ  =200)
  gives a total of  17689 points

 initial charge density was supplied:
 charge density of overlapping atoms calculated
 number of electron     128.0000000 magnetization 
 keeping initial charge density in first step


--------------------------------------------------------------------------------------------------------


 Maximum index for augmentation-charges         1420 (set IRDMAX)


--------------------------------------------------------------------------------------------------------


 First call to EWALD:  gamma=   0.277
 Maximum number of real-space cells 4x 4x 2
 Maximum number of reciprocal cells 2x 2x 5

 FEWALD executed in parallel
    FEWALD:  cpu time    0.00: real time    0.00


----------------------------------------- Iteration    1(   1)  ---------------------------------------


    POTLOK:  cpu time    0.36: real time    0.36
    SETDIJ:  cpu time    0.01: real time    0.01
     EDDAV:  cpu time   99.93: real time   99.98
 BZINTS: Fermi energy: 16.565020;128.000000 electrons
         Band energy: 129.627230;  BLOECHL correction: -0.119531
       DOS:  cpu time    0.11: real time    0.11
    --------------------------------------------
      LOOP:  cpu time  100.41: real time  100.48

 eigenvalue-minimisations  : 27384
 total energy-change (2. order) : 0.5581698E+03  (-0.7256550E+04)
 number of electron     128.0000000 magnetization 
 augmentation part      128.0000000 magnetization 

 Free energy of the ion-electron system (eV)
  ---------------------------------------------------
  alpha Z        PSCENC =       317.70955013
  Ewald energy   TEWEN  =     -4034.92344139
  -Hartree energ DENC   =      -970.56133527
  -exchange      EXHF   =         0.00000000
  -V(xc)+E(xc)   XCENC  =       444.32390477
  PAW double counting   =      1210.60617908    -1247.42152856
  entropy T*S    EENTRO =         0.00000000
  eigenvalues    EBANDS =       129.62722976
  atomic energy  EATOM  =      4708.80920826
  ---------------------------------------------------
  free energy    TOTEN  =       558.16976678 eV

  energy without entropy =      558.16976678  energy(sigma->0) =      558.16976678


--------------------------------------------------------------------------------------------------------




----------------------------------------- Iteration    1(   2)  ---------------------------------------


     EDDAV:  cpu time  123.74: real time  123.80
 BZINTS: Fermi energy:  4.669357;128.000000 electrons
         Band energy:-694.553210;  BLOECHL correction: -0.001172
       DOS:  cpu time    0.10: real time    0.10
    --------------------------------------------
      LOOP:  cpu time  123.84: real time  123.91

 eigenvalue-minimisations  : 33924
 total energy-change (2. order) :-0.8241804E+03  (-0.7939876E+03)
 number of electron     128.0000000 magnetization 
 augmentation part      128.0000000 magnetization 

 Free energy of the ion-electron system (eV)
  ---------------------------------------------------
  alpha Z        PSCENC =       317.70955013
  Ewald energy   TEWEN  =     -4034.92344139
  -Hartree energ DENC   =      -970.56133527
  -exchange      EXHF   =         0.00000000
  -V(xc)+E(xc)   XCENC  =       444.32390477
  PAW double counting   =      1210.60617908    -1247.42152856
  entropy T*S    EENTRO =         0.00000000
  eigenvalues    EBANDS =      -694.55321007
  atomic energy  EATOM  =      4708.80920826
  ---------------------------------------------------
  free energy    TOTEN  =      -266.01067304 eV

  energy without entropy =     -266.01067304  energy(sigma->0) =     -266.01067304


--------------------------------------------------------------------------------------------------------




----------------------------------------- Iteration    1(   3)  ---------------------------------------


     EDDAV:  cpu time  111.88: real time  111.94
 BZINTS: Fermi energy:  4.006528;128.000000 electrons
         Band energy:-740.102849;  BLOECHL correction: -0.000000
       DOS:  cpu time    0.06: real time    0.06
    --------------------------------------------
      LOOP:  cpu time  111.95: real time  112.01

 eigenvalue-minimisations  : 33396
 total energy-change (2. order) :-0.4554964E+02  (-0.4508473E+02)
 number of electron     128.0000000 magnetization 
 augmentation part      128.0000000 magnetization 

 Free energy of the ion-electron system (eV)
  ---------------------------------------------------
  alpha Z        PSCENC =       317.70955013
  Ewald energy   TEWEN  =     -4034.92344139
  -Hartree energ DENC   =      -970.56133527
  -exchange      EXHF   =         0.00000000
  -V(xc)+E(xc)   XCENC  =       444.32390477
  PAW double counting   =      1210.60617908    -1247.42152856
  entropy T*S    EENTRO =         0.00000000
  eigenvalues    EBANDS =      -740.10284936
  atomic energy  EATOM  =      4708.80920826
  ---------------------------------------------------
  free energy    TOTEN  =      -311.56031233 eV

  energy without entropy =     -311.56031233  energy(sigma->0) =     -311.56031233


--------------------------------------------------------------------------------------------------------




----------------------------------------- Iteration    1(   4)  ---------------------------------------


     EDDAV:  cpu time  121.67: real time  121.73
 BZINTS: Fermi energy:  4.003357;128.000000 electrons
         Band energy:-740.925200;  BLOECHL correction: -0.000004
       DOS:  cpu time    0.08: real time    0.08
    --------------------------------------------
      LOOP:  cpu time  121.76: real time  121.82

 eigenvalue-minimisations  : 34104
 total energy-change (2. order) :-0.8223507E+00  (-0.8207985E+00)
 number of electron     128.0000000 magnetization 
 augmentation part      128.0000000 magnetization 

 Free energy of the ion-electron system (eV)
  ---------------------------------------------------
  alpha Z        PSCENC =       317.70955013
  Ewald energy   TEWEN  =     -4034.92344139
  -Hartree energ DENC   =      -970.56133527
  -exchange      EXHF   =         0.00000000
  -V(xc)+E(xc)   XCENC  =       444.32390477
  PAW double counting   =      1210.60617908    -1247.42152856
  entropy T*S    EENTRO =         0.00000000
  eigenvalues    EBANDS =      -740.92520008
  atomic energy  EATOM  =      4708.80920826
  ---------------------------------------------------
  free energy    TOTEN  =      -312.38266305 eV

  energy without entropy =     -312.38266305  energy(sigma->0) =     -312.38266305


--------------------------------------------------------------------------------------------------------




----------------------------------------- Iteration    1(   5)  ---------------------------------------


     EDDAV:  cpu time  112.78: real time  112.84
 BZINTS: Fermi energy:  4.003338;128.000000 electrons
         Band energy:-740.948994;  BLOECHL correction: -0.000004
       DOS:  cpu time    0.07: real time    0.07
    CHARGE:  cpu time    4.26: real time    4.26
    MIXING:  cpu time    0.20: real time    0.20
    --------------------------------------------
      LOOP:  cpu time  117.32: real time  117.38

 eigenvalue-minimisations  : 34296
 total energy-change (2. order) :-0.2379372E-01  (-0.2378326E-01)
 number of electron     128.0000015 magnetization 
 augmentation part        3.3936852 magnetization 

 Broyden mixing:
  rms(total) = 0.22065E+01    rms(broyden)= 0.22062E+01
  rms(prec ) = 0.26547E+01
  weight for this iteration     100.00

 Free energy of the ion-electron system (eV)
  ---------------------------------------------------
  alpha Z        PSCENC =       317.70955013
  Ewald energy   TEWEN  =     -4034.92344139
  -Hartree energ DENC   =      -970.56133527
  -exchange      EXHF   =         0.00000000
  -V(xc)+E(xc)   XCENC  =       444.32390477
  PAW double counting   =      1210.60617908    -1247.42152856
  entropy T*S    EENTRO =         0.00000000
  eigenvalues    EBANDS =      -740.94899380
  atomic energy  EATOM  =      4708.80920826
  ---------------------------------------------------
  free energy    TOTEN  =      -312.40645678 eV

  energy without entropy =     -312.40645678  energy(sigma->0) =     -312.40645678


--------------------------------------------------------------------------------------------------------




----------------------------------------- Iteration    1(   6)  ---------------------------------------


    POTLOK:  cpu time    0.55: real time    0.55
    SETDIJ:  cpu time    0.21: real time    0.21
     EDDAV:  cpu time  116.28: real time  116.34
 BZINTS: Fermi energy:  4.684811;128.000000 electrons
         Band energy:-610.342809;  BLOECHL correction:  0.000000
       DOS:  cpu time    0.04: real time    0.04
    CHARGE:  cpu time    3.95: real time    3.95
    MIXING:  cpu time    0.00: real time    0.00
    --------------------------------------------
      LOOP:  cpu time  121.04: real time  121.10

 eigenvalue-minimisations  : 31296
 total energy-change (2. order) : 0.1408112E+02  (-0.1452300E+01)
 number of electron     128.0000014 magnetization 
 augmentation part        3.2404719 magnetization 

 Broyden mixing:
  rms(total) = 0.11564E+01    rms(broyden)= 0.11563E+01
  rms(prec ) = 0.13790E+01
  weight for this iteration     100.00

 eigenvalues of (default mixing * dielectric matrix)
  average eigenvalue GAMMA=   2.0353
  2.0353

 Free energy of the ion-electron system (eV)
  ---------------------------------------------------
  alpha Z        PSCENC =       317.70955013
  Ewald energy   TEWEN  =     -4034.92344139
  -Hartree energ DENC   =     -1092.38080644
  -exchange      EXHF   =         0.00000000
  -V(xc)+E(xc)   XCENC  =       452.53414435
  PAW double counting   =      1640.81521073    -1680.54639386
  entropy T*S    EENTRO =         0.00000000
  eigenvalues    EBANDS =      -610.34280939
  atomic energy  EATOM  =      4708.80920826
  ---------------------------------------------------
  free energy    TOTEN  =      -298.32533760 eV

  energy without entropy =     -298.32533760  energy(sigma->0) =     -298.32533760


--------------------------------------------------------------------------------------------------------




----------------------------------------- Iteration    1(   7)  ---------------------------------------


    POTLOK:  cpu time    0.54: real time    0.55
    SETDIJ:  cpu time    0.01: real time    0.01
     EDDAV:  cpu time  109.34: real time  109.40
 BZINTS: Fermi energy:  5.333984;128.000000 electrons
         Band energy:-478.491617;  BLOECHL correction: -0.000000
       DOS:  cpu time    0.03: real time    0.03
    CHARGE:  cpu time    3.97: real time    3.97
    MIXING:  cpu time    0.01: real time    0.00
    --------------------------------------------
      LOOP:  cpu time  113.91: real time  113.97

 eigenvalue-minimisations  : 31176
 total energy-change (2. order) : 0.4393866E+01  (-0.1483326E+01)
 number of electron     128.0000012 magnetization 
 augmentation part        3.0784566 magnetization 

 Broyden mixing:
  rms(total) = 0.18848E+00    rms(broyden)= 0.18839E+00
  rms(prec ) = 0.20314E+00
  weight for this iteration     100.00

 eigenvalues of (default mixing * dielectric matrix)
  average eigenvalue GAMMA=   2.1601
  2.0714  2.2489

 Free energy of the ion-electron system (eV)
  ---------------------------------------------------
  alpha Z        PSCENC =       317.70955013
  Ewald energy   TEWEN  =     -4034.92344139
  -Hartree energ DENC   =     -1226.73107936
  -exchange      EXHF   =         0.00000000
  -V(xc)+E(xc)   XCENC  =       461.80846044
  PAW double counting   =      2178.16956291    -2220.28211587
  entropy T*S    EENTRO =         0.00000000
  eigenvalues    EBANDS =      -478.49161670
  atomic energy  EATOM  =      4708.80920826
  ---------------------------------------------------
  free energy    TOTEN  =      -293.93147158 eV

  energy without entropy =     -293.93147158  energy(sigma->0) =     -293.93147158


--------------------------------------------------------------------------------------------------------




----------------------------------------- Iteration    1(   8)  ---------------------------------------


    POTLOK:  cpu time    1.55: real time    1.55
    SETDIJ:  cpu time    0.01: real time    0.01
     EDDAV:  cpu time  120.59: real time  120.65
 BZINTS: Fermi energy:  5.305095;128.000000 electrons
         Band energy:-481.818734;  BLOECHL correction:  0.000000
       DOS:  cpu time    0.03: real time    0.03
    CHARGE:  cpu time    5.54: real time    5.55
    MIXING:  cpu time    0.00: real time    0.00
    --------------------------------------------
      LOOP:  cpu time  127.74: real time  127.80

 eigenvalue-minimisations  : 31104
 total energy-change (2. order) :-0.4914341E-01  (-0.3444674E-01)
 number of electron     128.0000012 magnetization 
 augmentation part        3.0732281 magnetization 

 Broyden mixing:
  rms(total) = 0.24955E-01    rms(broyden)= 0.24937E-01
  rms(prec ) = 0.30902E-01
  weight for this iteration     100.00

 eigenvalues of (default mixing * dielectric matrix)
  average eigenvalue GAMMA=   1.7949
  0.9419  2.4849  1.9580

 Free energy of the ion-electron system (eV)
  ---------------------------------------------------
  alpha Z        PSCENC =       317.70955013
  Ewald energy   TEWEN  =     -4034.92344139
  -Hartree energ DENC   =     -1224.05828410
  -exchange      EXHF   =         0.00000000
  -V(xc)+E(xc)   XCENC  =       461.67093270
  PAW double counting   =      2214.41559673    -2255.78544364
  entropy T*S    EENTRO =         0.00000000
  eigenvalues    EBANDS =      -481.81873368
  atomic energy  EATOM  =      4708.80920826
  ---------------------------------------------------
  free energy    TOTEN  =      -293.98061498 eV

  energy without entropy =     -293.98061498  energy(sigma->0) =     -293.98061498


--------------------------------------------------------------------------------------------------------




----------------------------------------- Iteration    1(   9)  ---------------------------------------


    POTLOK:  cpu time    0.95: real time    0.95
    SETDIJ:  cpu time    0.01: real time    0.01
     EDDAV:  cpu time  120.33: real time  120.39
 BZINTS: Fermi energy:  5.326757;128.000000 electrons
         Band energy:-480.001986;  BLOECHL correction:  0.000000
       DOS:  cpu time    0.03: real time    0.03
    CHARGE:  cpu time    5.65: real time    5.65
    MIXING:  cpu time    0.01: real time    0.01
    --------------------------------------------
      LOOP:  cpu time  126.97: real time  127.03

 eigenvalue-minimisations  : 32772
 total energy-change (2. order) :-0.1603491E-02  (-0.1120482E-02)
 number of electron     128.0000012 magnetization 
 augmentation part        3.0700534 magnetization 

 Broyden mixing:
  rms(total) = 0.10631E-01    rms(broyden)= 0.10628E-01
  rms(prec ) = 0.13315E-01
  weight for this iteration     100.00

 eigenvalues of (default mixing * dielectric matrix)
  average eigenvalue GAMMA=   1.7804
  0.9827  2.4724  2.0491  1.6175

 Free energy of the ion-electron system (eV)
  ---------------------------------------------------
  alpha Z        PSCENC =       317.70955013
  Ewald energy   TEWEN  =     -4034.92344139
  -Hartree energ DENC   =     -1226.04615273
  -exchange      EXHF   =         0.00000000
  -V(xc)+E(xc)   XCENC  =       461.82044968
  PAW double counting   =      2224.13295303    -2265.48279971
  entropy T*S    EENTRO =         0.00000000
  eigenvalues    EBANDS =      -480.00198574
  atomic energy  EATOM  =      4708.80920826
  ---------------------------------------------------
  free energy    TOTEN  =      -293.98221847 eV

  energy without entropy =     -293.98221847  energy(sigma->0) =     -293.98221847


--------------------------------------------------------------------------------------------------------




----------------------------------------- Iteration    1(  10)  ---------------------------------------


    POTLOK:  cpu time    0.57: real time    0.57
    SETDIJ:  cpu time    0.01: real time    0.01
     EDDAV:  cpu time  137.81: real time  137.89
 BZINTS: Fermi energy:  5.326586;128.000000 electrons
         Band energy:-479.565207;  BLOECHL correction:  0.000000
       DOS:  cpu time    0.03: real time    0.03
    CHARGE:  cpu time    4.40: real time    4.40
    MIXING:  cpu time    0.01: real time    0.01
    --------------------------------------------
      LOOP:  cpu time  142.83: real time  142.91

 eigenvalue-minimisations  : 37644
 total energy-change (2. order) :-0.8852769E-03  (-0.5017849E-03)
 number of electron     128.0000012 magnetization 
 augmentation part        3.0693733 magnetization 

 Broyden mixing:
  rms(total) = 0.64091E-02    rms(broyden)= 0.64053E-02
  rms(prec ) = 0.98544E-02
  weight for this iteration     100.00

 eigenvalues of (default mixing * dielectric matrix)
  average eigenvalue GAMMA=   1.6568
  2.6500  1.9921  1.9921  0.8251  0.8251

 Free energy of the ion-electron system (eV)
  ---------------------------------------------------
[...]
     79      13.3278      0.00000
     80      13.3293      0.00000
     81      13.5724      0.00000
     82      13.5731      0.00000
     83      13.5860      0.00000
     84      13.5900      0.00000

 k-point   162 :      -0.2222    0.4444    0.5000
  band No.  band energies     occupation 
      1     -13.4310      2.00000
      2     -13.4306      2.00000
      3     -13.0834      2.00000
      4     -13.0828      2.00000
      5     -11.4889      2.00000
      6     -11.4874      2.00000
      7     -11.4826      2.00000
      8     -11.4810      2.00000
      9     -11.1804      2.00000
     10     -11.1789      2.00000
     11     -11.1741      2.00000
     12     -11.1724      2.00000
     13      -8.2053      2.00000
     14      -8.2036      2.00000
     15      -8.0710      2.00000
     16      -8.0694      2.00000
     17      -7.2004      2.00000
     18      -7.1970      2.00000
     19      -7.1255      2.00000
     20      -7.1217      2.00000
     21      -4.2295      2.00000
     22      -4.2263      2.00000
     23      -4.2188      2.00000
     24      -4.2170      2.00000
     25      -4.0672      2.00000
     26      -4.0642      2.00000
     27      -4.0573      2.00000
     28      -4.0552      2.00000
     29      -3.9172      2.00000
     30      -3.9151      2.00000
     31      -3.7795      2.00000
     32      -3.7774      2.00000
     33      -2.0972      2.00000
     34      -2.0959      2.00000
     35      -1.2850      2.00000
     36      -1.2836      2.00000
     37      -1.2706      2.00000
     38      -1.2678      2.00000
     39      -1.1909      2.00000
     40      -1.1898      2.00000
     41      -1.1767      2.00000
     42      -1.1735      2.00000
     43      -0.3379      2.00000
     44      -0.3331      2.00000
     45      -0.2790      2.00000
     46      -0.2748      2.00000
     47      -0.2066      2.00000
     48      -0.2052      2.00000
     49       0.1859      2.00000
     50       0.1871      2.00000
     51       0.1911      2.00000
     52       0.1925      2.00000
     53       0.6430      2.00000
     54       0.6474      2.00000
     55       0.6826      2.00000
     56       0.6883      2.00000
     57       1.8648      2.00000
     58       1.8664      2.00000
     59       1.8707      2.00000
     60       1.8725      2.00000
     61       3.6079      2.00000
     62       3.6106      2.00000
     63       4.3159      2.00000
     64       4.3179      2.00000
     65       6.6052      0.00000
     66       6.6087      0.00000
     67       6.6401      0.00000
     68       6.6440      0.00000
     69       9.6642      0.00000
     70       9.6674      0.00000
     71       9.6746      0.00000
     72       9.6768      0.00000
     73      10.4711      0.00000
     74      10.4744      0.00000
     75      10.4748      0.00000
     76      10.4773      0.00000
     77      12.3034      0.00000
     78      12.3073      0.00000
     79      13.8577      0.00000
     80      13.8611      0.00000
     81      14.0637      0.00000
     82      14.0707      0.00000
     83      14.0951      0.00000
     84      14.2203      0.00000

 k-point   163 :      -0.1111    0.4444    0.5000
  band No.  band energies     occupation 
      1     -13.3575      2.00000
      2     -13.3571      2.00000
      3     -13.0113      2.00000
      4     -13.0107      2.00000
      5     -12.0530      2.00000
      6     -12.0527      2.00000
      7     -11.7329      2.00000
      8     -11.7324      2.00000
      9     -10.7864      2.00000
     10     -10.7861      2.00000
     11     -10.4927      2.00000
     12     -10.4922      2.00000
     13      -8.9807      2.00000
     14      -8.9804      2.00000
     15      -8.7348      2.00000
     16      -8.7343      2.00000
     17      -6.4677      2.00000
     18      -6.4657      2.00000
     19      -6.2939      2.00000
     20      -6.2921      2.00000
     21      -4.8123      2.00000
     22      -4.8106      2.00000
     23      -4.6542      2.00000
     24      -4.6526      2.00000
     25      -3.8086      2.00000
     26      -3.8068      2.00000
     27      -3.6786      2.00000
     28      -3.6768      2.00000
     29      -3.5536      2.00000
     30      -3.5532      2.00000
     31      -3.3969      2.00000
     32      -3.3963      2.00000
     33      -2.3470      2.00000
     34      -2.3451      2.00000
     35      -2.2390      2.00000
     36      -2.2369      2.00000
     37      -2.0097      2.00000
     38      -2.0084      2.00000
     39      -0.6783      2.00000
     40      -0.6766      2.00000
     41      -0.5838      2.00000
     42      -0.5818      2.00000
     43      -0.4720      2.00000
     44      -0.4707      2.00000
     45      -0.4242      2.00000
     46      -0.4239      2.00000
     47      -0.3464      2.00000
     48      -0.3461      2.00000
     49      -0.1276      2.00000
     50      -0.1259      2.00000
     51       0.7102      2.00000
     52       0.7120      2.00000
     53       0.7711      2.00000
     54       0.7727      2.00000
     55       0.9937      2.00000
     56       0.9948      2.00000
     57       1.2773      2.00000
     58       1.2788      2.00000
     59       2.5771      2.00000
     60       2.5785      2.00000
     61       2.9591      2.00000
     62       2.9602      2.00000
     63       4.1247      2.00000
     64       4.1264      2.00000
     65       6.7800      0.00000
     66       6.7830      0.00000
     67       7.4046      0.00000
     68       7.4063      0.00000
     69       8.7440      0.00000
     70       8.7461      0.00000
     71       9.4785      0.00000
     72       9.4799      0.00000
     73      10.5690      0.00000
     74      10.5717      0.00000
     75      11.3989      0.00000
     76      11.4007      0.00000
     77      12.3679      0.00000
     78      12.3724      0.00000
     79      13.2981      0.00000
     80      13.2993      0.00000
     81      13.5495      0.00000
     82      13.5509      0.00000
     83      13.5825      0.00000
     84      13.5865      0.00000


--------------------------------------------------------------------------------------------------------


 soft charge-density along one line, spin component           1
         0         1         2         3         4         5         6         7         8         9
 total charge-density along one line
 
 pseudopotential strength for first ion, spin component:           1
  9.732   0.004  -0.000   0.000   0.000   0.000  -0.000  -0.000
  0.004  -0.002   0.000   0.000  -0.000  -0.000  -0.000  -0.000
 -0.000   0.000  -3.908   0.000   0.000  -0.015  -0.000  -0.000
  0.000   0.000   0.000  -3.902  -0.000  -0.000  -0.012   0.000
  0.000  -0.000   0.000  -0.000  -3.908  -0.000   0.000  -0.015
  0.000  -0.000  -0.015  -0.000  -0.000  -0.763   0.000   0.000
 -0.000  -0.000  -0.000  -0.012   0.000   0.000  -0.763  -0.000
 -0.000  -0.000  -0.000   0.000  -0.015   0.000  -0.000  -0.763
 total augmentation occupancy for first ion, spin component:           1
  1.472  -1.107   0.000   0.000  -0.000   0.000  -0.000  -0.000
 -1.107   1.039  -0.000   0.000   0.000  -0.000   0.000   0.000
  0.000  -0.000   1.225   0.000   0.000   0.225   0.000  -0.000
  0.000   0.000   0.000   0.925  -0.000   0.000   0.103  -0.000
 -0.000   0.000   0.000  -0.000   1.225  -0.000  -0.000   0.225
  0.000  -0.000   0.225   0.000  -0.000   0.047   0.000  -0.000
 -0.000   0.000   0.000   0.103  -0.000   0.000   0.013  -0.000
 -0.000   0.000  -0.000  -0.000   0.225  -0.000  -0.000   0.047


------------------------ aborting loop because EDIFF is reached ----------------------------------------


    CHARGE:  cpu time    4.53: real time    4.54
    FORLOC:  cpu time    0.03: real time    0.03
    FORNL :  cpu time   45.36: real time   45.39
    STRESS:  cpu time   73.23: real time   73.27
    FORHAR:  cpu time    0.26: real time    0.26
    MIXING:  cpu time    0.01: real time    0.01
    OFIELD:  cpu time    0.00: real time    0.00

 ---------------------------------------------------------------------------------------------

         DFTD3 V3.0 Rev 1        
 IVDW         = 12
 DF pbe       
 parameters
 VDW_S6       =    1.0000
 VDW_S8       =    0.7875
 VDW_A1       =    0.4289
 VDW_A2       =    4.4407
 k1-k3        =   16.0000    1.3333   -4.0000
 VDW_RADIUS   =   50.2022 A
 VDW_CNRADIUS =   21.1671 A
 Edisp (eV)   -5.45037

 E6    (eV) :    -3.8912
 E8    (eV) :    -1.5592
 % E8        : 28.61
    FORVDW:  cpu time    0.24: real time    0.25

  FORCE on cell =-STRESS in cart. coord.  units (eV):
  Direction    XX          YY          ZZ          XY          YZ          ZX
  --------------------------------------------------------------------------------------
  Alpha Z   317.70955   317.70955   317.70955
  Ewald     269.82514   269.32894 -4574.09825    -1.23690    -0.00065    -0.00727
  Hartree  1047.05975  1047.05093  -867.16863    -0.11870    -0.00019    -0.00146
  E(xc)    -468.35205  -468.35905  -484.37697    -0.00908    -0.00002     0.00001
  Local   -2964.42923 -2964.01492  3526.06046     1.12166     0.00051     0.00730
  n-local  -112.26420  -112.37414  -103.20371    -0.10159    -0.00026     0.00038
  augment   -12.38612   -12.38528   -11.34678     0.00199     0.00001     0.00001
  Kinetic  1922.46287  1923.27702  2208.82123     0.82846     0.00338    -0.00364
  Fock        0.00000     0.00000     0.00000     0.00000     0.00000     0.00000
  vdW        -0.60241    -0.59122    -6.14128     0.01015     0.00000    -0.00002
  -------------------------------------------------------------------------------------
  Total      -0.97670    -0.35818     6.25562     0.49601     0.00278    -0.00469
  in kB      -5.95868    -2.18518    38.16445     3.02605     0.01699    -0.02861
  external pressure =       10.01 kB  Pullay stress =        0.00 kB


 VOLUME and BASIS-vectors are now :
 -----------------------------------------------------------------------------
  energy-cutoff  :      600.00
  volume of cell :      262.62
      direct lattice vectors                 reciprocal lattice vectors
     4.932874498 -0.001919286  0.000000000     0.202767147  0.117172881  0.000000000
    -2.468099399  4.271034986  0.000000000     0.000091118  0.234187941  0.000000000
     0.000000000  0.000000000 12.467691369     0.000000000  0.000000000  0.080207311

  length of vectors
     4.932874871  4.932874871 12.467691369     0.234187958  0.234187958  0.080207311


 FORCES acting on ions
    electron-ion (+dipol)            ewald-force                    non-local-force                 convergence-correction
 -----------------------------------------------------------------------------------------------
   -.313E-01 0.651E-01 -.312E+00   0.248E-01 -.618E-01 0.311E+00   -.566E-02 0.256E-02 -.772E-02   0.503E-06 0.337E-05 -.959E-03
   -.364E+00 0.567E-01 -.831E+00   0.355E+00 -.525E-01 0.862E+00   -.326E-01 0.239E-02 -.730E-01   -.159E-04 0.562E-05 -.962E-03
   0.243E+00 0.414E+00 -.827E+00   -.310E+00 -.444E+00 0.858E+00   -.230E-01 0.797E-02 -.727E-01   -.121E-04 0.126E-04 -.962E-03
   0.232E+00 -.280E+00 -.835E+00   -.298E+00 0.317E+00 0.867E+00   -.241E-01 -.241E-02 -.732E-01   -.126E-04 0.685E-05 -.961E-03
   -.112E+00 0.647E-01 0.103E+00   0.106E+00 -.615E-01 -.102E+00   -.448E-02 0.256E-02 0.286E-02   0.127E-04 0.470E-05 -.119E-02
   -.112E+00 0.648E-01 0.104E+00   0.107E+00 -.615E-01 -.103E+00   -.449E-02 0.256E-02 0.274E-02   0.112E-04 0.670E-05 -.119E-02
   -.112E+00 0.648E-01 0.104E+00   0.106E+00 -.616E-01 -.103E+00   -.449E-02 0.256E-02 0.274E-02   0.974E-05 0.564E-05 -.119E-02
   -.112E+00 0.647E-01 0.104E+00   0.106E+00 -.614E-01 -.103E+00   -.449E-02 0.256E-02 0.274E-02   0.132E-04 0.304E-05 -.119E-02
   0.842E-01 -.520E-01 0.982E-01   -.784E-01 0.486E-01 -.994E-01   0.441E-02 -.262E-02 -.377E-02   -.492E-05 0.161E-04 0.103E-02
   0.141E+00 -.451E-01 0.120E+00   -.136E+00 0.415E-01 -.121E+00   0.435E-02 -.262E-02 -.366E-02   -.685E-05 0.142E-04 0.103E-02
   0.107E+00 -.977E-01 0.109E+00   -.101E+00 0.944E-01 -.110E+00   0.438E-02 -.257E-02 -.371E-02   -.504E-07 0.109E-04 0.103E-02
   0.117E+00 -.648E-01 0.752E-01   -.111E+00 0.614E-01 -.767E-01   0.448E-02 -.259E-02 -.231E-02   -.923E-05 0.151E-04 0.103E-02
   0.142E+00 -.849E-01 0.120E+00   -.136E+00 0.819E-01 -.122E+00   0.436E-02 -.251E-02 -.369E-02   -.131E-04 -.548E-05 0.112E-02
   0.840E-01 -.776E-01 0.975E-01   -.782E-01 0.743E-01 -.988E-01   0.443E-02 -.251E-02 -.377E-02   -.490E-05 -.634E-05 0.112E-02
   0.106E+00 -.315E-01 0.109E+00   -.100E+00 0.282E-01 -.110E+00   0.439E-02 -.257E-02 -.372E-02   -.822E-05 -.743E-05 0.112E-02
   0.117E+00 -.647E-01 0.749E-01   -.112E+00 0.615E-01 -.765E-01   0.452E-02 -.254E-02 -.229E-02   -.119E-04 -.572E-05 0.112E-02
   -.692E+00 -.601E-01 0.147E+01   0.824E+00 0.563E-01 -.152E+01   0.106E+00 -.268E-02 0.185E+00   0.115E-04 -.486E-05 -.924E-03
   0.326E+00 -.639E-01 -.372E+00   -.338E+00 0.611E-01 0.357E+00   -.148E-01 -.256E-02 0.227E-01   0.125E-04 0.130E-06 -.935E-03
   0.139E+00 -.172E+00 -.373E+00   -.126E+00 0.184E+00 0.357E+00   -.304E-02 0.430E-02 0.227E-01   0.636E-05 -.112E-04 -.935E-03
   0.139E+00 0.443E-01 -.373E+00   -.125E+00 -.620E-01 0.358E+00   -.314E-02 -.921E-02 0.227E-01   0.104E-04 -.786E-05 -.934E-03
   0.111E+00 -.638E-01 0.105E+00   -.105E+00 0.609E-01 -.104E+00   0.431E-02 -.245E-02 -.880E-03   -.141E-04 -.522E-05 -.116E-02
   0.111E+00 -.638E-01 0.103E+00   -.106E+00 0.609E-01 -.102E+00   0.431E-02 -.245E-02 -.557E-03   -.104E-04 -.723E-05 -.116E-02
   0.111E+00 -.640E-01 0.103E+00   -.106E+00 0.611E-01 -.102E+00   0.431E-02 -.245E-02 -.558E-03   -.111E-04 -.525E-05 -.116E-02
   0.111E+00 -.637E-01 0.103E+00   -.106E+00 0.608E-01 -.102E+00   0.431E-02 -.245E-02 -.556E-03   -.143E-04 -.493E-05 -.117E-02
   -.810E-01 0.436E-01 0.120E+00   0.764E-01 -.409E-01 -.121E+00   -.457E-02 0.262E-02 0.533E-03   0.102E-04 -.182E-04 0.100E-02
   -.139E+00 0.508E-01 0.982E-01   0.134E+00 -.480E-01 -.993E-01   -.404E-02 0.269E-02 -.717E-04   0.878E-05 -.135E-04 0.100E-02
   -.116E+00 0.976E-01 0.109E+00   0.111E+00 -.939E-01 -.111E+00   -.436E-02 0.220E-02 0.243E-03   0.969E-05 -.167E-04 0.100E-02
   -.106E+00 0.640E-01 0.756E-01   0.100E+00 -.609E-01 -.767E-01   -.414E-02 0.251E-02 0.638E-03   0.121E-04 -.124E-04 0.100E-02
   -.139E+00 0.769E-01 0.973E-01   0.134E+00 -.738E-01 -.986E-01   -.400E-02 0.225E-02 -.108E-03   0.714E-05 0.259E-05 0.109E-02
   -.806E-01 0.846E-01 0.120E+00   0.762E-01 -.815E-01 -.122E+00   -.454E-02 0.231E-02 0.560E-03   0.265E-05 0.971E-05 0.109E-02
   -.116E+00 0.298E-01 0.109E+00   0.112E+00 -.276E-01 -.111E+00   -.432E-02 0.275E-02 0.241E-03   -.115E-05 0.886E-05 0.109E-02
   -.105E+00 0.637E-01 0.752E-01   0.100E+00 -.608E-01 -.764E-01   -.407E-02 0.243E-02 0.671E-03   0.897E-05 0.311E-05 0.109E-02
 -----------------------------------------------------------------------------------------------
   -.137E-03 -.254E-04 -.105E-01   0.167E-13 0.137E-13 0.114E-12   0.134E-03 0.263E-04 0.106E-01   -.317E-05 -.322E-05 -.207E-04
 
 
 POSITION                                       TOTAL-FORCE (eV/Angst)
 -----------------------------------------------------------------------------------
      2.46402      0.00044      1.55846        -0.012384      0.005892     -0.009679
      4.93046     -0.00052      1.55846        -0.041599      0.006614     -0.042635
      1.22997      2.13595      1.55846        -0.089820     -0.021812     -0.043095
      3.69641      2.13499      1.55846        -0.090160      0.033987     -0.042111
      2.46402      0.00044      7.79231        -0.010380      0.005859      0.003152
      4.93046     -0.00052      7.79231        -0.010386      0.005860      0.003104
      1.22997      2.13595      7.79231        -0.010379      0.005863      0.003103
      3.69641      2.13499      7.79231        -0.010378      0.005855      0.003104
     -1.23163      2.13412      4.67538         0.010241     -0.006011     -0.003912
      1.23481      2.13316      4.67538         0.009950     -0.006185     -0.004359
     -2.46568      4.26964      4.67538         0.010241     -0.005879     -0.004124
      0.00076      4.26868      4.67538         0.009984     -0.006027     -0.002763
     -1.23163      2.13412     10.90923         0.009998     -0.005556     -0.004410
      1.23481      2.13316     10.90923         0.010287     -0.005814     -0.003912
     -2.46568      4.26964     10.90923         0.010362     -0.005901     -0.004147
      0.00076      4.26868     10.90923         0.010055     -0.005754     -0.002754
     -0.00700      1.42496      1.54916         0.239387     -0.006596      0.136691
      2.46311      1.42400      1.55846        -0.028422     -0.005460      0.006723
     -1.23737      3.56047      1.55846         0.009801      0.016614      0.006659
      1.22906      3.55952      1.55846         0.009908     -0.027685      0.006902
     -0.00332      1.42496      7.79231         0.009615     -0.005406     -0.000639
      2.46311      1.42400      7.79231         0.009641     -0.005406     -0.000370
     -1.23737      3.56047      7.79231         0.009634     -0.005411     -0.000371
      1.22906      3.55952      7.79231         0.009634     -0.005402     -0.000371
      1.23571      0.70960      4.67538        -0.009231      0.005446     -0.000071
      3.70215      0.70864      4.67538        -0.009654      0.005533     -0.000223
      0.00166      2.84512      4.67538        -0.009523      0.005852     -0.000141
      2.46810      2.84416      4.67538        -0.009322      0.005621      0.000556
      1.23571      0.70960     10.90923        -0.009521      0.005425     -0.000258
      3.70215      0.70864     10.90923        -0.009090      0.005481     -0.000072
      0.00166      2.84512     10.90923        -0.009358      0.005087     -0.000153
      2.46810      2.84416     10.90923        -0.009130      0.005318      0.000576
 -----------------------------------------------------------------------------------
    total drift:                               -0.000007     -0.000002      0.000028


--------------------------------------------------------------------------------------------------------



  FREE ENERGIE OF THE ION-ELECTRON SYSTEM (eV)
  ---------------------------------------------------
  free  energy   TOTEN  =      -299.43346453 eV

  energy  without entropy=     -299.43346453  energy(sigma->0) =     -299.43346453
 


--------------------------------------------------------------------------------------------------------


    POTLOK:  cpu time    0.42: real time    0.42


--------------------------------------------------------------------------------------------------------


     LOOP+:  cpu time 2395.99: real time 2397.35
    4ORBIT:  cpu time    0.00: real time    0.00
 BZINTS: Fermi energy:  5.329515;128.000000 electrons
         Band energy:-479.191296;  BLOECHL correction: -0.000000

 total amount of memory used by VASP on root node   482616. kBytes
========================================================================

   base      :      30000. kBytes
   nonl-proj :      96329. kBytes
   fftplans  :       8142. kBytes
   grid      :      17249. kBytes
   one-center:         98. kBytes
   wavefun   :     330798. kBytes
 
  
  
 General timing and accounting informations for this job:
 ========================================================
  
                  Total CPU time used (sec):     2425.127
                            User time (sec):     1875.787
                          System time (sec):      549.340
                         Elapsed time (sec):     2426.854
  
                   Maximum memory used (kb):      599088.
                   Average memory used (kb):           0.
  
                          Minor page faults:     53459332
                          Major page faults:            0
                 Voluntary context switches:          956
