  32  32   0   0
  0.5760957E+01  0.4934311E-09  0.4934311E-09  0.8743465E-09  0.5000000E-15
  1.000000000000000E-004
  CAR 
 graphite                                
     20.74139704    -13.63856046  301      9.74949262      1.00000000
    -13.639  0.0000E+00  0.0000E+00
    -13.524  0.0000E+00  0.0000E+00
    -13.409  0.0000E+00  0.0000E+00
    -13.295  0.0000E+00  0.0000E+00
    -13.180  0.0000E+00  0.0000E+00
    -13.066  0.0000E+00  0.0000E+00
    -12.951  0.0000E+00  0.0000E+00
    -12.836  0.0000E+00  0.0000E+00
    -12.722  0.0000E+00  0.0000E+00
    -12.607  0.1543E-14  0.1768E-15
    -12.493  0.1024E-09  0.1173E-10
    -12.378  0.5343E-06  0.6125E-07
    -12.263  0.2485E-03  0.2854E-04
    -12.149  0.1462E-01  0.1704E-02
    -12.034  0.1741E+00  0.2166E-01
    -11.920  0.5696E+00  0.8693E-01
    -11.805  0.8347E+00  0.1826E+00
    -11.690  0.1151E+01  0.3145E+00
    -11.576  0.1186E+01  0.4504E+00
    -11.461  0.1555E+01  0.6286E+00
    -11.347  0.1711E+01  0.8247E+00
    -11.232  0.1282E+01  0.9716E+00
    -11.117  0.1956E+01  0.1196E+01
    -11.003  0.2553E+01  0.1488E+01
    -10.888  0.1885E+01  0.1704E+01
    -10.774  0.1642E+01  0.1892E+01
    -10.659  0.2562E+01  0.2186E+01
    -10.544  0.2408E+01  0.2462E+01
    -10.430  0.2677E+01  0.2769E+01
    -10.315  0.2884E+01  0.3099E+01
    -10.201  0.2582E+01  0.3395E+01
    -10.086  0.2609E+01  0.3694E+01
     -9.971  0.2451E+01  0.3975E+01
     -9.857  0.2788E+01  0.4294E+01
     -9.742  0.3690E+01  0.4717E+01
     -9.628  0.4342E+01  0.5215E+01
     -9.513  0.2872E+01  0.5544E+01
     -9.398  0.2105E+01  0.5785E+01
     -9.284  0.3064E+01  0.6136E+01
     -9.169  0.4040E+01  0.6599E+01
     -9.055  0.4320E+01  0.7094E+01
     -8.940  0.4374E+01  0.7596E+01
     -8.825  0.3661E+01  0.8015E+01
     -8.711  0.3350E+01  0.8399E+01
     -8.596  0.3414E+01  0.8790E+01
     -8.482  0.4168E+01  0.9268E+01
     -8.367  0.5120E+01  0.9855E+01
     -8.252  0.5229E+01  0.1045E+02
     -8.138  0.3830E+01  0.1089E+02
     -8.023  0.5001E+01  0.1147E+02
     -7.909  0.5555E+01  0.1210E+02
     -7.794  0.4650E+01  0.1264E+02
     -7.679  0.5257E+01  0.1324E+02
     -7.565  0.5148E+01  0.1383E+02
     -7.450  0.4122E+01  0.1430E+02
     -7.336  0.4854E+01  0.1486E+02
     -7.221  0.5170E+01  0.1545E+02
     -7.106  0.6204E+01  0.1616E+02
     -6.992  0.6722E+01  0.1693E+02
     -6.877  0.4580E+01  0.1746E+02
     -6.763  0.3801E+01  0.1789E+02
     -6.648  0.4101E+01  0.1836E+02
     -6.533  0.5299E+01  0.1897E+02
     -6.419  0.6261E+01  0.1969E+02
     -6.304  0.6804E+01  0.2047E+02
     -6.190  0.5503E+01  0.2110E+02
     -6.075  0.5595E+01  0.2174E+02
     -5.960  0.4584E+01  0.2226E+02
     -5.846  0.4628E+01  0.2279E+02
     -5.731  0.5059E+01  0.2337E+02
     -5.617  0.4311E+01  0.2387E+02
     -5.502  0.5826E+01  0.2453E+02
     -5.387  0.4966E+01  0.2510E+02
     -5.273  0.4548E+01  0.2562E+02
     -5.158  0.6566E+01  0.2638E+02
     -5.044  0.5712E+01  0.2703E+02
     -4.929  0.5673E+01  0.2768E+02
     -4.814  0.4998E+01  0.2825E+02
     -4.700  0.5955E+01  0.2894E+02
     -4.585  0.5467E+01  0.2956E+02
     -4.471  0.4308E+01  0.3006E+02
     -4.356  0.3054E+01  0.3041E+02
     -4.241  0.2786E+01  0.3073E+02
     -4.127  0.3283E+01  0.3110E+02
     -4.012  0.3348E+01  0.3149E+02
     -3.898  0.4994E+01  0.3206E+02
     -3.783  0.5671E+01  0.3271E+02
     -3.668  0.4643E+01  0.3324E+02
     -3.554  0.4835E+01  0.3379E+02
     -3.439  0.6213E+01  0.3451E+02
     -3.325  0.4418E+01  0.3501E+02
     -3.210  0.5421E+01  0.3563E+02
     -3.095  0.7330E+01  0.3647E+02
     -2.981  0.8360E+01  0.3743E+02
     -2.866  0.5061E+01  0.3801E+02
     -2.752  0.4448E+01  0.3852E+02
     -2.637  0.6333E+01  0.3925E+02
     -2.522  0.4881E+01  0.3981E+02
     -2.408  0.4908E+01  0.4037E+02
     -2.293  0.4628E+01  0.4090E+02
     -2.179  0.5732E+01  0.4156E+02
     -2.064  0.6447E+01  0.4230E+02
     -1.949  0.5367E+01  0.4291E+02
     -1.835  0.6494E+01  0.4366E+02
     -1.720  0.4833E+01  0.4421E+02
     -1.606  0.4879E+01  0.4477E+02
     -1.491  0.4812E+01  0.4532E+02
     -1.376  0.4371E+01  0.4582E+02
     -1.262  0.5556E+01  0.4646E+02
     -1.147  0.6270E+01  0.4718E+02
     -1.033  0.8229E+01  0.4812E+02
     -0.918  0.6817E+01  0.4890E+02
     -0.803  0.4201E+01  0.4938E+02
     -0.689  0.4737E+01  0.4992E+02
     -0.574  0.6668E+01  0.5069E+02
     -0.460  0.7586E+01  0.5156E+02
     -0.345  0.9020E+01  0.5259E+02
     -0.230  0.8908E+01  0.5361E+02
     -0.116  0.5575E+01  0.5425E+02
     -0.001  0.5611E+01  0.5489E+02
      0.113  0.6876E+01  0.5568E+02
      0.228  0.7322E+01  0.5652E+02
      0.343  0.8174E+01  0.5746E+02
      0.457  0.7925E+01  0.5837E+02
      0.572  0.7349E+01  0.5921E+02
      0.686  0.8898E+01  0.6023E+02
      0.801  0.9064E+01  0.6127E+02
      0.916  0.5277E+01  0.6187E+02
      1.030  0.6713E+01  0.6264E+02
      1.145  0.1017E+02  0.6381E+02
      1.259  0.7979E+01  0.6472E+02
      1.374  0.7546E+01  0.6559E+02
      1.489  0.1019E+02  0.6675E+02
      1.603  0.9687E+01  0.6786E+02
      1.718  0.7691E+01  0.6874E+02
      1.832  0.7977E+01  0.6966E+02
      1.947  0.8588E+01  0.7064E+02
      2.062  0.1229E+02  0.7205E+02
      2.176  0.1379E+02  0.7363E+02
      2.291  0.9352E+01  0.7470E+02
      2.405  0.9038E+01  0.7574E+02
      2.520  0.9830E+01  0.7687E+02
      2.635  0.1067E+02  0.7809E+02
      2.749  0.1195E+02  0.7946E+02
      2.864  0.1234E+02  0.8087E+02
      2.978  0.1372E+02  0.8244E+02
      3.093  0.1240E+02  0.8386E+02
      3.208  0.1102E+02  0.8513E+02
      3.322  0.8716E+01  0.8613E+02
      3.437  0.9493E+01  0.8721E+02
      3.551  0.1388E+02  0.8880E+02
      3.666  0.1409E+02  0.9042E+02
      3.781  0.1233E+02  0.9183E+02
      3.895  0.1087E+02  0.9308E+02
      4.010  0.8439E+01  0.9405E+02
      4.124  0.1057E+02  0.9526E+02
      4.239  0.7527E+01  0.9612E+02
      4.354  0.7416E+01  0.9697E+02
      4.468  0.8596E+01  0.9795E+02
      4.583  0.1097E+02  0.9921E+02
      4.697  0.1045E+02  0.1004E+03
      4.812  0.8751E+01  0.1014E+03
      4.927  0.6340E+01  0.1021E+03
      5.041  0.6408E+01  0.1029E+03
      5.156  0.6745E+01  0.1036E+03
      5.270  0.8115E+01  0.1046E+03
      5.385  0.9126E+01  0.1056E+03
      5.500  0.8256E+01  0.1066E+03
      5.614  0.5893E+01  0.1072E+03
      5.729  0.5066E+01  0.1078E+03
      5.843  0.7365E+01  0.1087E+03
      5.958  0.7366E+01  0.1095E+03
      6.073  0.5459E+01  0.1101E+03
      6.187  0.5220E+01  0.1107E+03
      6.302  0.5436E+01  0.1114E+03
      6.416  0.4717E+01  0.1119E+03
      6.531  0.3456E+01  0.1123E+03
      6.646  0.3494E+01  0.1127E+03
      6.760  0.4320E+01  0.1132E+03
      6.875  0.5028E+01  0.1138E+03
      6.989  0.3319E+01  0.1141E+03
      7.104  0.3060E+01  0.1145E+03
      7.219  0.1802E+01  0.1147E+03
      7.333  0.2706E+01  0.1150E+03
      7.448  0.5236E+01  0.1156E+03
      7.562  0.6243E+01  0.1163E+03
      7.677  0.5775E+01  0.1170E+03
      7.792  0.3235E+01  0.1174E+03
      7.906  0.2358E+01  0.1176E+03
      8.021  0.4325E+01  0.1181E+03
      8.135  0.8250E+01  0.1191E+03
      8.250  0.8034E+01  0.1200E+03
      8.365  0.5829E+01  0.1207E+03
      8.479  0.5614E+01  0.1213E+03
      8.594  0.5128E+01  0.1219E+03
      8.708  0.5311E+01  0.1225E+03
      8.823  0.7136E+01  0.1233E+03
      8.938  0.7253E+01  0.1242E+03
      9.052  0.4285E+01  0.1246E+03
      9.167  0.4741E+01  0.1252E+03
      9.281  0.3775E+01  0.1256E+03
      9.396  0.4281E+01  0.1261E+03
      9.511  0.6235E+01  0.1268E+03
      9.625  0.5872E+01  0.1275E+03
      9.740  0.4085E+01  0.1280E+03
      9.854  0.3120E+01  0.1283E+03
      9.969  0.1555E+01  0.1285E+03
     10.084  0.1141E+01  0.1286E+03
     10.198  0.1170E+01  0.1288E+03
     10.313  0.4203E+00  0.1288E+03
     10.427  0.4591E+00  0.1289E+03
     10.542  0.2765E+01  0.1292E+03
     10.657  0.3705E+01  0.1296E+03
     10.771  0.3179E+01  0.1300E+03
     10.886  0.2257E+01  0.1302E+03
     11.000  0.6053E+00  0.1303E+03
     11.115  0.8932E+00  0.1304E+03
     11.230  0.3663E+01  0.1308E+03
     11.344  0.6291E+01  0.1315E+03
     11.459  0.5801E+01  0.1322E+03
     11.573  0.5953E+01  0.1329E+03
     11.688  0.6898E+01  0.1337E+03
     11.803  0.4721E+01  0.1342E+03
     11.917  0.4093E+01  0.1347E+03
     12.032  0.4234E+01  0.1352E+03
     12.146  0.5295E+01  0.1358E+03
     12.261  0.6655E+01  0.1365E+03
     12.376  0.6098E+01  0.1372E+03
     12.490  0.5328E+01  0.1379E+03
     12.605  0.4475E+01  0.1384E+03
     12.719  0.3379E+01  0.1388E+03
     12.834  0.2999E+01  0.1391E+03
     12.949  0.4127E+01  0.1396E+03
     13.063  0.6497E+01  0.1403E+03
     13.178  0.6057E+01  0.1410E+03
     13.292  0.4035E+01  0.1415E+03
     13.407  0.3614E+01  0.1419E+03
     13.522  0.3319E+01  0.1423E+03
     13.636  0.3764E+01  0.1427E+03
     13.751  0.4991E+01  0.1433E+03
     13.865  0.3345E+01  0.1437E+03
     13.980  0.2117E+01  0.1439E+03
     14.095  0.2823E+01  0.1442E+03
     14.209  0.3352E+01  0.1446E+03
     14.324  0.4806E+01  0.1452E+03
     14.438  0.6353E+01  0.1459E+03
     14.553  0.6669E+01  0.1466E+03
     14.668  0.3732E+01  0.1471E+03
     14.782  0.5892E+01  0.1477E+03
     14.897  0.6226E+01  0.1485E+03
     15.011  0.5282E+01  0.1491E+03
     15.126  0.5426E+01  0.1497E+03
     15.241  0.6445E+01  0.1504E+03
     15.355  0.7020E+01  0.1512E+03
     15.470  0.4347E+01  0.1517E+03
     15.584  0.3767E+01  0.1522E+03
     15.699  0.6375E+01  0.1529E+03
     15.814  0.6470E+01  0.1536E+03
     15.928  0.4970E+01  0.1542E+03
     16.043  0.4943E+01  0.1548E+03
     16.157  0.6694E+01  0.1555E+03
     16.272  0.9456E+01  0.1566E+03
     16.387  0.5517E+01  0.1573E+03
     16.501  0.4883E+01  0.1578E+03
     16.616  0.5194E+01  0.1584E+03
     16.730  0.6900E+01  0.1592E+03
     16.845  0.8415E+01  0.1602E+03
     16.960  0.7097E+01  0.1610E+03
     17.074  0.5313E+01  0.1616E+03
     17.189  0.7648E+01  0.1625E+03
     17.303  0.7337E+01  0.1633E+03
     17.418  0.5286E+01  0.1639E+03
     17.533  0.5446E+01  0.1645E+03
     17.647  0.3491E+01  0.1649E+03
     17.762  0.3045E+01  0.1653E+03
     17.876  0.2941E+01  0.1656E+03
     17.991  0.3816E+01  0.1661E+03
     18.106  0.5216E+01  0.1667E+03
     18.220  0.3412E+01  0.1670E+03
     18.335  0.2603E+01  0.1673E+03
     18.449  0.1869E+01  0.1676E+03
     18.564  0.1618E+01  0.1677E+03
     18.679  0.8730E+00  0.1678E+03
     18.793  0.4056E+00  0.1679E+03
     18.908  0.4126E+00  0.1679E+03
     19.022  0.3088E+00  0.1680E+03
     19.137  0.1092E+00  0.1680E+03
     19.252  0.1150E+00  0.1680E+03
     19.366  0.2354E-01  0.1680E+03
     19.481  0.5416E-03  0.1680E+03
     19.595  0.1180E-05  0.1680E+03
     19.710  0.2178E-09  0.1680E+03
     19.825  0.3193E-14  0.1680E+03
     19.939  0.0000E+00  0.1680E+03
     20.054  0.0000E+00  0.1680E+03
     20.168  0.0000E+00  0.1680E+03
     20.283  0.0000E+00  0.1680E+03
     20.398  0.0000E+00  0.1680E+03
     20.512  0.0000E+00  0.1680E+03
     20.627  0.0000E+00  0.1680E+03
     20.741  0.0000E+00  0.1680E+03
