   32   32    1    1
  0.5760957E+01  0.4934311E-09  0.4934311E-09  0.8743465E-09  0.5000000E-15
  1.000000000000000E-004
  CAR 
 graphite                                
    128    163     84
 
  0.0000000E+00  0.0000000E+00  0.0000000E+00  0.3086420E-02
    1      -12.075835
    2      -10.668877
    3      -10.663801
    4       -8.154979
    5       -6.399527
    6       -6.399464
    7       -6.398908
    8       -5.578906
    9       -5.576561
   10       -5.574341
   11       -5.249798
   12       -5.245243
   13       -5.243491
   14       -5.243186
   15       -5.241392
   16       -5.236707
   17       -4.202899
   18       -4.199117
   19       -4.197780
   20       -4.196284
   21       -4.194173
   22       -4.191255
   23       -2.912731
   24       -2.911075
   25       -2.909563
   26       -2.645595
   27       -2.642560
   28       -2.640383
   29       -2.173083
   30        2.253561
   31        2.256439
   32        2.261085
   33        2.937125
   34        2.939527
   35        2.943113
   36        2.943944
   37        2.944506
   38        2.945959
   39        2.946755
   40        2.952058
   41        3.729973
   42        3.733306
   43        3.738298
   44        3.778772
   45        3.779499
   46        3.780265
   47        6.034053
   48        6.046996
   49        6.356815
   50        6.366248
   51        6.370782
   52        6.379324
   53        6.520641
   54        6.521218
   55        6.523183
   56        6.679747
   57        6.693565
   58        7.659865
   59        7.672805
   60        7.673027
   61        7.674537
   62        7.674878
   63        7.687639
   64        8.528807
   65       11.173872
   66       11.186417
   67       11.187988
   68       11.188450
   69       11.190340
   70       11.202590
   71       13.557438
   72       13.559404
   73       13.561360
   74       14.537115
   75       14.541850
   76       14.546942
   77       14.681969
   78       14.684378
   79       14.687108
   80       16.702137
   81       16.712083
   82       16.712836
   83       16.714353
   84       16.721438
 
  0.1111111E+00 -0.1387779E-16  0.0000000E+00  0.6172840E-02
    1      -11.998433
    2      -10.593431
    3      -10.588361
    4       -8.087474
    5       -7.279824
    6       -6.684573
    7       -6.682633
    8       -6.031750
    9       -6.027259
   10       -5.479998
   11       -5.478096
   12       -5.476271
   13       -5.471694
   14       -5.181416
   15       -5.177843
   16       -4.711381
   17       -3.844737
   18       -3.840953
   19       -3.838928
   20       -3.836689
   21       -3.699703
   22       -3.300765
   23       -3.296171
   24       -3.268790
   25       -3.265897
   26       -2.167409
   27       -2.163936
   28       -2.081779
   29       -1.617162
   30        1.991490
   31        1.996691
   32        2.330092
   33        2.697942
   34        2.699998
   35        2.702259
   36        2.707555
   37        3.012389
   38        3.015713
   39        3.016897
   40        3.022883
   41        3.171239
   42        3.542382
   43        3.548175
   44        3.660981
   45        3.662434
   46        3.800474
   47        5.667022
   48        5.824761
   49        6.062701
   50        6.070194
   51        6.200054
   52        6.207585
   53        6.464215
   54        6.584636
   55        6.781344
   56        6.783449
   57        7.210778
   58        7.296388
   59        7.305693
   60        7.623556
   61        7.630252
   62        7.631770
   63        7.642370
   64        8.589068
   65       11.303472
   66       11.314308
   67       11.316103
   68       11.323338
   69       11.624286
   70       11.634489
   71       13.158873
   72       13.224484
   73       13.226627
   74       14.600011
   75       14.827267
   76       14.830688
   77       14.931438
   78       14.938767
   79       15.193222
   80       16.795877
   81       16.801118
   82       17.032217
   83       17.037108
   84       17.069684
 
  0.2222222E+00 -0.1387779E-16  0.0000000E+00  0.6172840E-02
    1      -11.766457
    2      -10.367463
    3      -10.362416
    4       -8.359164
    5       -7.885529
    6       -7.069723
    7       -7.067347
    8       -7.063055
    9       -7.058255
   10       -5.829798
   11       -5.827634
   12       -5.825572
   13       -5.821761
   14       -4.975111
   15       -4.522102
   16       -4.517785
   17       -3.529005
   18       -3.525084
   19       -3.128704
   20       -3.124908
   21       -3.123030
   22       -3.120594
   23       -2.953489
   24       -1.939932
   25       -1.935403
   26       -1.809037
   27       -1.502862
   28       -1.499252
   29       -0.375679
   30        1.312469
   31        1.317061
   32        2.049326
   33        2.051460
   34        2.053579
   35        2.058156
   36        2.088386
   37        2.554253
   38        3.021727
   39        3.027228
   40        3.228403
   41        3.232849
   42        3.240382
   43        3.247281
   44        3.417016
   45        3.419050
   46        4.005440
   47        4.676895
   48        5.226024
   49        5.232724
   50        5.309062
   51        5.776459
   52        5.783787
   53        5.796802
   54        6.279291
   55        6.514193
   56        6.522482
   57        7.447309
   58        7.449635
   59        7.524669
   60        7.531513
   61        7.532935
   62        7.543510
   63        8.463689
   64        8.765772
   65       11.612588
   66       11.623332
   67       11.625777
   68       11.633151
   69       12.481939
   70       12.483971
   71       12.592497
   72       12.601182
   73       12.660109
   74       14.779502
   75       15.026842
   76       15.030980
   77       16.004159
   78       16.011520
   79       16.079709
   80       16.889887
   81       17.058099
   82       17.063996
   83       17.080772
   84       17.086866
 
  0.3333333E+00 -0.2775558E-16  0.0000000E+00  0.6172840E-02
    1      -11.380986
    2       -9.992160
    3       -9.987147
    4       -9.326368
    5       -7.997976
    6       -7.993188
    7       -7.550169
    8       -7.346146
    9       -7.344015
   10       -6.091188
   11       -6.088979
   12       -6.086758
   13       -6.083303
   14       -5.775372
   15       -4.214448
   16       -4.210427
   17       -3.194764
   18       -3.190428
   19       -2.293181
   20       -2.289017
   21       -2.287378
   22       -2.284838
   23       -1.449790
   24       -1.356813
   25       -0.911480
   26       -0.908269
   27       -0.475080
   28       -0.470466
   29        0.552103
   30        0.554924
   31        0.931994
   32        1.016727
   33        1.183509
   34        1.185244
   35        1.187271
   36        1.192445
   37        2.288143
   38        2.293164
   39        2.919867
   40        3.196797
   41        3.199034
   42        3.314482
   43        3.523732
   44        3.529205
   45        3.579415
   46        3.583931
   47        4.117723
   48        4.123298
   49        4.336101
   50        4.663847
   51        4.789024
   52        5.209350
   53        5.215367
   54        5.667623
   55        5.675392
   56        5.813021
   57        7.424081
   58        7.431264
   59        7.432624
   60        7.442818
   61        8.350134
   62        8.352441
   63        9.042214
   64        9.447978
   65       11.536276
   66       11.538262
   67       11.949920
   68       11.960622
   69       11.963378
   70       11.970929
   71       12.678512
   72       13.701328
   73       13.709977
   74       15.072343
   75       15.141682
   76       15.146449
   77       16.443251
   78       16.486836
   79       16.493514
   80       16.620648
   81       17.061022
   82       17.501301
   83       17.518827
   84       17.546049
 
  0.4444444E+00 -0.2775558E-16  0.0000000E+00  0.6172840E-02
    1      -10.843587
    2      -10.157184
    3       -9.469687
    4       -9.464735
    5       -8.803038
    6       -8.798159
    7       -7.488219
    8       -7.486111
    9       -7.083439
   10       -6.489233
   11       -6.226671
   12       -6.224473
   13       -6.222185
   14       -6.218860
   15       -4.245745
   16       -4.242536
   17       -2.408572
   18       -2.405066
   19       -1.524227
   20       -1.519337
   21       -1.517943
   22       -1.516171
   23       -1.084752
   24       -1.081235
   25       -0.729123
   26        0.066842
   27        0.148978
   28        0.372847
   29        0.373968
   30        0.376124
   31        0.380645
   32        0.571495
   33        0.574559
   34        1.034007
   35        1.038797
   36        1.502800
   37        1.506832
   38        1.764531
   39        2.266562
   40        2.520041
   41        2.525165
   42        3.074063
   43        3.076440
   44        3.412683
   45        3.576859
   46        4.007593
   47        4.048992
   48        4.053426
   49        4.237130
   50        4.244564
   51        4.607558
   52        4.612997
   53        4.773348
   54        4.888414
   55        4.895946
   56        5.283746
   57        7.363872
   58        7.371093
   59        7.372429
   60        7.382533
   61        9.373584
   62        9.376370
   63        9.377720
   64        9.639129
   65       10.488989
   66       10.491135
   67       12.166544
   68       12.177391
   69       12.180251
   70       12.187864
   71       13.641596
   72       14.767344
   73       14.775485
   74       15.121758
   75       15.184808
   76       15.189911
   77       15.466855
   78       15.705866
   79       15.713410
   80       15.939310
   81       18.084395
   82       18.088773
   83       18.097591
   84       18.739484
 
  0.1694066E-20  0.1111111E+00  0.0000000E+00  0.6172840E-02
    1      -11.998435
    2      -10.593433
    3      -10.588364
    4       -8.087475
    5       -7.279870
    6       -6.685395
    7       -6.681857
    8       -6.031669
    9       -6.027183
   10       -5.481384
   11       -5.477165
   12       -5.476219
   13       -5.471913
   14       -5.181505
   15       -5.177682
   16       -4.710876
   17       -3.845349
   18       -3.840338
   19       -3.838893
   20       -3.833848
   21       -3.701419
   22       -3.301379
   23       -3.297531
   24       -3.269547
   25       -3.264457
   26       -2.167957
   27       -2.162051
   28       -2.081774
   29       -1.618336
   30        1.990074
   31        1.996384
   32        2.331775
   33        2.695511
   34        2.699815
   35        2.702279
   36        2.706627
   37        3.014503
   38        3.015709
   39        3.018191
   40        3.023113
   41        3.171679
   42        3.540868
   43        3.547785
   44        3.660025
   45        3.662791
   46        3.802436
   47        5.663504
   48        5.828284
   49        6.061547
   50        6.063556
   51        6.206799
   52        6.208748
   53        6.460131
   54        6.588822
   55        6.780848
   56        6.783239
   57        7.211915
   58        7.297785
   59        7.306637
   60        7.621575
   61        7.630397
   62        7.631907
   63        7.640933
   64        8.589096
   65       11.304697
   66       11.315080
   67       11.316321
   68       11.326498
   69       11.622626
   70       11.631545
   71       13.156646
   72       13.224020
   73       13.228328
   74       14.600709
   75       14.828461
   76       14.832038
   77       14.931541
   78       14.937897
   79       15.191641
   80       16.796456
   81       16.800853
   82       17.034719
   83       17.039640
   84       17.114413
 
  0.1111111E+00  0.1111111E+00  0.0000000E+00  0.6172840E-02
    1      -11.843729
    2      -10.442682
    3      -10.437627
    4       -7.952761
    5       -7.778013
    6       -7.774137
    7       -6.506976
    8       -6.502027
    9       -6.501424
   10       -6.495959
   11       -6.197299
   12       -5.370159
   13       -5.051509
   14       -5.047410
   15       -4.580171
   16       -4.575401
   17       -4.009776
   18       -4.004931
   19       -3.533972
   20       -3.529944
   21       -2.740715
   22       -2.599936
   23       -2.596043
   24       -2.595587
   25       -2.589122
   26       -2.508939
   27       -1.899800
   28       -0.982951
   29       -0.978110
   30        1.229276
   31        1.977384
   32        1.981615
   33        2.144327
   34        2.147710
   35        2.703362
   36        2.706326
   37        2.840266
   38        2.845606
   39        2.846374
   40        2.848290
   41        2.957266
   42        3.166933
   43        3.173920
   44        3.677962
   45        3.681866
   46        4.020640
   47        5.056428
   48        5.359605
   49        5.521144
   50        5.528703
   51        5.877123
   52        5.884697
   53        6.104667
   54        6.322505
   55        6.761477
   56        6.981183
   57        6.990344
   58        6.990939
   59        6.998561
   60        7.884668
   61        7.888029
   62        7.909306
   63        7.919746
   64        8.707664
   65       11.172398
   66       11.183353
   67       12.079934
   68       12.086927
   69       12.087927
   70       12.097937
   71       12.674240
   72       12.745396
   73       12.749594
   74       14.757988
   75       15.049254
   76       15.054717
   77       15.520219
   78       15.522927
   79       15.950923
   80       17.163523
   81       17.201176
   82       17.207064
   83       17.231863
   84       17.265284
 
  0.2222222E+00  0.1111111E+00  0.0000000E+00  0.6172840E-02
    1      -11.534991
    2      -10.142045
    3      -10.137020
    4       -8.803483
    5       -8.140035
    6       -7.684105
    7       -7.492428
    8       -7.487690
    9       -6.852665
   10       -6.848011
   11       -6.270902
   12       -5.333801
   13       -5.084174
   14       -5.079872
   15       -4.790049
   16       -4.780346
   17       -3.482425
   18       -3.477639
   19       -2.947073
   20       -2.785956
   21       -2.181694
   22       -1.937229
   23       -1.793025
   24       -1.789300
   25       -1.537332
   26       -1.182737
   27       -1.178189
   28       -0.322877
   29        0.281327
   30        0.283808
   31        1.019924
   32        1.024250
   33        1.582853
   34        1.605596
   35        2.149599
   36        2.276500
   37        2.279273
   38        2.341313
   39        2.453822
   40        3.129888
   41        3.134231
   42        3.228936
   43        3.446790
   44        3.453412
   45        3.948667
   46        3.958618
   47        4.136057
   48        4.578462
   49        4.585678
   50        4.636792
   51        5.322412
   52        5.330281
   53        5.387784
   54        5.876774
   55        6.145321
   56        6.153295
   57        6.740024
   58        6.748202
   59        7.253953
   60        8.094574
   61        8.104750
   62        8.704445
   63        8.935574
   64        9.096655
   65       11.187440
   66       11.198038
   67       11.681176
   68       12.165474
   69       12.462294
   70       12.589441
   71       12.598053
   72       13.160117
   73       13.168925
   74       14.871287
   75       15.287450
   76       15.659504
   77       16.181861
   78       16.411819
   79       16.865966
   80       16.874566
   81       16.977590
   82       17.120842
   83       17.433879
   84       17.538714
 
  0.3333333E+00  0.1111111E+00  0.0000000E+00  0.6172840E-02
    1      -11.073536
    2       -9.703816
    3       -9.692597
    4       -9.687900
    5       -8.364388
    6       -8.360875
    7       -8.356175
    8       -7.282985
    9       -7.065319
   10       -7.060637
   11       -6.438217
   12       -6.097808
   13       -5.226620
   14       -5.222218
   15       -4.957687
   16       -3.954737
   17       -3.097401
   18       -2.676353
   19       -2.671696
   20       -1.902847
   21       -1.604086
   22       -0.997812
   23       -0.971054
   24       -0.967691
   25       -0.627497
   26       -0.283828
   27       -0.028101
   28        0.027729
   29        0.032154
   30        0.297131
   31        0.301640
   32        0.589726
   33        1.202009
   34        1.254118
   35        1.525849
   36        1.528980
   37        1.572408
   38        2.113927
   39        2.536372
   40        2.574559
   41        2.915516
   42        3.163639
   43        3.169417
   44        3.548357
   45        3.552827
   46        3.829413
   47        4.047518
   48        4.054601
   49        4.115200
   50        4.336810
   51        4.421888
   52        4.694845
   53        4.701056
   54        5.324469
   55        5.332095
   56        5.353087
   57        6.583902
   58        6.591970
   59        8.116824
   60        8.184171
   61        8.193703
   62        9.247069
   63        9.576201
   64        9.689805
   65       10.538172
   66       11.270908
   67       11.280612
   68       11.464965
   69       12.962543
   70       12.987774
   71       12.996651
   72       14.275950
   73       14.284354
   74       14.974443
   75       15.629624
   76       15.663945
   77       15.762602
   78       16.187454
   79       16.195512
   80       16.536576
   81       17.387765
   82       17.771982
   83       18.014779
   84       18.019633
 
  0.4444444E+00  0.1111111E+00  0.0000000E+00  0.6172840E-02
    1      -10.463570
    2      -10.459836
    3       -9.101785
    4       -9.096491
    5       -9.095651
    6       -9.090818
    7       -8.434957
    8       -7.136663
    9       -7.131971
   10       -6.754550
   11       -6.750446
   12       -6.500951
   13       -5.283073
   14       -5.278650
   15       -5.017205
   16       -3.535758
   17       -3.014996
   18       -2.156585
   19       -2.152606
   20       -1.929800
   21       -1.282845
   22       -0.552692
   23       -0.549017
   24       -0.490905
   25       -0.486347
   26       -0.395885
   27       -0.286329
   28       -0.283028
   29        0.056899
   30        0.577958
   31        0.968913
   32        0.972494
   33        1.055631
   34        1.060525
   35        1.506410
   36        1.782353
   37        1.783209
   38        1.784829
   39        1.792089
   40        2.036857
   41        2.045372
   42        2.807147
   43        2.812322
   44        3.544747
   45        3.551325
   46        4.067947
   47        4.079403
   48        4.079685
   49        4.081461
   50        4.093873
   51        4.602903
   52        4.611161
   53        4.611987
   54        4.618515
   55        4.815589
   56        4.822283
   57        6.530668
   58        6.538739
   59        8.208114
   60        8.217135
   61        8.899780
   62        9.571021
   63        9.575080
   64        9.667239
   65       10.204652
   66       10.898489
   67       11.316373
   68       11.325318
   69       13.138812
   70       13.147803
   71       14.259606
   72       14.265530
   73       15.011942
   74       15.304467
   75       15.308756
   76       15.310702
   77       15.320101
   78       15.647823
   79       16.056895
   80       16.061041
   81       18.430531
   82       18.452870
   83       18.572909
   84       18.578810
 
 -0.4444444E+00  0.1111111E+00  0.0000000E+00  0.6172840E-02
    1      -11.073648
    2       -9.703663
    3       -9.692694
    4       -9.688007
    5       -8.363509
    6       -8.360653
    7       -8.357174
    8       -7.283121
    9       -7.065612
   10       -7.060936
   11       -6.438033
   12       -6.097648
   13       -5.226518
   14       -5.222141
   15       -4.957821
   16       -3.954162
   17       -3.094585
   18       -2.673111
   19       -2.669631
   20       -1.906171
   21       -1.605038
   22       -0.997962
   23       -0.974234
   24       -0.969976
   25       -0.627644
   26       -0.283492
   27       -0.027140
   28        0.025325
   29        0.028365
   30        0.297035
   31        0.301892
   32        0.589782
   33        1.201460
   34        1.250447
   35        1.528460
   36        1.533389
   37        1.573559
   38        2.113954
   39        2.535637
   40        2.578948
   41        2.914188
   42        3.163167
   43        3.167339
   44        3.547783
   45        3.552820
   46        3.824655
   47        4.047597
   48        4.054710
   49        4.114866
   50        4.336984
   51        4.426862
   52        4.696962
   53        4.701414
   54        5.324541
   55        5.332218
   56        5.353655
   57        6.584111
   58        6.592300
   59        8.117834
   60        8.183510
   61        8.192499
   62        9.247277
   63        9.577158
   64        9.689550
   65       10.538262
   66       11.273321
   67       11.282073
   68       11.462423
   69       12.962731
   70       12.986178
   71       12.995598
   72       14.275590
   73       14.284326
   74       14.974992
   75       15.628812
   76       15.664203
   77       15.762083
   78       16.189513
   79       16.196697
   80       16.538320
   81       17.389297
   82       17.777649
   83       18.014192
   84       18.019234
 
 -0.3333333E+00  0.1111111E+00  0.0000000E+00  0.6172840E-02
    1      -11.535072
    2      -10.142125
    3      -10.137101
    4       -8.803279
    5       -8.140496
    6       -7.684183
    7       -7.492233
    8       -7.487497
    9       -6.853101
   10       -6.848450
   11       -6.270595
   12       -5.333647
   13       -5.084070
   14       -5.079926
   15       -4.789887
   16       -4.779043
   17       -3.478531
   18       -3.475190
   19       -2.945045
   20       -2.789420
   21       -2.181886
   22       -1.935077
   23       -1.796437
   24       -1.791866
   25       -1.537362
   26       -1.182916
   27       -1.178241
   28       -0.325310
   29        0.279062
   30        0.283010
   31        1.016700
   32        1.019646
   33        1.586431
   34        1.605723
   35        2.145392
   36        2.279976
   37        2.284658
   38        2.341384
   39        2.453311
   40        3.129770
   41        3.134347
   42        3.233616
   43        3.446714
   44        3.453335
   45        3.948500
   46        3.957044
   47        4.135453
   48        4.576874
   49        4.580856
   50        4.634078
   51        5.327943
   52        5.331736
   53        5.390630
   54        5.878704
   55        6.145349
   56        6.153362
   57        6.740411
   58        6.748844
   59        7.255266
   60        8.093436
   61        8.102791
   62        8.704730
   63        8.935746
   64        9.096573
   65       11.191663
   66       11.200687
   67       11.681739
   68       12.162355
   69       12.461923
   70       12.586857
   71       12.596214
   72       13.159968
   73       13.169074
   74       14.872491
   75       15.286908
   76       15.659575
   77       16.187309
   78       16.413248
   79       16.870838
   80       16.876785
   81       16.980523
   82       17.120040
   83       17.431466
   84       17.535822
 
 -0.2222222E+00  0.1111111E+00  0.0000000E+00  0.6172840E-02
    1      -11.843777
    2      -10.442730
    3      -10.437676
    4       -7.952828
    5       -7.776769
    6       -7.775804
    7       -6.505851
    8       -6.502348
    9       -6.501202
   10       -6.497808
   11       -6.196923
   12       -5.368211
   13       -5.051416
   14       -5.047889
   15       -4.578002
   16       -4.577426
   17       -4.005107
   18       -4.002704
   19       -3.536574
   20       -3.531141
   21       -2.739370
   22       -2.601222
   23       -2.596736
   24       -2.596635
   25       -2.591931
   26       -2.506024
   27       -1.899819
   28       -0.983952
   29       -0.979865
   30        1.225021
   31        1.973750
   32        1.976484
   33        2.144969
   34        2.151484
   35        2.704682
   36        2.705231
   37        2.842059
   38        2.846353
   39        2.848614
   40        2.853096
   41        2.952721
   42        3.166926
   43        3.173931
   44        3.679014
   45        3.685885
   46        4.019860
   47        5.050794
   48        5.362618
   49        5.517196
   50        5.519146
   51        5.886982
   52        5.888679
   53        6.101539
   54        6.328648
   55        6.763087
   56        6.982177
   57        6.990318
   58        6.991075
   59        6.999034
   60        7.885269
   61        7.886611
   62        7.908272
   63        7.917710
   64        8.707757
   65       11.177336
   66       11.186665
   67       12.077116
   68       12.086687
   69       12.086807
   70       12.096327
   71       12.675252
   72       12.743414
   73       12.747940
   74       14.759904
   75       15.051246
   76       15.057681
   77       15.519855
   78       15.523790
   79       15.945177
   80       17.173802
   81       17.204668
   82       17.206604
   83       17.226897
   84       17.261491
 
 -0.1111111E+00  0.1111111E+00  0.0000000E+00  0.6172840E-02
    1      -11.998451
    2      -10.593449
    3      -10.588380
    4       -8.087493
    5       -7.280680
    6       -6.684057
    7       -6.682187
    8       -6.032345
    9       -6.027846
   10       -5.481161
   11       -5.476616
   12       -5.474724
   13       -5.472951
   14       -5.180547
   15       -5.177354
   16       -4.711563
   17       -3.841445
   18       -3.839788
   19       -3.837456
   20       -3.834328
   21       -3.704388
   22       -3.304646
   23       -3.300014
   24       -3.266985
   25       -3.264305
   26       -2.165138
   27       -2.162516
   28       -2.081779
   29       -1.620954
   30        1.989416
   31        1.992371
   32        2.336540
   33        2.694069
   34        2.699194
   35        2.700038
   36        2.701541
   37        3.015723
   38        3.019103
   39        3.022534
   40        3.023894
   41        3.172052
   42        3.540143
   43        3.543674
   44        3.660398
   45        3.661824
   46        3.807459
   47        5.656630
   48        5.835239
   49        6.051828
   50        6.059542
   51        6.210786
   52        6.218650
   53        6.453026
   54        6.596028
   55        6.781583
   56        6.783831
   57        7.210934
   58        7.298751
   59        7.308183
   60        7.620151
   61        7.630471
   62        7.632108
   63        7.638902
   64        8.589126
   65       11.308672
   66       11.315883
   67       11.317965
   68       11.328234
   69       11.618524
   70       11.628543
   71       13.154130
   72       13.225682
   73       13.227850
   74       14.606004
   75       14.829843
   76       14.833509
   77       14.929367
   78       14.934492
   79       15.190014
   80       16.800223
   81       16.805335
   82       17.033782
   83       17.038904
   84       17.106250
 
  0.1694066E-20  0.2222222E+00  0.0000000E+00  0.6172840E-02
    1      -11.766465
    2      -10.367471
    3      -10.362424
    4       -8.359245
    5       -7.885545
    6       -7.070939
    7       -7.066800
    8       -7.062617
    9       -7.058057
   10       -5.831221
   11       -5.826855
   12       -5.825631
   13       -5.821149
   14       -4.974901
   15       -4.521515
   16       -4.518930
   17       -3.528842
   18       -3.523488
   19       -3.129661
   20       -3.124418
   21       -3.122948
   22       -3.117687
   23       -2.954917
   24       -1.940718
   25       -1.936908
   26       -1.809024
   27       -1.503266
   28       -1.497108
   29       -0.376983
   30        1.310839
   31        1.316625
   32        2.046505
   33        2.051193
   34        2.053635
   35        2.057686
   36        2.088602
   37        2.556019
   38        3.020122
   39        3.026966
   40        3.231202
   41        3.233471
   42        3.240613
   43        3.247437
   44        3.415776
   45        3.419695
   46        4.007483
   47        4.673993
   48        5.224855
   49        5.227201
   50        5.312437
   51        5.780559
   52        5.783852
   53        5.795951
   54        6.282955
   55        6.514976
   56        6.523072
   57        7.446357
   58        7.449863
   59        7.522864
   60        7.531631
   61        7.533106
   62        7.542348
   63        8.465316
   64        8.765885
   65       11.613809
   66       11.624046
   67       11.625989
   68       11.636099
   69       12.481024
   70       12.485276
   71       12.591073
   72       12.599490
   73       12.657093
   74       14.780298
   75       15.029398
   76       15.032093
   77       16.003743
   78       16.010879
   79       16.078301
   80       16.893102
   81       17.059380
   82       17.064057
   83       17.083811
   84       17.087901
 
  0.1111111E+00  0.2222222E+00  0.0000000E+00  0.6172840E-02
    1      -11.534997
    2      -10.142050
    3      -10.137026
    4       -8.803576
    5       -8.139945
    6       -7.684082
    7       -7.492524
    8       -7.487787
    9       -6.852601
   10       -6.847948
   11       -6.270845
   12       -5.333787
   13       -5.084151
   14       -5.079842
   15       -4.789646
   16       -4.780953
   17       -3.482319
   18       -3.477634
   19       -2.947265
   20       -2.784450
   21       -2.183083
   22       -1.936712
   23       -1.792088
   24       -1.787646
   25       -1.537316
   26       -1.183571
   27       -1.179877
   28       -0.321170
   29        0.280213
   30        0.282918
   31        1.019894
   32        1.024057
   33        1.580848
   34        1.605832
   35        2.149549
   36        2.274009
   37        2.278092
   38        2.340968
   39        2.455826
   40        3.132793
   41        3.135269
   42        3.226985
   43        3.446804
   44        3.453423
   45        3.950067
   46        3.957458
   47        4.135931
   48        4.578235
   49        4.582539