natom:   96
displacements:
- atom:    1
  direction:
    [   1.0000000000000000,  0.0000000000000000,  0.0000000000000000 ]
  displacement:
    [   0.0100000000000000,  0.0000000000000000,  0.0000000000000000 ]
- atom:    1
  direction:
    [  -1.0000000000000000,  0.0000000000000000,  0.0000000000000000 ]
  displacement:
    [  -0.0100000000000000,  0.0000000000000000,  0.0000000000000000 ]
- atom:    1
  direction:
    [   0.0000000000000000,  1.0000000000000000,  0.0000000000000000 ]
  displacement:
    [   0.0000000000000000,  0.0100000000000000,  0.0000000000000000 ]
- atom:    1
  direction:
    [   0.0000000000000000, -1.0000000000000000,  0.0000000000000000 ]
  displacement:
    [   0.0000000000000000, -0.0100000000000000,  0.0000000000000000 ]
- atom:    1
  direction:
    [   0.0000000000000000,  0.0000000000000000,  1.0000000000000000 ]
  displacement:
    [   0.0000000000000000,  0.0000000000000000,  0.0100000000000000 ]
- atom:    1
  direction:
    [   0.0000000000000000,  0.0000000000000000, -1.0000000000000000 ]
  displacement:
    [   0.0000000000000000,  0.0000000000000000, -0.0100000000000000 ]
- atom:   33
  direction:
    [   1.0000000000000000,  0.0000000000000000,  0.0000000000000000 ]
  displacement:
    [   0.0100000000000000,  0.0000000000000000,  0.0000000000000000 ]
- atom:   33
  direction:
    [  -1.0000000000000000,  0.0000000000000000,  0.0000000000000000 ]
  displacement:
    [  -0.0100000000000000,  0.0000000000000000,  0.0000000000000000 ]
- atom:   33
  direction:
    [   0.0000000000000000,  1.0000000000000000,  0.0000000000000000 ]
  displacement:
    [   0.0000000000000000,  0.0100000000000000,  0.0000000000000000 ]
- atom:   33
  direction:
    [   0.0000000000000000, -1.0000000000000000,  0.0000000000000000 ]
  displacement:
    [   0.0000000000000000, -0.0100000000000000,  0.0000000000000000 ]
- atom:   33
  direction:
    [   0.0000000000000000,  0.0000000000000000,  1.0000000000000000 ]
  displacement:
    [   0.0000000000000000,  0.0000000000000000,  0.0100000000000000 ]
- atom:   33
  direction:
    [   0.0000000000000000,  0.0000000000000000, -1.0000000000000000 ]
  displacement:
    [   0.0000000000000000,  0.0000000000000000, -0.0100000000000000 ]
- atom:   65
  direction:
    [   1.0000000000000000,  0.0000000000000000,  0.0000000000000000 ]
  displacement:
    [   0.0100000000000000,  0.0000000000000000,  0.0000000000000000 ]
- atom:   65
  direction:
    [  -1.0000000000000000,  0.0000000000000000,  0.0000000000000000 ]
  displacement:
    [  -0.0100000000000000,  0.0000000000000000,  0.0000000000000000 ]
- atom:   65
  direction:
    [   0.0000000000000000,  1.0000000000000000,  0.0000000000000000 ]
  displacement:
    [   0.0000000000000000,  0.0100000000000000,  0.0000000000000000 ]
- atom:   65
  direction:
    [   0.0000000000000000, -1.0000000000000000,  0.0000000000000000 ]
  displacement:
    [   0.0000000000000000, -0.0100000000000000,  0.0000000000000000 ]
- atom:   65
  direction:
    [   0.0000000000000000,  0.0000000000000000,  1.0000000000000000 ]
  displacement:
    [   0.0000000000000000,  0.0000000000000000,  0.0100000000000000 ]
- atom:   65
  direction:
    [   0.0000000000000000,  0.0000000000000000, -1.0000000000000000 ]
  displacement:
    [   0.0000000000000000,  0.0000000000000000, -0.0100000000000000 ]
lattice:
- [     9.473014942711677,     0.000000000000000,     0.000000000000000 ] # a
- [     0.000000000000000,    12.565847706031267,     0.000000000000000 ] # b
- [     0.000000000000000,     0.000000000000000,     8.053035664849947 ] # c
points:
- symbol: C  # 1
  coordinates: [  0.441959364578073,  0.027693350959054,  0.481702003134679 ]
  mass: 12.010700
- symbol: C  # 2
  coordinates: [  0.941959364578073,  0.027693350959054,  0.481702003134679 ]
  mass: 12.010700
- symbol: C  # 3
  coordinates: [  0.441959364578073,  0.527693350959054,  0.481702003134679 ]
  mass: 12.010700
- symbol: C  # 4
  coordinates: [  0.941959364578073,  0.527693350959054,  0.481702003134679 ]
  mass: 12.010700
- symbol: C  # 5
  coordinates: [  0.441959364578073,  0.027693350959054,  0.981702003134679 ]
  mass: 12.010700
- symbol: C  # 6
  coordinates: [  0.941959364578073,  0.027693350959054,  0.981702003134679 ]
  mass: 12.010700
- symbol: C  # 7
  coordinates: [  0.441959364578073,  0.527693350959054,  0.981702003134679 ]
  mass: 12.010700
- symbol: C  # 8
  coordinates: [  0.941959364578073,  0.527693350959054,  0.981702003134679 ]
  mass: 12.010700
- symbol: C  # 9
  coordinates: [  0.058040642921929,  0.472306641540944,  0.018297983865319 ]
  mass: 12.010700
- symbol: C  # 10
  coordinates: [  0.558040642921929,  0.472306641540944,  0.018297983865319 ]
  mass: 12.010700
- symbol: C  # 11
  coordinates: [  0.058040642921929,  0.972306641540944,  0.018297983865319 ]
  mass: 12.010700
- symbol: C  # 12
  coordinates: [  0.558040642921929,  0.972306641540944,  0.018297983865319 ]
  mass: 12.010700
- symbol: C  # 13
  coordinates: [  0.058040642921929,  0.472306641540944,  0.518297983865319 ]
  mass: 12.010700
- symbol: C  # 14
  coordinates: [  0.558040642921929,  0.472306641540944,  0.518297983865319 ]
  mass: 12.010700
- symbol: C  # 15
  coordinates: [  0.058040642921929,  0.972306641540944,  0.518297983865319 ]
  mass: 12.010700
- symbol: C  # 16
  coordinates: [  0.558040642921929,  0.972306641540944,  0.518297983865319 ]
  mass: 12.010700
- symbol: C  # 17
  coordinates: [  0.308040635421927,  0.277693358459056,  0.268297996865321 ]
  mass: 12.010700
- symbol: C  # 18
  coordinates: [  0.808040635421927,  0.277693358459056,  0.268297996865321 ]
  mass: 12.010700
- symbol: C  # 19
  coordinates: [  0.308040635421927,  0.777693358459056,  0.268297996865321 ]
  mass: 12.010700
- symbol: C  # 20
  coordinates: [  0.808040635421927,  0.777693358459056,  0.268297996865321 ]
  mass: 12.010700
- symbol: C  # 21
  coordinates: [  0.308040635421927,  0.277693358459056,  0.768297996865321 ]
  mass: 12.010700
- symbol: C  # 22
  coordinates: [  0.808040635421927,  0.277693358459056,  0.768297996865321 ]
  mass: 12.010700
- symbol: C  # 23
  coordinates: [  0.308040635421927,  0.777693358459056,  0.768297996865321 ]
  mass: 12.010700
- symbol: C  # 24
  coordinates: [  0.808040635421927,  0.777693358459056,  0.768297996865321 ]
  mass: 12.010700
- symbol: C  # 25
  coordinates: [  0.191959364578073,  0.222306641540944,  0.231702018134681 ]
  mass: 12.010700
- symbol: C  # 26
  coordinates: [  0.691959364578073,  0.222306641540944,  0.231702018134681 ]
  mass: 12.010700
- symbol: C  # 27
  coordinates: [  0.191959364578073,  0.722306641540943,  0.231702018134681 ]
  mass: 12.010700
- symbol: C  # 28
  coordinates: [  0.691959364578073,  0.722306641540943,  0.231702018134681 ]
  mass: 12.010700
- symbol: C  # 29
  coordinates: [  0.191959364578073,  0.222306641540944,  0.731702018134681 ]
  mass: 12.010700
- symbol: C  # 30
  coordinates: [  0.691959364578073,  0.222306641540944,  0.731702018134681 ]
  mass: 12.010700
- symbol: C  # 31
  coordinates: [  0.191959364578073,  0.722306641540943,  0.731702018134681 ]
  mass: 12.010700
- symbol: C  # 32
  coordinates: [  0.691959364578073,  0.722306641540943,  0.731702018134681 ]
  mass: 12.010700
- symbol: H  # 33
  coordinates: [  0.401517381488202,  0.089891153207140,  0.063508220582185 ]
  mass: 1.007940
- symbol: H  # 34
  coordinates: [  0.901517381488202,  0.089891153207140,  0.063508220582185 ]
  mass: 1.007940
- symbol: H  # 35
  coordinates: [  0.401517381488202,  0.589891153207140,  0.063508220582185 ]
  mass: 1.007940
- symbol: H  # 36
  coordinates: [  0.901517381488202,  0.589891153207140,  0.063508220582185 ]
  mass: 1.007940
- symbol: H  # 37
  coordinates: [  0.401517381488202,  0.089891153207140,  0.563508220582185 ]
  mass: 1.007940
- symbol: H  # 38
  coordinates: [  0.901517381488202,  0.089891153207140,  0.563508220582185 ]
  mass: 1.007940
- symbol: H  # 39
  coordinates: [  0.401517381488202,  0.589891153207140,  0.563508220582185 ]
  mass: 1.007940
- symbol: H  # 40
  coordinates: [  0.901517381488202,  0.589891153207140,  0.563508220582185 ]
  mass: 1.007940
- symbol: H  # 41
  coordinates: [  0.098482611011796,  0.410108853792861,  0.436491783417816 ]
  mass: 1.007940
- symbol: H  # 42
  coordinates: [  0.598482611011796,  0.410108853792861,  0.436491783417816 ]
  mass: 1.007940
- symbol: H  # 43
  coordinates: [  0.098482611011796,  0.910108853792861,  0.436491783417816 ]
  mass: 1.007940
- symbol: H  # 44
  coordinates: [  0.598482611011796,  0.910108853792861,  0.436491783417816 ]
  mass: 1.007940
- symbol: H  # 45
  coordinates: [  0.098482611011796,  0.410108853792861,  0.936491783417816 ]
  mass: 1.007940
- symbol: H  # 46
  coordinates: [  0.598482611011796,  0.410108853792861,  0.936491783417816 ]
  mass: 1.007940
- symbol: H  # 47
  coordinates: [  0.098482611011796,  0.910108853792861,  0.936491783417816 ]
  mass: 1.007940
- symbol: H  # 48
  coordinates: [  0.598482611011796,  0.910108853792861,  0.936491783417816 ]
  mass: 1.007940
- symbol: H  # 49
  coordinates: [  0.348482618511798,  0.339891146207139,  0.186491783417816 ]
  mass: 1.007940
- symbol: H  # 50
  coordinates: [  0.848482618511798,  0.339891146207139,  0.186491783417816 ]
  mass: 1.007940
- symbol: H  # 51
  coordinates: [  0.348482618511798,  0.839891146207139,  0.186491783417816 ]
  mass: 1.007940
- symbol: H  # 52
  coordinates: [  0.848482618511798,  0.839891146207139,  0.186491783417816 ]
  mass: 1.007940
- symbol: H  # 53
  coordinates: [  0.348482618511798,  0.339891146207139,  0.686491783417816 ]
  mass: 1.007940
- symbol: H  # 54
  coordinates: [  0.848482618511798,  0.339891146207139,  0.686491783417816 ]
  mass: 1.007940
- symbol: H  # 55
  coordinates: [  0.348482618511798,  0.839891146207139,  0.686491783417816 ]
  mass: 1.007940
- symbol: H  # 56
  coordinates: [  0.848482618511798,  0.839891146207139,  0.686491783417816 ]
  mass: 1.007940
- symbol: H  # 57
  coordinates: [  0.151517381488202,  0.160108853792861,  0.313508216582184 ]
  mass: 1.007940
- symbol: H  # 58
  coordinates: [  0.651517381488202,  0.160108853792861,  0.313508216582184 ]
  mass: 1.007940
- symbol: H  # 59
  coordinates: [  0.151517381488202,  0.660108853792861,  0.313508216582184 ]
  mass: 1.007940
- symbol: H  # 60
  coordinates: [  0.651517381488202,  0.660108853792861,  0.313508216582184 ]
  mass: 1.007940
- symbol: H  # 61
  coordinates: [  0.151517381488202,  0.160108853792861,  0.813508216582184 ]
  mass: 1.007940
- symbol: H  # 62
  coordinates: [  0.651517381488202,  0.160108853792861,  0.813508216582184 ]
  mass: 1.007940
- symbol: H  # 63
  coordinates: [  0.151517381488202,  0.660108853792861,  0.813508216582184 ]
  mass: 1.007940
- symbol: H  # 64
  coordinates: [  0.651517381488202,  0.660108853792861,  0.813508216582184 ]
  mass: 1.007940
- symbol: H  # 65
  coordinates: [  0.382302880556139,  0.013141106433792,  0.368039500426439 ]
  mass: 1.007940
- symbol: H  # 66
  coordinates: [  0.882302880556139,  0.013141106433792,  0.368039500426439 ]
  mass: 1.007940
- symbol: H  # 67
  coordinates: [  0.382302880556139,  0.513141106433793,  0.368039500426439 ]
  mass: 1.007940
- symbol: H  # 68
  coordinates: [  0.882302880556139,  0.513141106433793,  0.368039500426439 ]
  mass: 1.007940
- symbol: H  # 69
  coordinates: [  0.382302880556139,  0.013141106433792,  0.868039500426439 ]
  mass: 1.007940
- symbol: H  # 70
  coordinates: [  0.882302880556139,  0.013141106433792,  0.868039500426439 ]
  mass: 1.007940
- symbol: H  # 71
  coordinates: [  0.382302880556139,  0.513141106433793,  0.868039500426439 ]
  mass: 1.007940
- symbol: H  # 72
  coordinates: [  0.882302880556139,  0.513141106433793,  0.868039500426439 ]
  mass: 1.007940
- symbol: H  # 73
  coordinates: [  0.117697104443859,  0.486858896566208,  0.131960484573560 ]
  mass: 1.007940
- symbol: H  # 74
  coordinates: [  0.617697104443860,  0.486858896566208,  0.131960484573560 ]
  mass: 1.007940
- symbol: H  # 75
  coordinates: [  0.117697104443859,  0.986858896566208,  0.131960484573560 ]
  mass: 1.007940
- symbol: H  # 76
  coordinates: [  0.617697104443860,  0.986858896566208,  0.131960484573560 ]
  mass: 1.007940
- symbol: H  # 77
  coordinates: [  0.117697104443859,  0.486858896566208,  0.631960484573560 ]
  mass: 1.007940
- symbol: H  # 78
  coordinates: [  0.617697104443860,  0.486858896566208,  0.631960484573560 ]
  mass: 1.007940
- symbol: H  # 79
  coordinates: [  0.117697104443859,  0.986858896566208,  0.631960484573560 ]
  mass: 1.007940
- symbol: H  # 80
  coordinates: [  0.617697104443860,  0.986858896566208,  0.631960484573560 ]
  mass: 1.007940
- symbol: H  # 81
  coordinates: [  0.367697119443861,  0.263141103433792,  0.381960499573561 ]
  mass: 1.007940
- symbol: H  # 82
  coordinates: [  0.867697119443861,  0.263141103433792,  0.381960499573561 ]
  mass: 1.007940
- symbol: H  # 83
  coordinates: [  0.367697119443861,  0.763141103433792,  0.381960499573561 ]
  mass: 1.007940
- symbol: H  # 84
  coordinates: [  0.867697119443861,  0.763141103433792,  0.381960499573561 ]
  mass: 1.007940
- symbol: H  # 85
  coordinates: [  0.367697119443861,  0.263141103433792,  0.881960499573561 ]
  mass: 1.007940
- symbol: H  # 86
  coordinates: [  0.867697119443861,  0.263141103433792,  0.881960499573561 ]
  mass: 1.007940
- symbol: H  # 87
  coordinates: [  0.367697119443861,  0.763141103433792,  0.881960499573561 ]
  mass: 1.007940
- symbol: H  # 88
  coordinates: [  0.867697119443861,  0.763141103433792,  0.881960499573561 ]
  mass: 1.007940
- symbol: H  # 89
  coordinates: [  0.132302895556141,  0.236858896566208,  0.118039515426440 ]
  mass: 1.007940
- symbol: H  # 90
  coordinates: [  0.632302895556140,  0.236858896566208,  0.118039515426440 ]
  mass: 1.007940
- symbol: H  # 91
  coordinates: [  0.132302895556141,  0.736858896566208,  0.118039515426440 ]
  mass: 1.007940
- symbol: H  # 92
  coordinates: [  0.632302895556140,  0.736858896566208,  0.118039515426440 ]
  mass: 1.007940
- symbol: H  # 93
  coordinates: [  0.132302895556141,  0.236858896566208,  0.618039515426440 ]
  mass: 1.007940
- symbol: H  # 94
  coordinates: [  0.632302895556140,  0.236858896566208,  0.618039515426440 ]
  mass: 1.007940
- symbol: H  # 95
  coordinates: [  0.132302895556141,  0.736858896566208,  0.618039515426440 ]
  mass: 1.007940
- symbol: H  # 96
  coordinates: [  0.632302895556140,  0.736858896566208,  0.618039515426440 ]
  mass: 1.007940