  12  12   0   0
  0.9985468E+01  0.4736508E-09  0.6282924E-09  0.4026518E-09  0.5000000E-15
  1.000000000000000E-004
  CAR 
 ethylene                                
     10.29733623    -17.59976838  301     -2.97703605      1.00000000
    -17.600  0.0000E+00  0.0000E+00
    -17.507  0.0000E+00  0.0000E+00
    -17.414  0.0000E+00  0.0000E+00
    -17.321  0.0000E+00  0.0000E+00
    -17.228  0.0000E+00  0.0000E+00
    -17.135  0.0000E+00  0.0000E+00
    -17.042  0.0000E+00  0.0000E+00
    -16.949  0.0000E+00  0.0000E+00
    -16.856  0.0000E+00  0.0000E+00
    -16.763  0.0000E+00  0.0000E+00
    -16.670  0.0000E+00  0.0000E+00
    -16.577  0.0000E+00  0.0000E+00
    -16.484  0.0000E+00  0.0000E+00
    -16.391  0.0000E+00  0.0000E+00
    -16.298  0.0000E+00  0.0000E+00
    -16.205  0.0000E+00  0.0000E+00
    -16.112  0.0000E+00  0.0000E+00
    -16.019  0.0000E+00  0.0000E+00
    -15.926  0.0000E+00  0.0000E+00
    -15.833  0.0000E+00  0.0000E+00
    -15.740  0.0000E+00  0.0000E+00
    -15.647  0.0000E+00  0.0000E+00
    -15.554  0.9966E-02  0.2430E-03
    -15.461  0.2548E-01  0.1839E-02
    -15.368  0.6778E-01  0.5573E-02
    -15.275  0.1466E+00  0.1503E-01
    -15.182  0.0000E+00  0.2000E-01
    -15.089  0.0000E+00  0.2000E-01
    -14.996  0.0000E+00  0.2000E-01
    -14.903  0.0000E+00  0.2000E-01
    -14.810  0.0000E+00  0.2000E-01
    -14.717  0.0000E+00  0.2000E-01
    -14.624  0.0000E+00  0.2000E-01
    -14.531  0.0000E+00  0.2000E-01
    -14.438  0.0000E+00  0.2000E-01
    -14.345  0.0000E+00  0.2000E-01
    -14.252  0.0000E+00  0.2000E-01
    -14.159  0.0000E+00  0.2000E-01
    -14.066  0.0000E+00  0.2000E-01
    -13.973  0.0000E+00  0.2000E-01
    -13.880  0.0000E+00  0.2000E-01
    -13.787  0.0000E+00  0.2000E-01
    -13.694  0.0000E+00  0.2000E-01
    -13.601  0.0000E+00  0.2000E-01
    -13.508  0.0000E+00  0.2000E-01
    -13.415  0.0000E+00  0.2000E-01
    -13.322  0.0000E+00  0.2000E-01
    -13.229  0.0000E+00  0.2000E-01
    -13.136  0.0000E+00  0.2000E-01
    -13.043  0.0000E+00  0.2000E-01
    -12.950  0.0000E+00  0.2000E-01
    -12.857  0.0000E+00  0.2000E-01
    -12.764  0.0000E+00  0.2000E-01
    -12.671  0.0000E+00  0.2000E-01
    -12.578  0.0000E+00  0.2000E-01
    -12.485  0.0000E+00  0.2000E-01
    -12.392  0.0000E+00  0.2000E-01
    -12.299  0.0000E+00  0.2000E-01
    -12.206  0.0000E+00  0.2000E-01
    -12.113  0.0000E+00  0.2000E-01
    -12.020  0.0000E+00  0.2000E-01
    -11.927  0.0000E+00  0.2000E-01
    -11.834  0.0000E+00  0.2000E-01
    -11.741  0.0000E+00  0.2000E-01
    -11.648  0.0000E+00  0.2000E-01
    -11.555  0.0000E+00  0.2000E-01
    -11.462  0.0000E+00  0.2000E-01
    -11.369  0.0000E+00  0.2000E-01
    -11.276  0.0000E+00  0.2000E-01
    -11.183  0.0000E+00  0.2000E-01
    -11.090  0.0000E+00  0.2000E-01
    -10.997  0.0000E+00  0.2000E-01
    -10.904  0.4082E-01  0.2145E-01
    -10.811  0.5172E-01  0.2602E-01
    -10.718  0.6782E-01  0.3141E-01
    -10.625  0.5598E-01  0.3824E-01
    -10.533  0.0000E+00  0.4000E-01
    -10.440  0.0000E+00  0.4000E-01
    -10.347  0.0000E+00  0.4000E-01
    -10.254  0.0000E+00  0.4000E-01
    -10.161  0.0000E+00  0.4000E-01
    -10.068  0.0000E+00  0.4000E-01
     -9.975  0.0000E+00  0.4000E-01
     -9.882  0.0000E+00  0.4000E-01
     -9.789  0.0000E+00  0.4000E-01
     -9.696  0.0000E+00  0.4000E-01
     -9.603  0.0000E+00  0.4000E-01
     -9.510  0.0000E+00  0.4000E-01
     -9.417  0.0000E+00  0.4000E-01
     -9.324  0.0000E+00  0.4000E-01
     -9.231  0.0000E+00  0.4000E-01
     -9.138  0.0000E+00  0.4000E-01
     -9.045  0.0000E+00  0.4000E-01
     -8.952  0.0000E+00  0.4000E-01
     -8.859  0.0000E+00  0.4000E-01
     -8.766  0.0000E+00  0.4000E-01
     -8.673  0.0000E+00  0.4000E-01
     -8.580  0.0000E+00  0.4000E-01
     -8.487  0.0000E+00  0.4000E-01
     -8.394  0.0000E+00  0.4000E-01
     -8.301  0.2169E-03  0.4000E-01
     -8.208  0.3883E-01  0.4208E-01
     -8.115  0.3632E-01  0.4591E-01
     -8.022  0.2897E-01  0.4893E-01
     -7.929  0.2800E-01  0.5158E-01
     -7.836  0.3540E-01  0.5435E-01
     -7.743  0.3532E-01  0.5816E-01
     -7.650  0.0000E+00  0.6000E-01
     -7.557  0.0000E+00  0.6000E-01
     -7.464  0.0000E+00  0.6000E-01
     -7.371  0.0000E+00  0.6000E-01
     -7.278  0.0000E+00  0.6000E-01
     -7.185  0.0000E+00  0.6000E-01
     -7.092  0.0000E+00  0.6000E-01
     -6.999  0.5676E-02  0.6025E-01
     -6.906  0.1196E-01  0.6106E-01
     -6.813  0.2298E-01  0.6262E-01
     -6.720  0.6438E-01  0.6605E-01
     -6.627  0.5758E-01  0.7351E-01
     -6.534  0.2990E-01  0.7737E-01
     -6.441  0.1710E-01  0.7956E-01
     -6.348  0.0000E+00  0.8000E-01
     -6.255  0.0000E+00  0.8000E-01
     -6.162  0.0000E+00  0.8000E-01
     -6.069  0.0000E+00  0.8000E-01
     -5.976  0.0000E+00  0.8000E-01
     -5.883  0.0000E+00  0.8000E-01
     -5.790  0.0000E+00  0.8000E-01
     -5.697  0.0000E+00  0.8000E-01
     -5.604  0.0000E+00  0.8000E-01
     -5.511  0.7445E-02  0.8024E-01
     -5.418  0.1029E-01  0.8106E-01
     -5.325  0.1333E-01  0.8216E-01
     -5.232  0.1785E-01  0.8359E-01
     -5.139  0.2689E-01  0.8560E-01
     -5.046  0.5678E-01  0.8917E-01
     -4.953  0.4085E-01  0.9344E-01
     -4.860  0.2823E-01  0.9660E-01
     -4.767  0.1412E-01  0.9841E-01
     -4.674  0.8018E-02  0.9943E-01
     -4.581  0.2704E-02  0.9995E-01
     -4.488  0.0000E+00  0.1000E+00
     -4.395  0.0000E+00  0.1000E+00
     -4.302  0.0000E+00  0.1000E+00
     -4.209  0.0000E+00  0.1000E+00
     -4.116  0.0000E+00  0.1000E+00
     -4.023  0.0000E+00  0.1000E+00
     -3.930  0.0000E+00  0.1000E+00
     -3.837  0.0000E+00  0.1000E+00
     -3.744  0.2498E-03  0.1000E+00
     -3.651  0.4899E-02  0.1003E+00
     -3.558  0.1025E-01  0.1010E+00
     -3.465  0.1949E-01  0.1023E+00
     -3.372  0.5110E-01  0.1053E+00
     -3.279  0.8849E-01  0.1119E+00
     -3.186  0.3039E-01  0.1167E+00
     -3.093  0.1801E-01  0.1189E+00
     -3.000  0.4045E-03  0.1200E+00
     -2.907  0.0000E+00  0.1200E+00
     -2.814  0.0000E+00  0.1200E+00
     -2.721  0.0000E+00  0.1200E+00
     -2.628  0.0000E+00  0.1200E+00
     -2.535  0.0000E+00  0.1200E+00
     -2.442  0.0000E+00  0.1200E+00
     -2.349  0.0000E+00  0.1200E+00
     -2.256  0.0000E+00  0.1200E+00
     -2.163  0.0000E+00  0.1200E+00
     -2.070  0.0000E+00  0.1200E+00
     -1.977  0.0000E+00  0.1200E+00
     -1.884  0.0000E+00  0.1200E+00
     -1.791  0.0000E+00  0.1200E+00
     -1.698  0.0000E+00  0.1200E+00
     -1.605  0.0000E+00  0.1200E+00
     -1.512  0.0000E+00  0.1200E+00
     -1.419  0.0000E+00  0.1200E+00
     -1.326  0.0000E+00  0.1200E+00
     -1.233  0.0000E+00  0.1200E+00
     -1.140  0.0000E+00  0.1200E+00
     -1.047  0.0000E+00  0.1200E+00
     -0.954  0.0000E+00  0.1200E+00
     -0.862  0.0000E+00  0.1200E+00
     -0.769  0.0000E+00  0.1200E+00
     -0.676  0.0000E+00  0.1200E+00
     -0.583  0.0000E+00  0.1200E+00
     -0.490  0.0000E+00  0.1200E+00
     -0.397  0.0000E+00  0.1200E+00
     -0.304  0.0000E+00  0.1200E+00
     -0.211  0.0000E+00  0.1200E+00
     -0.118  0.0000E+00  0.1200E+00
     -0.025  0.0000E+00  0.1200E+00
      0.068  0.0000E+00  0.1200E+00
      0.161  0.0000E+00  0.1200E+00
      0.254  0.0000E+00  0.1200E+00
      0.347  0.0000E+00  0.1200E+00
      0.440  0.0000E+00  0.1200E+00
      0.533  0.0000E+00  0.1200E+00
      0.626  0.0000E+00  0.1200E+00
      0.719  0.0000E+00  0.1200E+00
      0.812  0.0000E+00  0.1200E+00
      0.905  0.0000E+00  0.1200E+00
      0.998  0.0000E+00  0.1200E+00
      1.091  0.0000E+00  0.1200E+00
      1.184  0.0000E+00  0.1200E+00
      1.277  0.0000E+00  0.1200E+00
      1.370  0.0000E+00  0.1200E+00
      1.463  0.3625E-02  0.1202E+00
      1.556  0.4938E-02  0.1206E+00
      1.649  0.6080E-02  0.1211E+00
      1.742  0.7216E-02  0.1217E+00
      1.835  0.8595E-02  0.1224E+00
      1.928  0.1036E-01  0.1233E+00
      2.021  0.1370E-01  0.1244E+00
      2.114  0.1438E-01  0.1257E+00
      2.207  0.1506E-01  0.1271E+00
      2.300  0.1620E-01  0.1285E+00
      2.393  0.1760E-01  0.1301E+00
      2.486  0.2161E-01  0.1319E+00
      2.579  0.2322E-01  0.1341E+00
      2.672  0.2408E-01  0.1363E+00
      2.765  0.2157E-01  0.1383E+00
      2.858  0.8096E-02  0.1396E+00
      2.951  0.7129E-03  0.1400E+00
      3.044  0.0000E+00  0.1400E+00
      3.137  0.0000E+00  0.1400E+00
      3.230  0.0000E+00  0.1400E+00
      3.323  0.0000E+00  0.1400E+00
      3.416  0.0000E+00  0.1400E+00
      3.509  0.0000E+00  0.1400E+00
      3.602  0.1833E-03  0.1400E+00
      3.695  0.4792E-02  0.1404E+00
      3.788  0.5150E-02  0.1408E+00
      3.881  0.5630E-02  0.1413E+00
      3.974  0.6232E-02  0.1419E+00
      4.067  0.6797E-02  0.1425E+00
      4.160  0.7593E-02  0.1431E+00
      4.253  0.8557E-02  0.1439E+00
      4.346  0.9419E-02  0.1447E+00
      4.439  0.1048E-01  0.1456E+00
      4.532  0.1244E-01  0.1467E+00
      4.625  0.1517E-01  0.1480E+00
      4.718  0.1923E-01  0.1496E+00
      4.811  0.2461E-01  0.1516E+00
      4.904  0.2429E-01  0.1540E+00
      4.997  0.1937E-01  0.1561E+00
      5.090  0.1374E-01  0.1575E+00
      5.183  0.1076E-01  0.1587E+00
      5.276  0.9443E-02  0.1596E+00
      5.369  0.1191E-01  0.1605E+00
      5.462  0.1075E-01  0.1616E+00
      5.555  0.1216E-01  0.1627E+00
      5.648  0.1491E-01  0.1639E+00
      5.741  0.1692E-01  0.1654E+00
      5.834  0.1598E-01  0.1670E+00
      5.927  0.1659E-01  0.1685E+00
      6.020  0.1750E-01  0.1701E+00
      6.113  0.2050E-01  0.1718E+00
      6.206  0.2061E-01  0.1738E+00
      6.299  0.1486E-01  0.1755E+00
      6.392  0.1366E-01  0.1768E+00
      6.485  0.1184E-01  0.1780E+00
      6.578  0.1235E-01  0.1791E+00
      6.671  0.9944E-02  0.1802E+00
      6.764  0.1153E-01  0.1811E+00
      6.857  0.1265E-01  0.1823E+00
      6.950  0.1223E-01  0.1835E+00
      7.043  0.1192E-01  0.1846E+00
      7.136  0.9229E-02  0.1856E+00
      7.229  0.1037E-01  0.1864E+00
      7.322  0.9023E-02  0.1874E+00
      7.415  0.7587E-02  0.1882E+00
      7.508  0.6615E-02  0.1888E+00
      7.601  0.3491E-02  0.1893E+00
      7.694  0.2013E-02  0.1896E+00
      7.787  0.1393E-02  0.1897E+00
      7.880  0.1088E-02  0.1898E+00
      7.973  0.7208E-03  0.1899E+00
      8.066  0.4497E-03  0.1900E+00
      8.159  0.2327E-03  0.1900E+00
      8.252  0.3594E-04  0.1900E+00
      8.345  0.0000E+00  0.1900E+00
      8.438  0.0000E+00  0.1900E+00
      8.531  0.0000E+00  0.1900E+00
      8.624  0.0000E+00  0.1900E+00
      8.717  0.0000E+00  0.1900E+00
      8.809  0.0000E+00  0.1900E+00
      8.902  0.0000E+00  0.1900E+00
      8.995  0.0000E+00  0.1900E+00
      9.088  0.0000E+00  0.1900E+00
      9.181  0.0000E+00  0.1900E+00
      9.274  0.0000E+00  0.1900E+00
      9.367  0.0000E+00  0.1900E+00
      9.460  0.0000E+00  0.1900E+00
      9.553  0.0000E+00  0.1900E+00
      9.646  0.0000E+00  0.1900E+00
      9.739  0.0000E+00  0.1900E+00
      9.832  0.0000E+00  0.1900E+00
      9.925  0.0000E+00  0.1900E+00
     10.018  0.0000E+00  0.1900E+00
     10.111  0.0000E+00  0.1900E+00
     10.204  0.0000E+00  0.1900E+00
     10.297  0.0000E+00  0.1900E+00
