   12   12  200    1
  0.9985468E+01  0.4736507E-09  0.6282924E-09  0.4026518E-09  0.5000000E-15
  1.000000000000000E-004
  CAR 
 ethylene                                
     24    350     19
