   12   12  200    1
  0.9985468E+01  0.4736507E-09  0.6282924E-09  0.4026518E-09  0.5000000E-15
  1.000000000000000E-004
  CAR 
 ethylene                                
     24    350     19
 
  0.0000000E+00  0.0000000E+00  0.0000000E+00  0.8680556E-03
    1      -15.599768
    2      -15.259711
    3      -10.700708
    4      -10.699544
    5       -7.763029
    6       -7.684723
    7       -7.082654
    8       -6.683864
    9       -5.042357
   10       -4.540912
   11       -3.341516
   12       -3.037309
   13        1.371181
   14        2.808269
   15        3.615000
   16        4.793040
   17        6.193591
   18        7.212193
   19        7.311454
 
  0.8333333E-01  0.0000000E+00  0.0000000E+00  0.1736111E-02
    1      -15.590595
    2      -15.261282
    3      -10.716904
    4      -10.714227
    5       -7.770043
    6       -7.682969
    7       -7.053584
    8       -6.670787
    9       -5.046676
   10       -4.559518
   11       -3.337116
   12       -3.051252
   13        1.427489
   14        2.831109
   15        3.616430
   16        4.808248
   17        6.220832
   18        6.902174
   19        7.209411
 
  0.1666667E+00  0.0000000E+00  0.0000000E+00  0.1736111E-02
    1      -15.564186
    2      -15.266839
    3      -10.763164
    4      -10.751730
    5       -7.782522
    6       -7.679149
    7       -6.978259
    8       -6.638228
    9       -5.055709
   10       -4.611780
   11       -3.325996
   12       -3.088790
   13        1.588349
   14        2.886612
   15        3.634730
   16        4.852643
   17        6.293017
   18        6.346600
   19        6.927739
 
  0.2500000E+00  0.0000000E+00  0.0000000E+00  0.1736111E-02
    1      -15.523732
    2      -15.278549
    3      -10.823427
    4      -10.804440
    5       -7.786065
    6       -7.677102
    7       -6.880167
    8       -6.602712
    9       -5.059257
   10       -4.688351
   11       -3.312271
   12       -3.139201
   13        1.831162
   14        2.936368
   15        3.705765
   16        4.920445
   17        5.800362
   18        6.349036
   19        6.587978
 
  0.3333333E+00  0.0000000E+00  0.0000000E+00  0.1736111E-02
    1      -15.474175
    2      -15.299064
    3      -10.879612
    4      -10.859681
    5       -7.774192
    6       -7.681698
    7       -6.780083
    8       -6.582417
    9       -5.045753
   10       -4.777352
   11       -3.298623
   12       -3.190339
   13        2.121643
   14        2.932688
   15        3.861187
   16        4.972659
   17        5.351540
   18        6.068470
   19        6.585600
 
  0.4166667E+00  0.0000000E+00  0.0000000E+00  0.1736111E-02
    1      -15.421557
    2      -15.330236
    3      -10.916319
    4      -10.903632
    5       -7.749745
    6       -7.696430
    7       -6.692546
    8       -6.589382
    9       -5.008169
   10       -4.866931
   11       -3.283913
   12       -3.233068
   13        2.416809
   14        2.846827
   15        4.100438
   16        4.755867
   17        5.273148
   18        5.719896
   19        6.700672
 
  0.5000000E+00  0.0000000E+00  0.0000000E+00  0.8680556E-03
    1      -15.371950
    2      -15.371950
    3      -10.924642
    4      -10.924642
    5       -7.720917
    6       -7.720917
    7       -6.626976
    8       -6.626975
    9       -4.946703
   10       -4.946703
   11       -3.263694
   12       -3.263694
   13        2.670567
   14        2.670568
   15        4.406286
   16        4.406286
   17        5.448192
   18        5.448193
   19        6.807675
 
  0.0000000E+00  0.8333333E-01  0.0000000E+00  0.1736111E-02
    1      -15.594357
    2      -15.265935
    3      -10.699625
    4      -10.698594
    5       -7.765744
    6       -7.691264
    7       -7.072542
    8       -6.688350
    9       -5.034419
   10       -4.550160
   11       -3.333038
   12       -3.038409
   13        1.391460
   14        2.782387
   15        3.619083
   16        4.773383
   17        6.182789
   18        7.219722
   19        7.312858
 
  0.8333333E-01  0.8333333E-01  0.0000000E+00  0.3472222E-02
    1      -15.585328
    2      -15.267276
    3      -10.718416
    4      -10.711197
    5       -7.772894
    6       -7.687485
    7       -7.044733
    8       -6.675356
    9       -5.038593
   10       -4.567792
   11       -3.330425
   12       -3.052369
   13        1.447128
   14        2.806396
   15        3.620266
   16        4.790025
   17        6.209249
   18        6.905854
   19        7.219506
 
  0.1666667E+00  0.8333333E-01  0.0000000E+00  0.3472222E-02
    1      -15.559354
    2      -15.272152
    3      -10.765314
    4      -10.749404
    5       -7.784352
    6       -7.680383
    7       -6.971976
    8       -6.642913
    9       -5.047312
   10       -4.617506
   11       -3.323946
   12       -3.090064
   13        1.606227
   14        2.866037
   15        3.637433
   16        4.837743
   17        6.282983
   18        6.356302
   19        6.915889
 
  0.2500000E+00  0.8333333E-01  0.0000000E+00  0.3472222E-02
    1      -15.519629
    2      -15.282787
    3      -10.825927
    4      -10.803528
    5       -7.785786
    6       -7.675932
    7       -6.876293
    8       -6.607201
    9       -5.050743
   10       -4.690831
   11       -3.316029
   12       -3.141130
   13        1.846458
   14        2.923641
   15        3.705822
   16        4.910308
   17        5.809347
   18        6.376959
   19        6.526324
 
  0.3333333E+00  0.8333333E-01  0.0000000E+00  0.3472222E-02
    1      -15.471093
    2      -15.301922
    3      -10.882331
    4      -10.860236
    5       -7.771867
    6       -7.678954
    7       -6.778098
    8       -6.586143
    9       -5.037613
   10       -4.776638
   11       -3.307134
   12       -3.193864
   13        2.133957
   14        2.929007
   15        3.859364
   16        4.978386
   17        5.344701
   18        6.075235
   19        6.550355
 
  0.4166667E+00  0.8333333E-01  0.0000000E+00  0.3472222E-02
    1      -15.419764
    2      -15.331530
    3      -10.919063
    4      -10.905352
    5       -7.746110
    6       -7.692725
    7       -6.692101
    8       -6.591854
    9       -5.001027
   10       -4.863496
   11       -3.294338
   12       -3.239304
   13        2.426073
   14        2.849455
   15        4.101387
   16        4.775401
   17        5.250255
   18        5.714617
   19        6.695974
 
  0.5000000E+00  0.8333333E-01  0.0000000E+00  0.1736111E-02
    1      -15.371650
    2      -15.371650
    3      -10.927089
    4      -10.927088
    5       -7.716861
    6       -7.716860
    7       -6.627997
    8       -6.627997
    9       -4.941127
   10       -4.941127
   11       -3.272864
   12       -3.272864
   13        2.676865
   14        2.676865
   15        4.415019
   16        4.415019
   17        5.434389
   18        5.434389
   19        6.836998
 
  0.0000000E+00  0.1666667E+00  0.0000000E+00  0.1736111E-02
    1      -15.578418
    2      -15.284082
    3      -10.696685
    4      -10.695985
    5       -7.772911
    6       -7.708737
    7       -7.044231
    8       -6.702004
    9       -5.010974
   10       -4.577040
   11       -3.308746
   12       -3.042640
   13        1.451678
   14        2.703957
   15        3.638587
   16        4.708808
   17        6.171191
   18        7.228409
   19        7.327974
 
  0.8333333E-01  0.1666667E+00  0.0000000E+00  0.3472222E-02
    1      -15.569823
    2      -15.284759
    3      -10.718690
    4      -10.706765
    5       -7.779887
    6       -7.700315
    7       -7.019487
    8       -6.689227
    9       -5.014785
   10       -4.592114
   11       -3.310719
   12       -3.056797
   13        1.505501
   14        2.730731
   15        3.639990
   16        4.728895
   17        6.194200
   18        6.914863
   19        7.253129
 
  0.1666667E+00  0.1666667E+00  0.0000000E+00  0.3472222E-02
    1      -15.545145
    2      -15.287679
    3      -10.768212
    4      -10.746041
    5       -7.787863
    6       -7.685443
    7       -6.953403
    8       -6.656986
    9       -5.022783
   10       -4.635018
   11       -3.316300
   12       -3.095411
   13        1.659487
   14        2.800325
   15        3.656544
   16        4.784832
   17        6.259492
   18        6.384946
   19        6.919335
 
  0.2500000E+00  0.1666667E+00  0.0000000E+00  0.3472222E-02
    1      -15.507583
    2      -15.295203
    3      -10.830730
    4      -10.803073
    5       -7.783454
    6       -7.674539
    7       -6.864407
    8       -6.620512
    9       -5.026021
   10       -4.699283
   11       -3.323501
   12       -3.148982
   13        1.892332
   14        2.878167
   15        3.720485
   16        4.868771
   17        5.838064
   18        6.351687
   19        6.517759
 
  0.3333333E+00  0.1666667E+00  0.0000000E+00  0.3472222E-02
    1      -15.462072
    2      -15.310330
    3      -10.888487
    4      -10.863023
    5       -7.764316
    6       -7.672801
    7       -6.771736
    8       -6.597120
    9       -5.014155
   10       -4.775819
   11       -3.327354
   12       -3.206635
   13        2.171084
   14        2.910144
   15        3.868581
   16        4.970327
   17        5.343834
   18        6.047194
   19        6.555097
 
  0.4166667E+00  0.1666667E+00  0.0000000E+00  0.3472222E-02
    1      -15.414546
    2      -15.335383
    3      -10.925925
    4      -10.910658
    5       -7.735534
    6       -7.683288
    7       -6.690454
    8       -6.599087
    9       -4.980648
   10       -4.854494
   11       -3.320773
   12       -3.258814
   13        2.453709
   14        2.852368
   15        4.114343
   16        4.828066
   17        5.185256
   18        5.680851
   19        6.735692
 
  0.5000000E+00  0.1666667E+00  0.0000000E+00  0.1736111E-02
    1      -15.370827
    2      -15.370827
    3      -10.933750
    4      -10.933750
    5       -7.705777
    6       -7.705777
    7       -6.630839
    8       -6.630838
    9       -4.925578
   10       -4.925578
   11       -3.298206
   12       -3.298206
   13        2.693948
   14        2.693949
   15        4.443486
   16        4.443487
   17        5.388424
   18        5.388425
   19        6.925834
 
  0.0000000E+00  0.2500000E+00  0.0000000E+00  0.1736111E-02
    1      -15.552852
    2      -15.312661
    3      -10.692693
    4      -10.692382
    5       -7.781950
    6       -7.732065
    7       -7.002478
    8       -6.725186
    9       -4.973214
   10       -4.619167
   11       -3.271843
   12       -3.052431
   13        1.549845
   14        2.575488
   15        3.687647
   16        4.591941
   17        6.200349
   18        7.197498
   19        7.370545
 
  0.8333333E-01  0.2500000E+00  0.0000000E+00  0.3472222E-02
    1      -15.544963
    2      -15.312312
    3      -10.716723
    4      -10.703063
    5       -7.787337
    6       -7.719329
    7       -6.981305
    8       -6.712579
    9       -4.976655
   10       -4.630983
   11       -3.279440
   12       -3.067183
   13        1.600835
   14        2.605365
   15        3.691203
   16        4.615280
   17        6.216426
   18        6.918294
   19        7.305550
 
  0.1666667E+00  0.2500000E+00  0.0000000E+00  0.3472222E-02
    1      -15.522399
    2      -15.312216
    3      -10.768973
    4      -10.744684
    5       -7.788917
    6       -7.696408
    7       -6.923642
    8       -6.680241
    9       -4.983989
   10       -4.664818
   11       -3.300041
   12       -3.107996
   13        1.746990
   14        2.686351
   15        3.712197
   16        4.679628
   17        6.250958
   18        6.425223
   19        6.969327
 
  0.2500000E+00  0.2500000E+00  0.0000000E+00  0.3472222E-02
    1      -15.488370
    2      -15.314930
    3      -10.834355
    4      -10.805432
    5       -7.776383
    6       -7.677104
    7       -6.844117
    8       -6.642165
    9       -4.987518
   10       -4.716191
   11       -3.326723
   12       -3.166239
   13        1.968362
   14        2.789166
   15        3.776684
   16        4.775616
   17        5.884240
   18        6.240350
   19        6.664606
 
  0.3333333E+00  0.2500000E+00  0.0000000E+00  0.3472222E-02
    1      -15.447766
    2      -15.323795
    3      -10.894712
    4      -10.868986
    5       -7.750929
    6       -7.667798
    7       -6.760107
    8       -6.614724
    9       -4.978183
   10       -4.778448
   11       -3.348344
   12       -3.230915
   13        2.233059
   14        2.860786
   15        3.918087
   16        4.901512
   17        5.379864
   18        5.949945
   19        6.687805
 
  0.4166667E+00  0.2500000E+00  0.0000000E+00  0.3472222E-02
    1      -15.406380
    2      -15.341687
    3      -10.934123
    4      -10.919002
    5       -7.719392
    6       -7.672149
    7       -6.686771
    8       -6.610468
    9       -4.950132
   10       -4.843668
   11       -3.353063
   12       -3.290364
   13        2.498767
   14        2.844201
   15        4.159909
   16        4.903097
   17        5.080586
   18        5.600024
   19        6.862328
 
  0.5000000E+00  0.2500000E+00  0.0000000E+00  0.1736111E-02
    1      -15.369704
    2      -15.369704
    3      -10.942801
    4      -10.942801
    5       -7.690623
    6       -7.690622
    7       -6.634845
    8       -6.634844
    9       -4.903511
   10       -4.903511
   11       -3.333571
   12       -3.333571
   13        2.716983
   14        2.716983
   15        4.496767
   16        4.496767
   17        5.303467
   18        5.303467
   19        7.072309
 
  0.0000000E+00  0.3333333E+00  0.0000000E+00  0.1736111E-02
    1      -15.519145
    2      -15.349396
    3      -10.688760
    4      -10.688720
    5       -7.789447
    6       -7.755704
    7       -6.952659
    8       -6.757866
    9       -4.923290
   10       -4.673115
   11       -3.227062
   12       -3.070426
   13        1.682430
   14        2.408281
   15        3.775408
   16        4.430106
   17        6.296006
   18        7.082049
   19        7.443588
 
  0.8333333E-01  0.3333333E+00  0.0000000E+00  0.3472222E-02
    1      -15.512205
    2      -15.347769
    3      -10.712971
    4      -10.701154
    5       -7.791250
    6       -7.741215
    7       -6.934610
    8       -6.745186
    9       -4.926574
   10       -4.681793
   11       -3.239573
   12       -3.086154
   13        1.729930
   14        2.441246
   15        3.783223
   16        4.454422
   17        6.301486
   18        6.886409
   19        7.362985
 
  0.1666667E+00  0.3333333E+00  0.0000000E+00  0.3472222E-02
    1      -15.492503
    2      -15.343908
    3      -10.766872
    4      -10.746234
    5       -7.784259
    6       -7.713399
    7       -6.885000
    8       -6.712045
    9       -4.933945
   10       -4.706545
   11       -3.273654
   12       -3.130156
   13        1.866306
   14        2.533217
   15        3.814270
   16        4.522364
   17        6.283281
   18        6.458093
   19        7.059958
 
  0.2500000E+00  0.3333333E+00  0.0000000E+00  0.3472222E-02
    1      -15.463242
    2      -15.340577
    3      -10.834946
    4      -10.810867
    5       -7.763185
    6       -7.686447
    7       -6.815817
    8       -6.671127
    9       -4.939003
   10       -4.743911
   11       -3.318976
   12       -3.193838
   13        2.072997
   14        2.660304
   15        3.886670
   16        4.625610
   17        5.938620
   18        6.158924
   19        6.866524
 
  0.3333333E+00  0.3333333E+00  0.0000000E+00  0.3472222E-02
    1      -15.429227
    2      -15.341509
    3      -10.898467
    4      -10.877406
    5       -7.732517
    6       -7.668250
    7       -6.742628
    8       -6.637822
    9       -4.934138
   10       -4.789039
   11       -3.359931
   12       -3.264782
   13        2.318544
   14        2.775469
   15        4.024432
   16        4.762504
   17        5.448925
   18        5.833666
   19        6.909522
 
  0.4166667E+00  0.3333333E+00  0.0000000E+00  0.3472222E-02
    1      -15.395993
    2      -15.350208
    3      -10.940912
    4      -10.928661
    5       -7.700403
    6       -7.663941
    7       -6.680101
    8       -6.624897
    9       -4.914487
   10       -4.836488
   11       -3.380351
   12       -3.328243
   13        2.558499
   14        2.815552
   15        4.252642
   16        4.930180
   17        5.000024
   18        5.484159
   19        7.065112
 
  0.5000000E+00  0.3333333E+00  0.0000000E+00  0.1736111E-02
    1      -15.368576
    2      -15.368575
    3      -10.951786
    4      -10.951786
    5       -7.675422
    6       -7.675422
    7       -6.638962
    8       -6.638961
    9       -4.880364
   10       -4.880364
   11       -3.369857
   12       -3.369857
   13        2.739638
   14        2.739638
   15        4.578375
   16        4.578375
   17        5.182612
   18        5.182612
   19        7.261311
 
  0.0000000E+00  0.4166667E+00  0.0000000E+00  0.1736111E-02
    1      -15.479291
    2      -15.391455
    3      -10.685973
    4      -10.685927
    5       -7.792112
    6       -7.775157
    7       -6.899571
    8       -6.799154
    9       -4.864279
   10       -4.734843
   11       -3.179844
   12       -3.098203
   13        1.844013
   14        2.219587
   15        3.902696
   16        4.245716
   17        6.456895
   18        6.887874
   19        7.544322
 
  0.8333333E-01  0.4166667E+00  0.0000000E+00  0.3472222E-02
    1      -15.473517
    2      -15.388426
    3      -10.708405
    4      -10.701580
    5       -7.788777
    6       -7.762195
    7       -6.883876
    8       -6.786026
    9       -4.867852
   10       -4.741028
   11       -3.195531
   12       -3.114900
   13        1.887686
   14        2.255821
   15        3.915882
   16        4.268198
   17        6.445138
   18        6.784180
   19        7.421536
 
  0.1666667E+00  0.4166667E+00  0.0000000E+00  0.3472222E-02
    1      -15.457316
    2      -15.380408
    3      -10.762279
    4      -10.750456
    5       -7.772682
    6       -7.734152
    7       -6.840838
    8       -6.751019
    9       -4.876565
   10       -4.758242
   11       -3.238703
   12       -3.161666
   13        2.013154
   14        2.358722
   15        3.959727
   16        4.333009
   17        6.349565
   18        6.459834
   19        7.183146
 
  0.2500000E+00  0.4166667E+00  0.0000000E+00  0.3472222E-02
    1      -15.433851
    2      -15.370345
    3      -10.831951
    4      -10.818285
    5       -7.744589
    6       -7.702599
    7       -6.781281
    8       -6.705699
    9       -4.885207
   10       -4.782999
   11       -3.297914
   12       -3.228986
   13        2.202685
   14        2.508274
   15        4.044103
   16        4.435974
   17        5.994599
   18        6.101708
   19        7.105009
 
  0.3333333E+00  0.4166667E+00  0.0000000E+00  0.3472222E-02
    1      -15.407779
    2      -15.362347
    3      -10.898313
    4      -10.886452
    5       -7.711559
    6       -7.676337
    7       -6.719648
    8       -6.664627
    9       -4.887651
   10       -4.811006
   11       -3.355808
   12       -3.302210
   13        2.423871
   14        2.664141
   15        4.182380
   16        4.576750
   17        5.533627
   18        5.725484
   19        7.176281
 
  0.4166667E+00  0.4166667E+00  0.0000000E+00  0.3472222E-02
    1      -15.384276
    2      -15.360557
    3      -10.944208
    4      -10.937348
    5       -7.682237
    6       -7.662257
    7       -6.669886
    8       -6.640818
    9       -4.880068
   10       -4.838562
   11       -3.393498
   12       -3.363701
   13        2.627865
   14        2.765304
   15        4.392676
   16        4.755159
   17        5.105039
   18        5.354657
   19        7.305239
 
  0.5000000E+00  0.4166667E+00  0.0000000E+00  0.1736111E-02
    1      -15.367753
    2      -15.367753
    3      -10.958329
    4      -10.958329
    5       -7.664291
    6       -7.664291
    7       -6.642075
    8       -6.642074
    9       -4.862686
   10       -4.862686
   11       -3.397117
   12       -3.397117
   13        2.755924
   14        2.755924
   15        4.682595
   16        4.682595
   17        5.045683
   18        5.045684
   19        7.448668
 
  0.0000000E+00  0.5000000E+00  0.0000000E+00  0.8680556E-03
    1      -15.435771
    2      -15.435770
    3      -10.684926
    4      -10.684926
    5       -7.787616
    6       -7.787616
    7       -6.847273
    8       -6.847273
    9       -4.800036
   10       -4.800036
   11       -3.135483
   12       -3.135483
   13        2.026708
   14        2.026708
   15        4.063538
   16        4.063539
   17        6.664395
   18        6.664396
   19        7.667635
 
  0.8333333E-01  0.5000000E+00  0.0000000E+00  0.1736111E-02
    1      -15.431330
    2      -15.431329
    3      -10.704235
    4      -10.704235
    5       -7.778839
    6       -7.778839
    7       -6.833190
    8       -6.833190
    9       -4.804538
   10       -4.804538
   11       -3.152419
   12       -3.152419
   13        2.066535
   14        2.066535
   15        4.081984
   16        4.081985
   17        6.620762
   18        6.620762
   19        7.484561
 
  0.1666667E+00  0.5000000E+00  0.0000000E+00  0.1736111E-02
    1      -15.419100
    2      -15.419099
    3      -10.756301
    4      -10.756301
    5       -7.755108
    6       -7.755108
    7       -6.794966
    8       -6.794966
    9       -4.816413
   10       -4.816413
   11       -3.199522
   12       -3.199521
   13        2.180669
   14        2.180669
   15        4.138019
   16        4.138020
   17        6.419122
   18        6.419122
   19        7.329549
 
  0.2500000E+00  0.5000000E+00  0.0000000E+00  0.1736111E-02
    1      -15.402170
    2      -15.402169
    3      -10.825931
    4      -10.825931
    5       -7.723187
    6       -7.723187
    7       -6.743455
    8       -6.743454
    9       -4.831470
   10       -4.831470
   11       -3.265980
   12       -3.265980
   13        2.351050
   14        2.351050
   15        4.233827
   16        4.233828
   17        6.049405
   18        6.049406
   19        7.351407
 
  0.3333333E+00  0.5000000E+00  0.0000000E+00  0.1736111E-02
    1      -15.384952
    2      -15.384951
    3      -10.894007
    4      -10.894007
    5       -7.691621
    6       -7.691621
    7       -6.692810
    8       -6.692810
    9       -4.844838
   10       -4.844838
   11       -3.335099
   12       -3.335099
   13        2.542398
   14        2.542398
   15        4.374201
   16        4.374201
   17        5.626248
   18        5.626248
   19        7.439088
 
  0.4166667E+00  0.5000000E+00  0.0000000E+00  0.1736111E-02
    1      -15.372168
    2      -15.372168
    3      -10.942968
    4      -10.942968
    5       -7.668629
    6       -7.668629
    7       -6.656406
    8       -6.656405
    9       -4.853293
   10       -4.853293
   11       -3.387600
   12       -3.387599
   13        2.699708
   14        2.699708
   15        4.567163
   16        4.567163
   17        5.225514
   18        5.225514
   19        7.511545
 
  0.5000000E+00  0.5000000E+00  0.0000000E+00  0.8680556E-03
    1      -15.367447
    2      -15.367446
    3      -10.960713
    4      -10.960713
    5       -7.660214
    6       -7.660214
    7       -6.643213
    8       -6.643213
    9       -4.856042
   10       -4.856042
   11       -3.407251
   12       -3.407250
   13        2.761831
   14        2.761831
   15        4.755514
   16        4.755514
   17        4.960075
   18        4.960075
   19        7.537431
 
  0.0000000E+00  0.0000000E+00  0.1250000E+00  0.1736111E-02
    1      -15.569504
    2      -15.252821
    3      -10.682773
    4      -10.681864
    5       -7.870507
    6       -7.780015
    7       -7.007576
    8       -6.672601
    9       -5.067126
   10       -4.603936
   11       -3.363210
   12       -3.045705
   13        1.385472
   14        2.754522
   15        3.710231
   16        4.917326
   17        6.088988
   18        6.920410
   19        7.203862
 
  0.8333333E-01  0.0000000E+00  0.1250000E+00  0.1736111E-02
    1      -15.559546
    2      -15.254671
    3      -10.707106
    4      -10.693035
    5       -7.901156
    6       -7.786876
    7       -6.927617
    8       -6.668200
    9       -5.010309
   10       -4.632288
   11       -3.356319
   12       -3.121100
   13        1.415334
   14        2.778201
   15        3.634699
   16        4.866089
   17        6.136931
   18        6.688222
   19        7.427750
 
  0.1666667E+00  0.0000000E+00  0.1250000E+00  0.1736111E-02
    1      -15.533209
    2      -15.259887
    3      -10.754902
    4      -10.731470
    5       -7.915518
    6       -7.786531
    7       -6.827466
    8       -6.646690
    9       -4.969519
   10       -4.698523
   11       -3.341050
   12       -3.213216
   13        1.543921
   14        2.843500
   15        3.593412
   16        4.868775
   17        6.206698
   18        6.368331
   19        7.286005
 
  0.2500000E+00  0.0000000E+00  0.1250000E+00  0.1736111E-02
    1      -15.493733
    2      -15.270648
    3      -10.815172
    4      -10.783858
    5       -7.907190
    6       -7.780975
    7       -6.725601
    8       -6.625061
    9       -4.943658
   10       -4.795560
   11       -3.316861
   12       -3.302172
   13        1.752332
   14        2.926075
   15        3.607358
   16        4.926071
   17        6.033998
   18        6.272610
   19        6.941315
 
  0.3333333E+00  0.0000000E+00  0.1250000E+00  0.1736111E-02
    1      -15.446062
    2      -15.289600
    3      -10.874506
    4      -10.832984
    5       -7.877784
    6       -7.774008
    7       -6.636050
    8       -6.621740
    9       -4.925227
   10       -4.910558
   11       -3.371247
   12       -3.284614
   13        2.013834
   14        2.974144
   15        3.705953
   16        5.031660
   17        5.674437
   18        6.272007
   19        6.685634
 
  0.4166667E+00  0.0000000E+00  0.1250000E+00  0.1736111E-02
    1      -15.396153
    2      -15.318604
    3      -10.919144
    4      -10.864228
    5       -7.835285
    6       -7.769776
    7       -6.648869
    8       -6.567993
    9       -5.028007
   10       -4.904246
   11       -3.411641
   12       -3.244402
   13        2.293863
   14        2.929764
   15        3.911332
   16        5.152366
   17        5.333833
   18        6.140675
   19        6.538501
 
  0.5000000E+00  0.0000000E+00  0.1250000E+00  0.1736111E-02
    1      -15.357615
    2      -15.349855
    3      -10.938083
    4      -10.869267
    5       -7.791233
    6       -7.770783
    7       -6.708201
    8       -6.526216
    9       -5.132031
   10       -4.872773
   11       -3.423591
   12       -3.195637
   13        2.550703
   14        2.771935
   15        4.213492
   16        4.910961
   17        5.422910
   18        5.950108
   19        6.447518
 
 -0.4166667E+00  0.0000000E+00  0.1250000E+00  0.1736111E-02
    1      -15.404156
    2      -15.311740
    3      -10.925883
    4      -10.847582
    5       -7.776746
    6       -7.756970
    7       -6.792351
    8       -6.512525
    9       -5.207973
   10       -4.827502
   11       -3.414897
   12       -3.139296
   13        2.518419
   14        2.742803
   15        4.584642
   16        4.586536
   17        5.704078
   18        5.773881
   19        6.374459
 
 -0.3333333E+00  0.0000000E+00  0.1250000E+00  0.1736111E-02
    1      -15.453562
    2      -15.284062
    3      -10.884402
    4      -10.805829
    5       -7.785386
    6       -7.739542
    7       -6.887595
    8       -6.526431
    9       -5.244526
   10       -4.770310
   11       -3.396879
   12       -3.080440
   13        2.212008
   14        2.845020
   15        4.302258
   16        4.985942
   17        5.643766
   18        6.059307
   19        6.326696
 
 -0.2500000E+00  0.0000000E+00  0.1250000E+00  0.1736111E-02
    1      -15.500021
    2      -15.266618
    3      -10.823206
    4      -10.755757
    5       -7.795630
    6       -7.739324
    7       -6.975758
    8       -6.563169
    9       -5.238117
   10       -4.708057
   11       -3.379857
   12       -3.029285
   13        1.904504
   14        2.861136
   15        4.082726
   16        5.211643
   17        5.734141
   18        6.161422
   19        6.615086
 
 -0.1666667E+00  0.0000000E+00  0.1250000E+00  0.1736111E-02
    1      -15.537716
    2      -15.257322
    3      -10.757878
    4      -10.711009
    5       -7.810860
    6       -7.750932
    7       -7.035367
    8       -6.610640
    9       -5.195976
   10       -4.651411
   11       -3.369490
   12       -2.999377
   13        1.643013
   14        2.822845
   15        3.924507
   16        5.136077
   17        6.107698
   18        6.153006
   19        7.083568
 
 -0.8333333E-01  0.0000000E+00  0.1250000E+00  0.1736111E-02
    1      -15.561895
    2      -15.253443
    3      -10.706246
    4      -10.683764
    5       -7.836455
    6       -7.766719
    7       -7.047575
    8       -6.651901
    9       -5.133390
   10       -4.612825
   11       -3.365558
   12       -3.003109
   13        1.463066
   14        2.775116
   15        3.806556
   16        5.014092
   17        6.077718
   18        6.620114
   19        7.252682
 
  0.0000000E+00  0.8333333E-01  0.1250000E+00  0.3472222E-02
    1      -15.564416
    2      -15.258556
    3      -10.683536
    4      -10.679728
    5       -7.872243
    6       -7.783366
    7       -7.001401
    8       -6.676995
    9       -5.059436
   10       -4.611692
   11       -3.355529
   12       -3.047762
   13        1.404851
   14        2.729722
   15        3.717892
   16        4.900032
   17        6.066824
   18        6.974083