Automatically generated mesh
     350
Reciprocal lattice
    0.00000000000000    0.00000000000000    0.00000000000000             1
    0.08333333333333    0.00000000000000    0.00000000000000             2
    0.16666666666667    0.00000000000000    0.00000000000000             2
    0.25000000000000    0.00000000000000    0.00000000000000             2
    0.33333333333333    0.00000000000000    0.00000000000000             2
    0.41666666666667    0.00000000000000    0.00000000000000             2
    0.50000000000000    0.00000000000000    0.00000000000000             1
    0.00000000000000    0.08333333333333    0.00000000000000             2
    0.08333333333333    0.08333333333333    0.00000000000000             4
    0.16666666666667    0.08333333333333    0.00000000000000             4
    0.25000000000000    0.08333333333333    0.00000000000000             4
    0.33333333333333    0.08333333333333    0.00000000000000             4
    0.41666666666667    0.08333333333333    0.00000000000000             4
    0.50000000000000    0.08333333333333    0.00000000000000             2
    0.00000000000000    0.16666666666667    0.00000000000000             2
    0.08333333333333    0.16666666666667    0.00000000000000             4
    0.16666666666667    0.16666666666667    0.00000000000000             4
    0.25000000000000    0.16666666666667    0.00000000000000             4
    0.33333333333333    0.16666666666667    0.00000000000000             4
    0.41666666666667    0.16666666666667    0.00000000000000             4
    0.50000000000000    0.16666666666667    0.00000000000000             2
    0.00000000000000    0.25000000000000    0.00000000000000             2
    0.08333333333333    0.25000000000000    0.00000000000000             4
    0.16666666666667    0.25000000000000    0.00000000000000             4
    0.25000000000000    0.25000000000000    0.00000000000000             4
    0.33333333333333    0.25000000000000    0.00000000000000             4
    0.41666666666667    0.25000000000000    0.00000000000000             4
    0.50000000000000    0.25000000000000    0.00000000000000             2
    0.00000000000000    0.33333333333333    0.00000000000000             2
    0.08333333333333    0.33333333333333    0.00000000000000             4
    0.16666666666667    0.33333333333333    0.00000000000000             4
    0.25000000000000    0.33333333333333    0.00000000000000             4
    0.33333333333333    0.33333333333333    0.00000000000000             4
    0.41666666666667    0.33333333333333    0.00000000000000             4
    0.50000000000000    0.33333333333333    0.00000000000000             2
    0.00000000000000    0.41666666666667    0.00000000000000             2
    0.08333333333333    0.41666666666667    0.00000000000000             4
    0.16666666666667    0.41666666666667    0.00000000000000             4
    0.25000000000000    0.41666666666667    0.00000000000000             4
    0.33333333333333    0.41666666666667    0.00000000000000             4
    0.41666666666667    0.41666666666667    0.00000000000000             4
    0.50000000000000    0.41666666666667    0.00000000000000             2
    0.00000000000000    0.50000000000000    0.00000000000000             1
    0.08333333333333    0.50000000000000    0.00000000000000             2
    0.16666666666667    0.50000000000000    0.00000000000000             2
    0.25000000000000    0.50000000000000    0.00000000000000             2
    0.33333333333333    0.50000000000000    0.00000000000000             2
    0.41666666666667    0.50000000000000    0.00000000000000             2
    0.50000000000000    0.50000000000000    0.00000000000000             1
    0.00000000000000    0.00000000000000    0.12500000000000             2
    0.08333333333333    0.00000000000000    0.12500000000000             2
    0.16666666666667    0.00000000000000    0.12500000000000             2
    0.25000000000000    0.00000000000000    0.12500000000000             2
    0.33333333333333    0.00000000000000    0.12500000000000             2
    0.41666666666667    0.00000000000000    0.12500000000000             2
    0.50000000000000    0.00000000000000    0.12500000000000             2
   -0.41666666666667    0.00000000000000    0.12500000000000             2
   -0.33333333333333    0.00000000000000    0.12500000000000             2
   -0.25000000000000    0.00000000000000    0.12500000000000             2
   -0.16666666666667    0.00000000000000    0.12500000000000             2
   -0.08333333333333    0.00000000000000    0.12500000000000             2
    0.00000000000000    0.08333333333333    0.12500000000000             4
    0.08333333333333    0.08333333333333    0.12500000000000             4
    0.16666666666667    0.08333333333333    0.12500000000000             4
    0.25000000000000    0.08333333333333    0.12500000000000             4
    0.33333333333333    0.08333333333333    0.12500000000000             4
    0.41666666666667    0.08333333333333    0.12500000000000             4
    0.50000000000000    0.08333333333333    0.12500000000000             4
   -0.41666666666667    0.08333333333333    0.12500000000000             4
   -0.33333333333333    0.08333333333333    0.12500000000000             4
   -0.25000000000000    0.08333333333333    0.12500000000000             4
   -0.16666666666667    0.08333333333333    0.12500000000000             4
   -0.08333333333333    0.08333333333333    0.12500000000000             4
    0.00000000000000    0.16666666666667    0.12500000000000             4
    0.08333333333333    0.16666666666667    0.12500000000000             4
    0.16666666666667    0.16666666666667    0.12500000000000             4
    0.25000000000000    0.16666666666667    0.12500000000000             4
    0.33333333333333    0.16666666666667    0.12500000000000             4
    0.41666666666667    0.16666666666667    0.12500000000000             4
    0.50000000000000    0.16666666666667    0.12500000000000             4
   -0.41666666666667    0.16666666666667    0.12500000000000             4
   -0.33333333333333    0.16666666666667    0.12500000000000             4
   -0.25000000000000    0.16666666666667    0.12500000000000             4
   -0.16666666666667    0.16666666666667    0.12500000000000             4
   -0.08333333333333    0.16666666666667    0.12500000000000             4
    0.00000000000000    0.25000000000000    0.12500000000000             4
    0.08333333333333    0.25000000000000    0.12500000000000             4
    0.16666666666667    0.25000000000000    0.12500000000000             4
    0.25000000000000    0.25000000000000    0.12500000000000             4
    0.33333333333333    0.25000000000000    0.12500000000000             4
    0.41666666666667    0.25000000000000    0.12500000000000             4
    0.50000000000000    0.25000000000000    0.12500000000000             4
   -0.41666666666667    0.25000000000000    0.12500000000000             4
   -0.33333333333333    0.25000000000000    0.12500000000000             4
   -0.25000000000000    0.25000000000000    0.12500000000000             4
   -0.16666666666667    0.25000000000000    0.12500000000000             4
   -0.08333333333333    0.25000000000000    0.12500000000000             4
    0.00000000000000    0.33333333333333    0.12500000000000             4
    0.08333333333333    0.33333333333333    0.12500000000000             4
    0.16666666666667    0.33333333333333    0.12500000000000             4
    0.25000000000000    0.33333333333333    0.12500000000000             4
    0.33333333333333    0.33333333333333    0.12500000000000             4
    0.41666666666667    0.33333333333333    0.12500000000000             4
    0.50000000000000    0.33333333333333    0.12500000000000             4
   -0.41666666666667    0.33333333333333    0.12500000000000             4
   -0.33333333333333    0.33333333333333    0.12500000000000             4
   -0.25000000000000    0.33333333333333    0.12500000000000             4
   -0.16666666666667    0.33333333333333    0.12500000000000             4
   -0.08333333333333    0.33333333333333    0.12500000000000             4
    0.00000000000000    0.41666666666667    0.12500000000000             4
    0.08333333333333    0.41666666666667    0.12500000000000             4
    0.16666666666667    0.41666666666667    0.12500000000000             4
    0.25000000000000    0.41666666666667    0.12500000000000             4
    0.33333333333333    0.41666666666667    0.12500000000000             4
    0.41666666666667    0.41666666666667    0.12500000000000             4
    0.50000000000000    0.41666666666667    0.12500000000000             4
   -0.41666666666667    0.41666666666667    0.12500000000000             4
   -0.33333333333333    0.41666666666667    0.12500000000000             4
   -0.25000000000000    0.41666666666667    0.12500000000000             4
   -0.16666666666667    0.41666666666667    0.12500000000000             4
   -0.08333333333333    0.41666666666667    0.12500000000000             4
    0.00000000000000    0.50000000000000    0.12500000000000             2
    0.08333333333333    0.50000000000000    0.12500000000000             2
    0.16666666666667    0.50000000000000    0.12500000000000             2
    0.25000000000000    0.50000000000000    0.12500000000000             2
    0.33333333333333    0.50000000000000    0.12500000000000             2
    0.41666666666667    0.50000000000000    0.12500000000000             2
    0.50000000000000    0.50000000000000    0.12500000000000             2
   -0.41666666666667    0.50000000000000    0.12500000000000             2
   -0.33333333333333    0.50000000000000    0.12500000000000             2
   -0.25000000000000    0.50000000000000    0.12500000000000             2
   -0.16666666666667    0.50000000000000    0.12500000000000             2
   -0.08333333333333    0.50000000000000    0.12500000000000             2
    0.00000000000000    0.00000000000000    0.25000000000000             2
    0.08333333333333    0.00000000000000    0.25000000000000             2
    0.16666666666667    0.00000000000000    0.25000000000000             2
    0.25000000000000    0.00000000000000    0.25000000000000             2
    0.33333333333333    0.00000000000000    0.25000000000000             2
    0.41666666666667    0.00000000000000    0.25000000000000             2
    0.50000000000000    0.00000000000000    0.25000000000000             2
   -0.41666666666667    0.00000000000000    0.25000000000000             2
   -0.33333333333333    0.00000000000000    0.25000000000000             2
   -0.25000000000000    0.00000000000000    0.25000000000000             2
   -0.16666666666667    0.00000000000000    0.25000000000000             2
   -0.08333333333333    0.00000000000000    0.25000000000000             2
    0.00000000000000    0.08333333333333    0.25000000000000             4
    0.08333333333333    0.08333333333333    0.25000000000000             4
    0.16666666666667    0.08333333333333    0.25000000000000             4
    0.25000000000000    0.08333333333333    0.25000000000000             4
    0.33333333333333    0.08333333333333    0.25000000000000             4
    0.41666666666667    0.08333333333333    0.25000000000000             4
    0.50000000000000    0.08333333333333    0.25000000000000             4
   -0.41666666666667    0.08333333333333    0.25000000000000             4
   -0.33333333333333    0.08333333333333    0.25000000000000             4
   -0.25000000000000    0.08333333333333    0.25000000000000             4
   -0.16666666666667    0.08333333333333    0.25000000000000             4
   -0.08333333333333    0.08333333333333    0.25000000000000             4
    0.00000000000000    0.16666666666667    0.25000000000000             4
    0.08333333333333    0.16666666666667    0.25000000000000             4
    0.16666666666667    0.16666666666667    0.25000000000000             4
    0.25000000000000    0.16666666666667    0.25000000000000             4
    0.33333333333333    0.16666666666667    0.25000000000000             4
    0.41666666666667    0.16666666666667    0.25000000000000             4
    0.50000000000000    0.16666666666667    0.25000000000000             4
   -0.41666666666667    0.16666666666667    0.25000000000000             4
   -0.33333333333333    0.16666666666667    0.25000000000000             4
   -0.25000000000000    0.16666666666667    0.25000000000000             4
   -0.16666666666667    0.16666666666667    0.25000000000000             4
   -0.08333333333333    0.16666666666667    0.25000000000000             4
    0.00000000000000    0.25000000000000    0.25000000000000             4
    0.08333333333333    0.25000000000000    0.25000000000000             4
    0.16666666666667    0.25000000000000    0.25000000000000             4
    0.25000000000000    0.25000000000000    0.25000000000000             4
    0.33333333333333    0.25000000000000    0.25000000000000             4
    0.41666666666667    0.25000000000000    0.25000000000000             4
    0.50000000000000    0.25000000000000    0.25000000000000             4
   -0.41666666666667    0.25000000000000    0.25000000000000             4
   -0.33333333333333    0.25000000000000    0.25000000000000             4
   -0.25000000000000    0.25000000000000    0.25000000000000             4
   -0.16666666666667    0.25000000000000    0.25000000000000             4
   -0.08333333333333    0.25000000000000    0.25000000000000             4
    0.00000000000000    0.33333333333333    0.25000000000000             4
    0.08333333333333    0.33333333333333    0.25000000000000             4
    0.16666666666667    0.33333333333333    0.25000000000000             4
    0.25000000000000    0.33333333333333    0.25000000000000             4
    0.33333333333333    0.33333333333333    0.25000000000000             4
    0.41666666666667    0.33333333333333    0.25000000000000             4
    0.50000000000000    0.33333333333333    0.25000000000000             4
   -0.41666666666667    0.33333333333333    0.25000000000000             4
   -0.33333333333333    0.33333333333333    0.25000000000000             4
   -0.25000000000000    0.33333333333333    0.25000000000000             4
   -0.16666666666667    0.33333333333333    0.25000000000000             4
   -0.08333333333333    0.33333333333333    0.25000000000000             4
    0.00000000000000    0.41666666666667    0.25000000000000             4
    0.08333333333333    0.41666666666667    0.25000000000000             4
    0.16666666666667    0.41666666666667    0.25000000000000             4
    0.25000000000000    0.41666666666667    0.25000000000000             4
    0.33333333333333    0.41666666666667    0.25000000000000             4
    0.41666666666667    0.41666666666667    0.25000000000000             4
    0.50000000000000    0.41666666666667    0.25000000000000             4
   -0.41666666666667    0.41666666666667    0.25000000000000             4
   -0.33333333333333    0.41666666666667    0.25000000000000             4
   -0.25000000000000    0.41666666666667    0.25000000000000             4
   -0.16666666666667    0.41666666666667    0.25000000000000             4
   -0.08333333333333    0.41666666666667    0.25000000000000             4
    0.00000000000000    0.50000000000000    0.25000000000000             2
    0.08333333333333    0.50000000000000    0.25000000000000             2
    0.16666666666667    0.50000000000000    0.25000000000000             2
    0.25000000000000    0.50000000000000    0.25000000000000             2
    0.33333333333333    0.50000000000000    0.25000000000000             2
    0.41666666666667    0.50000000000000    0.25000000000000             2
    0.50000000000000    0.50000000000000    0.25000000000000             2
   -0.41666666666667    0.50000000000000    0.25000000000000             2
   -0.33333333333333    0.50000000000000    0.25000000000000             2
   -0.25000000000000    0.50000000000000    0.25000000000000             2
   -0.16666666666667    0.50000000000000    0.25000000000000             2
   -0.08333333333333    0.50000000000000    0.25000000000000             2
    0.00000000000000    0.00000000000000    0.37500000000000             2
    0.08333333333333    0.00000000000000    0.37500000000000             2
    0.16666666666667    0.00000000000000    0.37500000000000             2
    0.25000000000000    0.00000000000000    0.37500000000000             2
    0.33333333333333    0.00000000000000    0.37500000000000             2
    0.41666666666667    0.00000000000000    0.37500000000000             2
    0.50000000000000    0.00000000000000    0.37500000000000             2
   -0.41666666666667    0.00000000000000    0.37500000000000             2
   -0.33333333333333    0.00000000000000    0.37500000000000             2
   -0.25000000000000    0.00000000000000    0.37500000000000             2
   -0.16666666666667    0.00000000000000    0.37500000000000             2
   -0.08333333333333    0.00000000000000    0.37500000000000             2
    0.00000000000000    0.08333333333333    0.37500000000000             4
    0.08333333333333    0.08333333333333    0.37500000000000             4
    0.16666666666667    0.08333333333333    0.37500000000000             4
    0.25000000000000    0.08333333333333    0.37500000000000             4
    0.33333333333333    0.08333333333333    0.37500000000000             4
    0.41666666666667    0.08333333333333    0.37500000000000             4
    0.50000000000000    0.08333333333333    0.37500000000000             4
   -0.41666666666667    0.08333333333333    0.37500000000000             4
   -0.33333333333333    0.08333333333333    0.37500000000000             4
   -0.25000000000000    0.08333333333333    0.37500000000000             4
   -0.16666666666667    0.08333333333333    0.37500000000000             4
   -0.08333333333333    0.08333333333333    0.37500000000000             4
    0.00000000000000    0.16666666666667    0.37500000000000             4
    0.08333333333333    0.16666666666667    0.37500000000000             4
    0.16666666666667    0.16666666666667    0.37500000000000             4
    0.25000000000000    0.16666666666667    0.37500000000000             4
    0.33333333333333    0.16666666666667    0.37500000000000             4
    0.41666666666667    0.16666666666667    0.37500000000000             4
    0.50000000000000    0.16666666666667    0.37500000000000             4
   -0.41666666666667    0.16666666666667    0.37500000000000             4
   -0.33333333333333    0.16666666666667    0.37500000000000             4
   -0.25000000000000    0.16666666666667    0.37500000000000             4
   -0.16666666666667    0.16666666666667    0.37500000000000             4
   -0.08333333333333    0.16666666666667    0.37500000000000             4
    0.00000000000000    0.25000000000000    0.37500000000000             4
    0.08333333333333    0.25000000000000    0.37500000000000             4
    0.16666666666667    0.25000000000000    0.37500000000000             4
    0.25000000000000    0.25000000000000    0.37500000000000             4
    0.33333333333333    0.25000000000000    0.37500000000000             4
    0.41666666666667    0.25000000000000    0.37500000000000             4
    0.50000000000000    0.25000000000000    0.37500000000000             4
   -0.41666666666667    0.25000000000000    0.37500000000000             4
   -0.33333333333333    0.25000000000000    0.37500000000000             4
   -0.25000000000000    0.25000000000000    0.37500000000000             4
   -0.16666666666667    0.25000000000000    0.37500000000000             4
   -0.08333333333333    0.25000000000000    0.37500000000000             4
    0.00000000000000    0.33333333333333    0.37500000000000             4
    0.08333333333333    0.33333333333333    0.37500000000000             4
    0.16666666666667    0.33333333333333    0.37500000000000             4
    0.25000000000000    0.33333333333333    0.37500000000000             4
    0.33333333333333    0.33333333333333    0.37500000000000             4
    0.41666666666667    0.33333333333333    0.37500000000000             4
    0.50000000000000    0.33333333333333    0.37500000000000             4
   -0.41666666666667    0.33333333333333    0.37500000000000             4
   -0.33333333333333    0.33333333333333    0.37500000000000             4
   -0.25000000000000    0.33333333333333    0.37500000000000             4
   -0.16666666666667    0.33333333333333    0.37500000000000             4
   -0.08333333333333    0.33333333333333    0.37500000000000             4
    0.00000000000000    0.41666666666667    0.37500000000000             4
    0.08333333333333    0.41666666666667    0.37500000000000             4
    0.16666666666667    0.41666666666667    0.37500000000000             4
    0.25000000000000    0.41666666666667    0.37500000000000             4
    0.33333333333333    0.41666666666667    0.37500000000000             4
    0.41666666666667    0.41666666666667    0.37500000000000             4
    0.50000000000000    0.41666666666667    0.37500000000000             4
   -0.41666666666667    0.41666666666667    0.37500000000000             4
   -0.33333333333333    0.41666666666667    0.37500000000000             4
   -0.25000000000000    0.41666666666667    0.37500000000000             4
   -0.16666666666667    0.41666666666667    0.37500000000000             4
   -0.08333333333333    0.41666666666667    0.37500000000000             4
    0.00000000000000    0.50000000000000    0.37500000000000             2
    0.08333333333333    0.50000000000000    0.37500000000000             2
    0.16666666666667    0.50000000000000    0.37500000000000             2
    0.25000000000000    0.50000000000000    0.37500000000000             2
    0.33333333333333    0.50000000000000    0.37500000000000             2
    0.41666666666667    0.50000000000000    0.37500000000000             2
    0.50000000000000    0.50000000000000    0.37500000000000             2
   -0.41666666666667    0.50000000000000    0.37500000000000             2
   -0.33333333333333    0.50000000000000    0.37500000000000             2
   -0.25000000000000    0.50000000000000    0.37500000000000             2
   -0.16666666666667    0.50000000000000    0.37500000000000             2
   -0.08333333333333    0.50000000000000    0.37500000000000             2
    0.00000000000000    0.00000000000000    0.50000000000000             1
    0.08333333333333    0.00000000000000    0.50000000000000             2
    0.16666666666667    0.00000000000000    0.50000000000000             2
    0.25000000000000    0.00000000000000    0.50000000000000             2
    0.33333333333333    0.00000000000000    0.50000000000000             2
    0.41666666666667    0.00000000000000    0.50000000000000             2
    0.50000000000000    0.00000000000000    0.50000000000000             1
    0.00000000000000    0.08333333333333    0.50000000000000             2
    0.08333333333333    0.08333333333333    0.50000000000000             4
    0.16666666666667    0.08333333333333    0.50000000000000             4
    0.25000000000000    0.08333333333333    0.50000000000000             4
    0.33333333333333    0.08333333333333    0.50000000000000             4
    0.41666666666667    0.08333333333333    0.50000000000000             4
    0.50000000000000    0.08333333333333    0.50000000000000             2
    0.00000000000000    0.16666666666667    0.50000000000000             2
    0.08333333333333    0.16666666666667    0.50000000000000             4
    0.16666666666667    0.16666666666667    0.50000000000000             4
    0.25000000000000    0.16666666666667    0.50000000000000             4
    0.33333333333333    0.16666666666667    0.50000000000000             4
    0.41666666666667    0.16666666666667    0.50000000000000             4
    0.50000000000000    0.16666666666667    0.50000000000000             2
    0.00000000000000    0.25000000000000    0.50000000000000             2
    0.08333333333333    0.25000000000000    0.50000000000000             4
    0.16666666666667    0.25000000000000    0.50000000000000             4
    0.25000000000000    0.25000000000000    0.50000000000000             4
    0.33333333333333    0.25000000000000    0.50000000000000             4
    0.41666666666667    0.25000000000000    0.50000000000000             4
    0.50000000000000    0.25000000000000    0.50000000000000             2
    0.00000000000000    0.33333333333333    0.50000000000000             2
    0.08333333333333    0.33333333333333    0.50000000000000             4
    0.16666666666667    0.33333333333333    0.50000000000000             4
    0.25000000000000    0.33333333333333    0.50000000000000             4
    0.33333333333333    0.33333333333333    0.50000000000000             4
    0.41666666666667    0.33333333333333    0.50000000000000             4
    0.50000000000000    0.33333333333333    0.50000000000000             2
    0.00000000000000    0.41666666666667    0.50000000000000             2
    0.08333333333333    0.41666666666667    0.50000000000000             4
    0.16666666666667    0.41666666666667    0.50000000000000             4
    0.25000000000000    0.41666666666667    0.50000000000000             4
    0.33333333333333    0.41666666666667    0.50000000000000             4
    0.41666666666667    0.41666666666667    0.50000000000000             4
    0.50000000000000    0.41666666666667    0.50000000000000             2
    0.00000000000000    0.50000000000000    0.50000000000000             1
    0.08333333333333    0.50000000000000    0.50000000000000             2
    0.16666666666667    0.50000000000000    0.50000000000000             2
    0.25000000000000    0.50000000000000    0.50000000000000             2
    0.33333333333333    0.50000000000000    0.50000000000000             2
    0.41666666666667    0.50000000000000    0.50000000000000             2
    0.50000000000000    0.50000000000000    0.50000000000000             1
Tetrahedra
      3456    0.00014467592593
         2         1         2         9        50
         2         1         8         9        50
         2         8         9        50        62
         2         2         9        50        51
         2         9        50        51        63
         2         9        50        62        63
         2         2         3        10        51
         2         2         9        10        51
         2         9        10        51        63
         2         3        10        51        52
         2        10        51        52        64
         2        10        51        63        64
         2         3         4        11        52
         2         3        10        11        52
         2        10        11        52        64
         2         4        11        52        53
         2        11        52        53        65
         2        11        52        64        65
         2         4         5        12        53
         2         4        11        12        53
         2        11        12        53        65
         2         5        12        53        54
         2        12        53        54        66
         2        12        53        65        66
         2         5         6        13        54
         2         5        12        13        54
         2        12        13        54        66
         2         6        13        54        55
         2        13        54        55        67
         2        13        54        66        67
         2         6         7        14        55
         2         6        13        14        55
         2        13        14        55        67
         2         7        14        55        56
         2        14        55        56        68
         2        14        55        67        68
         2         6         7        13        56
         2         7        13        14        56
         2        13        14        56        68
         2         6        13        56        57
         2        13        56        57        69
         2        13        56        68        69
         2         5         6        12        57
         2         6        12        13        57
         2        12        13        57        69
         2         5        12        57        58
         2        12        57        58        70
         2        12        57        69        70
         2         4         5        11        58
         2         5        11        12        58
         2        11        12        58        70
         2         4        11        58        59
         2        11        58        59        71
         2        11        58        70        71
         2         3         4        10        59
         2         4        10        11        59
         2        10        11        59        71
         2         3        10        59        60
         2        10        59        60        72
         2        10        59        71        72
         2         2         3         9        60
         2         3         9        10        60
         2         9        10        60        72
         2         2         9        60        61
         2         9        60        61        73
         2         9        60        72        73
         2         1         2         8        61
         2         2         8         9        61
         2         8         9        61        73
         2         1         8        50        61
         2         8        50        61        62