ethylene                                
           1
     4.736507    0.000000    0.000000
     0.000000    6.282924    0.000000
     0.000000    0.000000    4.026518
   C    H 
   4   8
Direct configuration=     1
   0.88344002  0.05382000  0.95924997
   0.11656000  0.94617999  0.04075000
   0.61655998  0.55382001  0.54075003
   0.38344002  0.44617999  0.45925000
   0.81309998  0.16980000  0.11850000
   0.18690000  0.83020002  0.88150001
   0.68690002  0.66979998  0.38150001
   0.31309998  0.33020002  0.61849999
   0.75699997  0.02870000  0.73109996
   0.24300000  0.97130001  0.26890001
   0.74300003  0.52869999  0.76890004
   0.25700000  0.47130001  0.23109999
Direct configuration=     2
   0.89031763  0.04305855  0.94503038
   0.10968238  0.95694143  0.05496959
   0.60968237  0.54305857  0.55496962
   0.39031763  0.45694143  0.44503041
   0.80218797  0.18473436  0.13654011
   0.19781201  0.81526565  0.86345989
   0.69781203  0.68473435  0.36345989
   0.30218797  0.31526565  0.63654011
   0.76213214  0.02785312  0.73619334
   0.23786783  0.97214689  0.26380663
   0.73786786  0.52785311  0.76380666
   0.26213217  0.47214689  0.23619337
Direct configuration=     3
   0.88564057  0.05037678  0.95470029
   0.11435944  0.94962321  0.04529969
   0.61435943  0.55037679  0.54529971
   0.38564057  0.44962321  0.45470032
   0.80960859  0.17457838  0.12427210
   0.19039140  0.82542163  0.87572791
   0.69039141  0.67457837  0.37572791
   0.30960859  0.32542163  0.62427209
   0.75864205  0.02842903  0.73272963
   0.24135792  0.97157097  0.26727034
   0.74135795  0.52842903  0.76727037
   0.25864208  0.47157097  0.23272966
Direct configuration=     4
   0.88503845  0.05131892  0.95594518
   0.11496156  0.94868106  0.04405479
   0.61496155  0.55131894  0.54405482
   0.38503845  0.44868106  0.45594521
   0.81056391  0.17327091  0.12269272
   0.18943608  0.82672911  0.87730729
   0.68943609  0.67327089  0.37730729
   0.31056391  0.32672911  0.62269271
   0.75819274  0.02850318  0.73228372
   0.24180723  0.97149683  0.26771625
   0.74180726  0.52850317  0.76771628
   0.25819277  0.47149683  0.23228375
Direct configuration=     5
   0.87976788  0.05529010  0.95752475
   0.12023214  0.94470989  0.04247522
   0.62023212  0.55529011  0.54247525
   0.37976788  0.44470989  0.45752478
   0.80435998  0.17971748  0.12850463
   0.19564001  0.82028253  0.87149538
   0.69564002  0.67971747  0.37149538
   0.30435998  0.32028253  0.62850462
   0.76193890  0.02667140  0.73330144
   0.23806107  0.97332861  0.26669853
   0.73806110  0.52667139  0.76669856
   0.26193893  0.47332861  0.23330147
Direct configuration=     6
   0.88215040  0.05349496  0.95681072
   0.11784962  0.94650503  0.04318925
   0.61784960  0.55349497  0.54318928
   0.38215040  0.44650503  0.45681075
   0.80716442  0.17680336  0.12587740
   0.19283557  0.82319666  0.87412261
   0.69283558  0.67680334  0.37412261
   0.30716442  0.32319666  0.62587739
   0.76024548  0.02749944  0.73284139
   0.23975449  0.97250057  0.26715858
   0.73975452  0.52749943  0.76715861
   0.26024551  0.47250057  0.23284142
Direct configuration=     7
   0.88384656  0.05590008  0.96443699
   0.11615346  0.94409990  0.03556299
   0.61615344  0.55590010  0.53556301
   0.38384656  0.44409990  0.46443702
   0.80278700  0.18057684  0.12830514
   0.19721299  0.81942317  0.87169487
   0.69721300  0.68057683  0.37169487
   0.30278700  0.31942317  0.62830513
   0.76243610  0.02585891  0.73216724
   0.23756387  0.97414110  0.26783273
   0.73756390  0.52585890  0.76783276
   0.26243613  0.47414110  0.23216727
Direct configuration=     8
   0.88329955  0.05512443  0.96197751
   0.11670047  0.94487556  0.03802246
   0.61670045  0.55512444  0.53802249
   0.38329955  0.44487556  0.46197754
   0.80419872  0.17935989  0.12752219
   0.19580127  0.82064012  0.87247781
   0.69580128  0.67935988  0.37247781
   0.30419872  0.32064012  0.62752219
   0.76172962  0.02638798  0.73238465
   0.23827035  0.97361202  0.26761532
   0.73827038  0.52638798  0.76761535
   0.26172965  0.47361202  0.23238468
Direct configuration=     9
   0.88391710  0.05499527  0.96253544
   0.11608292  0.94500472  0.03746454
   0.61608290  0.55499528  0.53746456
   0.38391710  0.44500472  0.46253547
   0.80351379  0.17972031  0.12743801
   0.19648619  0.82027970  0.87256200
   0.69648621  0.67972030  0.37256200
   0.30351379  0.32027970  0.62743800
   0.76318784  0.02634932  0.73428919
   0.23681213  0.97365069  0.26571078
   0.73681216  0.52634931  0.76571081
   0.26318787  0.47365069  0.23428922
Direct configuration=    10
   0.88419746  0.05493663  0.96278873
   0.11580255  0.94506335  0.03721125
   0.61580254  0.55493665  0.53721127
   0.38419746  0.44506335  0.46278876
   0.80320284  0.17988394  0.12739979
   0.19679714  0.82011608  0.87260022
   0.69679716  0.67988392  0.37260022
   0.30320284  0.32011608  0.62739978
   0.76384985  0.02633176  0.73515383
   0.23615012  0.97366824  0.26484614
   0.73615015  0.52633176  0.76484617
   0.26384988  0.47366824  0.23515386
Direct configuration=    11
   0.88351838  0.05563593  0.96340343
   0.11648163  0.94436405  0.03659654
   0.61648162  0.55563595  0.53659657
   0.38351838  0.44436405  0.46340346
   0.80288455  0.17980189  0.12686367
   0.19711544  0.82019813  0.87313634
   0.69711545  0.67980187  0.37313634
   0.30288455  0.32019813  0.62686366
   0.76516380  0.02628694  0.73685095
   0.23483617  0.97371307  0.26314902
   0.73483620  0.52628693  0.76314905
   0.26516383  0.47371307  0.23685098
Direct configuration=    12
   0.88382962  0.05531542  0.96312169
   0.11617039  0.94468456  0.03687828
   0.61617038  0.55531544  0.53687831
   0.38382962  0.44468456  0.46312172
   0.80303043  0.17983949  0.12710939
   0.19696955  0.82016052  0.87289062
   0.69696957  0.67983948  0.37289062
   0.30303043  0.32016052  0.62710938
   0.76456158  0.02630748  0.73607311
   0.23543839  0.97369252  0.26392686
   0.73543842  0.52630748  0.76392689
   0.26456161  0.47369252  0.23607314
Direct configuration=    13
   0.88396725  0.05542552  0.96355774
   0.11603276  0.94457447  0.03644224
   0.61603275  0.55542553  0.53644226
   0.38396725  0.44457447  0.46355777
   0.80303712  0.17975117  0.12696583
   0.19696286  0.82024885  0.87303418
   0.69696288  0.67975115  0.37303418
   0.30303712  0.32024885  0.62696582
   0.76462982  0.02626845  0.73608221
   0.23537015  0.97373155  0.26391776
   0.73537018  0.52626845  0.76391779
   0.26462985  0.47373155  0.23608224
Direct configuration=    14
   0.88391873  0.05538670  0.96340401
   0.11608129  0.94461328  0.03659597
   0.61608127  0.55538672  0.53659599
   0.38391873  0.44461328  0.46340404
   0.80303476  0.17978231  0.12701644
   0.19696522  0.82021771  0.87298357
   0.69696524  0.67978229  0.37298357
   0.30303476  0.32021771  0.62701643
   0.76460576  0.02628221  0.73607900
   0.23539421  0.97371779  0.26392097
   0.73539424  0.52628221  0.76392100
   0.26460579  0.47371779  0.23607903
