  48  48   0   0
  0.9235776E+01  0.7255596E-09  0.9244349E-09  0.6609448E-09  0.5000000E-15
  1.000000000000000E-004
  CAR 
 benzene                                 
     10.74480770    -18.59696704  301     -1.16306255      1.00000000
    -18.597  0.0000E+00  0.0000E+00
    -18.499  0.0000E+00  0.0000E+00
    -18.401  0.0000E+00  0.0000E+00
    -18.304  0.0000E+00  0.0000E+00
    -18.206  0.0000E+00  0.0000E+00
    -18.108  0.0000E+00  0.0000E+00
    -18.010  0.0000E+00  0.0000E+00
    -17.912  0.0000E+00  0.0000E+00
    -17.815  0.0000E+00  0.0000E+00
    -17.717  0.0000E+00  0.0000E+00
    -17.619  0.0000E+00  0.0000E+00
    -17.521  0.0000E+00  0.0000E+00
    -17.423  0.0000E+00  0.0000E+00
    -17.325  0.0000E+00  0.0000E+00
    -17.228  0.0000E+00  0.0000E+00
    -17.130  0.0000E+00  0.0000E+00
    -17.032  0.0000E+00  0.0000E+00
    -16.934  0.0000E+00  0.0000E+00
    -16.836  0.0000E+00  0.0000E+00
    -16.739  0.0000E+00  0.0000E+00
    -16.641  0.0000E+00  0.0000E+00
    -16.543  0.6477E-01  0.1579E-02
    -16.445  0.2116E+00  0.2068E-01
    -16.347  0.0000E+00  0.4000E-01
    -16.250  0.0000E+00  0.4000E-01
    -16.152  0.0000E+00  0.4000E-01
    -16.054  0.0000E+00  0.4000E-01
    -15.956  0.0000E+00  0.4000E-01
    -15.858  0.0000E+00  0.4000E-01
    -15.761  0.0000E+00  0.4000E-01
    -15.663  0.0000E+00  0.4000E-01
    -15.565  0.0000E+00  0.4000E-01
    -15.467  0.0000E+00  0.4000E-01
    -15.369  0.0000E+00  0.4000E-01
    -15.272  0.0000E+00  0.4000E-01
    -15.174  0.0000E+00  0.4000E-01
    -15.076  0.0000E+00  0.4000E-01
    -14.978  0.0000E+00  0.4000E-01
    -14.880  0.0000E+00  0.4000E-01
    -14.783  0.0000E+00  0.4000E-01
    -14.685  0.0000E+00  0.4000E-01
    -14.587  0.0000E+00  0.4000E-01
    -14.489  0.0000E+00  0.4000E-01
    -14.391  0.0000E+00  0.4000E-01
    -14.294  0.0000E+00  0.4000E-01
    -14.196  0.0000E+00  0.4000E-01
    -14.098  0.0000E+00  0.4000E-01
    -14.000  0.0000E+00  0.4000E-01
    -13.902  0.0000E+00  0.4000E-01
    -13.804  0.5038E-01  0.4205E-01
    -13.707  0.2361E+00  0.6243E-01
    -13.609  0.4645E+00  0.8782E-01
    -13.511  0.0000E+00  0.1200E+00
    -13.413  0.0000E+00  0.1200E+00
    -13.315  0.0000E+00  0.1200E+00
    -13.218  0.0000E+00  0.1200E+00
    -13.120  0.0000E+00  0.1200E+00
    -13.022  0.0000E+00  0.1200E+00
    -12.924  0.0000E+00  0.1200E+00
    -12.826  0.0000E+00  0.1200E+00
    -12.729  0.0000E+00  0.1200E+00
    -12.631  0.0000E+00  0.1200E+00
    -12.533  0.0000E+00  0.1200E+00
    -12.435  0.0000E+00  0.1200E+00
    -12.337  0.0000E+00  0.1200E+00
    -12.240  0.0000E+00  0.1200E+00
    -12.142  0.0000E+00  0.1200E+00
    -12.044  0.0000E+00  0.1200E+00
    -11.946  0.0000E+00  0.1200E+00
    -11.848  0.0000E+00  0.1200E+00
    -11.751  0.0000E+00  0.1200E+00
    -11.653  0.0000E+00  0.1200E+00
    -11.555  0.0000E+00  0.1200E+00
    -11.457  0.0000E+00  0.1200E+00
    -11.359  0.0000E+00  0.1200E+00
    -11.262  0.0000E+00  0.1200E+00
    -11.164  0.0000E+00  0.1200E+00
    -11.066  0.0000E+00  0.1200E+00
    -10.968  0.0000E+00  0.1200E+00
    -10.870  0.0000E+00  0.1200E+00
    -10.772  0.0000E+00  0.1200E+00
    -10.675  0.0000E+00  0.1200E+00
    -10.577  0.0000E+00  0.1200E+00
    -10.479  0.0000E+00  0.1200E+00
    -10.381  0.0000E+00  0.1200E+00
    -10.283  0.0000E+00  0.1200E+00
    -10.186  0.0000E+00  0.1200E+00
    -10.088  0.3241E+00  0.1461E+00
     -9.990  0.2571E+00  0.1651E+00
     -9.892  0.2007E+00  0.1918E+00
     -9.794  0.1963E-01  0.1996E+00
     -9.697  0.0000E+00  0.2000E+00
     -9.599  0.0000E+00  0.2000E+00
     -9.501  0.0000E+00  0.2000E+00
     -9.403  0.0000E+00  0.2000E+00
     -9.305  0.0000E+00  0.2000E+00
     -9.208  0.0000E+00  0.2000E+00
     -9.110  0.0000E+00  0.2000E+00
     -9.012  0.0000E+00  0.2000E+00
     -8.914  0.0000E+00  0.2000E+00
     -8.816  0.0000E+00  0.2000E+00
     -8.719  0.0000E+00  0.2000E+00
     -8.621  0.0000E+00  0.2000E+00
     -8.523  0.0000E+00  0.2000E+00
     -8.425  0.2002E-01  0.2008E+00
     -8.327  0.3205E-01  0.2034E+00
     -8.230  0.5118E-01  0.2073E+00
     -8.132  0.1137E+00  0.2141E+00
     -8.034  0.1385E+00  0.2245E+00
     -7.936  0.5881E-01  0.2340E+00
     -7.838  0.2656E-01  0.2380E+00
     -7.741  0.9190E-02  0.2397E+00
     -7.643  0.1155E-06  0.2400E+00
     -7.545  0.0000E+00  0.2400E+00
     -7.447  0.0000E+00  0.2400E+00
     -7.349  0.0000E+00  0.2400E+00
     -7.251  0.0000E+00  0.2400E+00
     -7.154  0.0000E+00  0.2400E+00
     -7.056  0.0000E+00  0.2400E+00
     -6.958  0.0000E+00  0.2400E+00
     -6.860  0.0000E+00  0.2400E+00
     -6.762  0.3738E-05  0.2400E+00
     -6.665  0.1799E-01  0.2406E+00
     -6.567  0.4861E-01  0.2438E+00
     -6.469  0.1502E+00  0.2525E+00
     -6.371  0.1044E+00  0.2630E+00
     -6.273  0.7716E-01  0.2731E+00
     -6.176  0.5409E-01  0.2791E+00
     -6.078  0.7170E+00  0.3009E+00
     -5.980  0.0000E+00  0.3200E+00
     -5.882  0.0000E+00  0.3200E+00
     -5.784  0.1214E-01  0.3202E+00
     -5.687  0.2305E+00  0.3338E+00
     -5.589  0.1054E+00  0.3491E+00
     -5.491  0.4816E-01  0.3566E+00
     -5.393  0.2609E-01  0.3600E+00
     -5.295  0.1584E+00  0.3697E+00
     -5.198  0.1683E+00  0.3850E+00
     -5.100  0.3488E-01  0.3990E+00
     -5.002  0.0000E+00  0.4000E+00
     -4.904  0.0000E+00  0.4000E+00
     -4.806  0.0000E+00  0.4000E+00
     -4.709  0.0000E+00  0.4000E+00
     -4.611  0.0000E+00  0.4000E+00
     -4.513  0.2722E-02  0.4000E+00
     -4.415  0.6664E-01  0.4032E+00
     -4.317  0.1549E+00  0.4129E+00
     -4.219  0.1558E+00  0.4248E+00
     -4.122  0.5813E-01  0.4383E+00
     -4.024  0.1331E-02  0.4400E+00
     -3.926  0.0000E+00  0.4400E+00
     -3.828  0.0000E+00  0.4400E+00
     -3.730  0.4571E-03  0.4400E+00
     -3.633  0.8863E-02  0.4403E+00
     -3.535  0.1515E+00  0.4458E+00
     -3.437  0.2248E+00  0.4714E+00
     -3.339  0.1280E+00  0.4813E+00
     -3.241  0.3100E+00  0.5049E+00
     -3.144  0.3642E-01  0.5191E+00
     -3.046  0.0000E+00  0.5200E+00
     -2.948  0.0000E+00  0.5200E+00
     -2.850  0.0000E+00  0.5200E+00
     -2.752  0.0000E+00  0.5200E+00
     -2.655  0.0000E+00  0.5200E+00
     -2.557  0.0000E+00  0.5200E+00
     -2.459  0.0000E+00  0.5200E+00
     -2.361  0.0000E+00  0.5200E+00
     -2.263  0.0000E+00  0.5200E+00
     -2.166  0.0000E+00  0.5200E+00
     -2.068  0.0000E+00  0.5200E+00
     -1.970  0.2943E-02  0.5200E+00
     -1.872  0.6599E-01  0.5231E+00
     -1.774  0.1179E+00  0.5312E+00
     -1.677  0.2745E+00  0.5475E+00
     -1.579  0.7380E-01  0.5610E+00
     -1.481  0.2317E+00  0.5802E+00
     -1.383  0.8870E-01  0.5943E+00
     -1.285  0.1780E-01  0.5997E+00
     -1.188  0.0000E+00  0.6000E+00
     -1.090  0.0000E+00  0.6000E+00
     -0.992  0.0000E+00  0.6000E+00
     -0.894  0.0000E+00  0.6000E+00
     -0.796  0.0000E+00  0.6000E+00
     -0.698  0.0000E+00  0.6000E+00
     -0.601  0.0000E+00  0.6000E+00
     -0.503  0.0000E+00  0.6000E+00
     -0.405  0.0000E+00  0.6000E+00
     -0.307  0.0000E+00  0.6000E+00
     -0.209  0.0000E+00  0.6000E+00
     -0.112  0.0000E+00  0.6000E+00
     -0.014  0.0000E+00  0.6000E+00
      0.084  0.0000E+00  0.6000E+00
      0.182  0.0000E+00  0.6000E+00
      0.280  0.0000E+00  0.6000E+00
      0.377  0.0000E+00  0.6000E+00
      0.475  0.0000E+00  0.6000E+00
      0.573  0.0000E+00  0.6000E+00
      0.671  0.0000E+00  0.6000E+00
      0.769  0.0000E+00  0.6000E+00
      0.866  0.0000E+00  0.6000E+00
      0.964  0.0000E+00  0.6000E+00
      1.062  0.0000E+00  0.6000E+00
      1.160  0.0000E+00  0.6000E+00
      1.258  0.0000E+00  0.6000E+00
      1.355  0.0000E+00  0.6000E+00
      1.453  0.0000E+00  0.6000E+00
      1.551  0.0000E+00  0.6000E+00
      1.649  0.0000E+00  0.6000E+00
      1.747  0.0000E+00  0.6000E+00
      1.844  0.0000E+00  0.6000E+00
      1.942  0.0000E+00  0.6000E+00
      2.040  0.0000E+00  0.6000E+00
      2.138  0.0000E+00  0.6000E+00
      2.236  0.0000E+00  0.6000E+00
      2.333  0.0000E+00  0.6000E+00
      2.431  0.0000E+00  0.6000E+00
      2.529  0.0000E+00  0.6000E+00
      2.627  0.0000E+00  0.6000E+00
      2.725  0.0000E+00  0.6000E+00
      2.823  0.0000E+00  0.6000E+00
      2.920  0.0000E+00  0.6000E+00
      3.018  0.0000E+00  0.6000E+00
      3.116  0.4717E-02  0.6000E+00
      3.214  0.2281E+00  0.6105E+00
      3.312  0.9422E-01  0.6253E+00
      3.409  0.7470E-01  0.6360E+00
      3.507  0.1103E+00  0.6409E+00
      3.605  0.1168E+00  0.6539E+00
      3.703  0.1493E+00  0.6658E+00
      3.801  0.5846E-01  0.6773E+00
      3.898  0.5543E-02  0.6799E+00
      3.996  0.0000E+00  0.6800E+00
      4.094  0.0000E+00  0.6800E+00
      4.192  0.0000E+00  0.6800E+00
      4.290  0.0000E+00  0.6800E+00
      4.387  0.0000E+00  0.6800E+00
      4.485  0.0000E+00  0.6800E+00
      4.583  0.0000E+00  0.6800E+00
      4.681  0.3745E-03  0.6800E+00
      4.779  0.1907E-02  0.6801E+00
      4.876  0.4334E-02  0.6804E+00
      4.974  0.6695E-02  0.6810E+00
      5.072  0.7426E-02  0.6817E+00
      5.170  0.8561E-02  0.6824E+00
      5.268  0.1059E-01  0.6834E+00
      5.365  0.1289E-01  0.6845E+00
      5.463  0.1566E-01  0.6859E+00
      5.561  0.2340E-01  0.6877E+00
      5.659  0.3727E-01  0.6908E+00
      5.757  0.4348E-01  0.6947E+00
      5.855  0.4386E-01  0.6991E+00
      5.952  0.3029E-01  0.7023E+00
      6.050  0.6192E-01  0.7076E+00
      6.148  0.4548E-01  0.7126E+00
      6.246  0.3055E-01  0.7162E+00
      6.344  0.1668E-01  0.7185E+00
      6.441  0.4884E-01  0.7203E+00
      6.539  0.1215E+00  0.7308E+00
      6.637  0.6069E-01  0.7395E+00
      6.735  0.5862E-01  0.7446E+00
      6.833  0.6022E-01  0.7514E+00
      6.930  0.4635E-01  0.7562E+00
      7.028  0.7521E-01  0.7616E+00
      7.126  0.1426E+00  0.7756E+00
      7.224  0.9269E-01  0.7871E+00
      7.322  0.9137E-01  0.7951E+00
      7.419  0.4357E-01  0.8019E+00
      7.517  0.4999E-01  0.8060E+00
      7.615  0.6216E-01  0.8119E+00
      7.713  0.5781E-01  0.8178E+00
      7.811  0.6023E-01  0.8237E+00
      7.908  0.9361E-01  0.8307E+00
      8.006  0.3544E-01  0.8367E+00
      8.104  0.1422E-01  0.8395E+00
      8.202  0.4187E-01  0.8420E+00
      8.300  0.7174E-01  0.8474E+00
      8.397  0.6388E-01  0.8559E+00
      8.495  0.1451E-01  0.8591E+00
      8.593  0.3415E-02  0.8598E+00
      8.691  0.3487E-03  0.8600E+00
      8.789  0.0000E+00  0.8600E+00
      8.886  0.0000E+00  0.8600E+00
      8.984  0.0000E+00  0.8600E+00
      9.082  0.0000E+00  0.8600E+00
      9.180  0.0000E+00  0.8600E+00
      9.278  0.0000E+00  0.8600E+00
      9.376  0.0000E+00  0.8600E+00
      9.473  0.0000E+00  0.8600E+00
      9.571  0.0000E+00  0.8600E+00
      9.669  0.0000E+00  0.8600E+00
      9.767  0.0000E+00  0.8600E+00
      9.865  0.0000E+00  0.8600E+00
      9.962  0.0000E+00  0.8600E+00
     10.060  0.0000E+00  0.8600E+00
     10.158  0.0000E+00  0.8600E+00
     10.256  0.0000E+00  0.8600E+00
     10.354  0.0000E+00  0.8600E+00
     10.451  0.0000E+00  0.8600E+00
     10.549  0.0000E+00  0.8600E+00
     10.647  0.0000E+00  0.8600E+00
     10.745  0.0000E+00  0.8600E+00
