  48  48   0   0
  0.9235776E+01  0.7255596E-09  0.9244349E-09  0.6609448E-09  0.5000000E-15
  1.000000000000000E-004
  CAR 
 benzene                                 
     10.09363930    -17.88454106  301     -1.16166240      1.00000000
    -17.885  0.0000E+00  0.0000E+00
    -17.791  0.0000E+00  0.0000E+00
    -17.698  0.0000E+00  0.0000E+00
    -17.605  0.0000E+00  0.0000E+00
    -17.511  0.0000E+00  0.0000E+00
    -17.418 -0.5940E-28 -0.5540E-29
    -17.325 -0.7362E-22 -0.6866E-23
    -17.232 -0.1575E-16 -0.1469E-17
    -17.138 -0.5577E-12 -0.5201E-13
    -17.045 -0.3422E-08 -0.3192E-09
    -16.952 -0.3457E-05 -0.3227E-06
    -16.859 -0.5387E-03 -0.5056E-04
    -16.765 -0.9856E-02 -0.9698E-03
    -16.672  0.3872E-01  0.2641E-02
    -16.579  0.2534E+00  0.2628E-01
    -16.486  0.2788E+00  0.5228E-01
    -16.392  0.5792E+00  0.1063E+00
    -16.299  0.4278E+00  0.1462E+00
    -16.206  0.3307E-02  0.1465E+00
    -16.113 -0.1097E-01  0.1455E+00
    -16.019 -0.3217E-03  0.1455E+00
    -15.926 -0.1313E-05  0.1455E+00
    -15.833 -0.8700E-09  0.1455E+00
    -15.740 -0.9749E-13  0.1455E+00
    -15.646  0.0000E+00  0.1455E+00
    -15.553  0.0000E+00  0.1455E+00
    -15.460  0.0000E+00  0.1455E+00
    -15.367  0.0000E+00  0.1455E+00
    -15.273  0.0000E+00  0.1455E+00
    -15.180  0.0000E+00  0.1455E+00
    -15.087  0.0000E+00  0.1455E+00
    -14.993  0.0000E+00  0.1455E+00
    -14.900  0.0000E+00  0.1455E+00
    -14.807  0.0000E+00  0.1455E+00
    -14.714 -0.1133E-27  0.1455E+00
    -14.620 -0.1301E-21  0.1455E+00
    -14.527 -0.2579E-16  0.1455E+00
    -14.434 -0.8452E-12  0.1455E+00
    -14.341 -0.4799E-08  0.1455E+00
    -14.247 -0.4477E-05  0.1455E+00
    -14.154 -0.6412E-03  0.1454E+00
    -14.061 -0.1039E-01  0.1444E+00
    -13.968  0.5022E-01  0.1491E+00
    -13.874  0.2555E+00  0.1729E+00
    -13.781  0.1100E+00  0.1832E+00
    -13.688  0.5097E+00  0.2307E+00
    -13.595  0.1106E+01  0.3339E+00
    -13.501  0.9753E+00  0.4249E+00
    -13.408  0.1595E+00  0.4397E+00
    -13.315 -0.3333E-01  0.4366E+00
    -13.222 -0.2789E-02  0.4364E+00
    -13.128 -0.2794E-04  0.4364E+00
    -13.035 -0.4492E-07  0.4364E+00
    -12.942 -0.1223E-10  0.4364E+00
    -12.848 -0.5195E-15  0.4364E+00
    -12.755  0.0000E+00  0.4364E+00
    -12.662  0.0000E+00  0.4364E+00
    -12.569  0.0000E+00  0.4364E+00
    -12.475  0.0000E+00  0.4364E+00
    -12.382  0.0000E+00  0.4364E+00
    -12.289  0.0000E+00  0.4364E+00
    -12.196  0.0000E+00  0.4364E+00
    -12.102  0.0000E+00  0.4364E+00
    -12.009  0.0000E+00  0.4364E+00
    -11.916  0.0000E+00  0.4364E+00
    -11.823  0.0000E+00  0.4364E+00
    -11.729  0.0000E+00  0.4364E+00
    -11.636  0.0000E+00  0.4364E+00
    -11.543  0.0000E+00  0.4364E+00
    -11.450  0.0000E+00  0.4364E+00
    -11.356  0.0000E+00  0.4364E+00
    -11.263  0.0000E+00  0.4364E+00
    -11.170  0.0000E+00  0.4364E+00
    -11.077 -0.1100E-33  0.4364E+00
    -10.983 -0.6039E-27  0.4364E+00
    -10.890 -0.5727E-21  0.4364E+00
    -10.797 -0.9413E-16  0.4364E+00
    -10.703 -0.2574E-11  0.4364E+00
    -10.610 -0.1236E-07  0.4364E+00
    -10.517 -0.9970E-05  0.4364E+00
    -10.424 -0.1283E-02  0.4362E+00
    -10.330 -0.2060E-01  0.4343E+00
    -10.237  0.7653E-01  0.4415E+00
    -10.144  0.5939E+00  0.4969E+00
    -10.051  0.7131E+00  0.5634E+00
     -9.957  0.8931E+00  0.6466E+00
     -9.864  0.4785E+00  0.6913E+00
     -9.771  0.9214E-01  0.6999E+00
     -9.678  0.2575E+00  0.7239E+00
     -9.584  0.4712E-01  0.7283E+00
     -9.491 -0.1015E-01  0.7273E+00
     -9.398 -0.5980E-03  0.7273E+00
     -9.305 -0.4037E-05  0.7273E+00
     -9.211 -0.4191E-08  0.7273E+00
     -9.118 -0.7155E-12  0.7273E+00
     -9.025 -0.1307E-11  0.7273E+00
     -8.932 -0.6835E-08  0.7273E+00
     -8.838 -0.5863E-05  0.7273E+00
     -8.745 -0.7678E-03  0.7272E+00
     -8.652 -0.1097E-01  0.7262E+00
     -8.558  0.6023E-01  0.7318E+00
     -8.465  0.2730E+00  0.7573E+00
     -8.372  0.8137E-01  0.7648E+00
     -8.279 -0.1300E-01  0.7636E+00
     -8.185 -0.1744E-01  0.7620E+00
     -8.092  0.7526E-01  0.7690E+00
     -7.999  0.4753E+00  0.8134E+00
     -7.906  0.2645E+00  0.8380E+00
     -7.812 -0.2429E-01  0.8358E+00
     -7.719  0.5932E-01  0.8413E+00
     -7.626  0.2734E+00  0.8668E+00
     -7.533  0.7645E-01  0.8739E+00
     -7.439 -0.1171E-01  0.8728E+00
     -7.346 -0.1014E-02  0.8727E+00
     -7.253 -0.8939E-05  0.8727E+00
     -7.160 -0.3452E-07  0.8727E+00
     -7.066 -0.1448E-04  0.8727E+00
     -6.973 -0.1385E-02  0.8726E+00
     -6.880 -0.1216E-01  0.8715E+00
     -6.787  0.9710E-01  0.8805E+00
     -6.693  0.2627E+00  0.9050E+00
     -6.600  0.6162E-01  0.9108E+00
     -6.507  0.2294E+00  0.9322E+00
     -6.413  0.1398E+00  0.9452E+00
     -6.320  0.6946E-01  0.9517E+00
     -6.227  0.3821E+00  0.9873E+00
     -6.134  0.8487E+00  0.1066E+01
     -6.040  0.7554E+00  0.1137E+01
     -5.947  0.2842E+00  0.1163E+01
     -5.854  0.1686E+00  0.1179E+01
     -5.761  0.6801E+00  0.1243E+01
     -5.667  0.3376E+00  0.1274E+01
     -5.574 -0.6325E-02  0.1273E+01
     -5.481 -0.2433E-01  0.1271E+01
     -5.388  0.2354E-01  0.1273E+01
     -5.294  0.5929E+00  0.1329E+01
     -5.201  0.8406E+00  0.1407E+01
     -5.108  0.1565E+00  0.1422E+01
     -5.015  0.2099E+00  0.1441E+01
     -4.921  0.1551E+00  0.1456E+01
     -4.828 -0.9527E-02  0.1455E+01
     -4.735 -0.2887E-02  0.1455E+01
     -4.642 -0.4792E-04  0.1455E+01
     -4.548 -0.9866E-04  0.1455E+01
     -4.455 -0.4390E-02  0.1454E+01
     -4.362 -0.4218E-02  0.1454E+01
     -4.268  0.1829E+00  0.1471E+01
     -4.175  0.2771E+00  0.1497E+01
     -4.082  0.3933E+00  0.1533E+01
     -3.989  0.5492E+00  0.1585E+01
     -3.895  0.1745E+00  0.1601E+01
     -3.802  0.3642E-01  0.1604E+01
     -3.709  0.3785E+00  0.1639E+01
     -3.616  0.5961E+00  0.1695E+01
     -3.522  0.3205E+00  0.1725E+01
     -3.429  0.1820E+00  0.1742E+01
     -3.336  0.1866E+00  0.1759E+01
     -3.243  0.7972E+00  0.1834E+01
     -3.149  0.2594E+00  0.1858E+01
     -3.056  0.1812E+00  0.1875E+01
     -2.963  0.1822E+00  0.1892E+01
     -2.870 -0.5365E-02  0.1891E+01
     -2.776 -0.3908E-02  0.1891E+01
     -2.683 -0.8036E-04  0.1891E+01
     -2.590 -0.2306E-06  0.1891E+01
     -2.497 -0.1068E-09  0.1891E+01
     -2.403 -0.5778E-08  0.1891E+01
     -2.310 -0.5616E-05  0.1891E+01
     -2.217 -0.8711E-03  0.1891E+01
     -2.123 -0.1690E-01  0.1889E+01
     -2.030  0.6184E-01  0.1895E+01
     -1.937  0.4909E+00  0.1941E+01
     -1.844  0.3147E+00  0.1970E+01
     -1.750  0.3723E+00  0.2005E+01
     -1.657  0.3212E+00  0.2035E+01
     -1.564  0.1848E-01  0.2037E+01
     -1.471  0.2148E+00  0.2057E+01
     -1.377  0.4006E+00  0.2094E+01
     -1.284  0.4154E+00  0.2133E+01
     -1.191  0.4651E+00  0.2176E+01
     -1.098  0.7974E-01  0.2183E+01
     -1.004 -0.1675E-01  0.2182E+01
     -0.911 -0.1252E-02  0.2182E+01
     -0.818 -0.1105E-04  0.2182E+01
     -0.725 -0.1526E-07  0.2182E+01
     -0.631 -0.3490E-11  0.2182E+01
     -0.538 -0.1732E-15  0.2182E+01
     -0.445  0.0000E+00  0.2182E+01
     -0.352  0.0000E+00  0.2182E+01
     -0.258  0.0000E+00  0.2182E+01
     -0.165  0.0000E+00  0.2182E+01
     -0.072  0.0000E+00  0.2182E+01
      0.021  0.0000E+00  0.2182E+01
      0.115  0.0000E+00  0.2182E+01
      0.208  0.0000E+00  0.2182E+01
      0.301  0.0000E+00  0.2182E+01
      0.395  0.0000E+00  0.2182E+01
      0.488  0.0000E+00  0.2182E+01
      0.581  0.0000E+00  0.2182E+01
      0.674  0.0000E+00  0.2182E+01
      0.768  0.0000E+00  0.2182E+01
      0.861  0.0000E+00  0.2182E+01
      0.954  0.0000E+00  0.2182E+01
      1.047  0.0000E+00  0.2182E+01
      1.141  0.0000E+00  0.2182E+01
      1.234  0.0000E+00  0.2182E+01
      1.327  0.0000E+00  0.2182E+01
      1.420  0.0000E+00  0.2182E+01
      1.514  0.0000E+00  0.2182E+01
      1.607  0.0000E+00  0.2182E+01
      1.700  0.0000E+00  0.2182E+01
      1.793  0.0000E+00  0.2182E+01
      1.887  0.0000E+00  0.2182E+01
      1.980  0.0000E+00  0.2182E+01
      2.073  0.0000E+00  0.2182E+01
      2.166  0.0000E+00  0.2182E+01
      2.260  0.0000E+00  0.2182E+01
      2.353 -0.3207E-30  0.2182E+01
      2.446 -0.7275E-24  0.2182E+01
      2.540 -0.2858E-18  0.2182E+01
      2.633 -0.1878E-13  0.2182E+01
      2.726 -0.2159E-09  0.2182E+01
      2.819 -0.4197E-06  0.2182E+01
      2.913 -0.1341E-03  0.2182E+01
      3.006 -0.6339E-02  0.2181E+01
      3.099 -0.1542E-01  0.2180E+01
      3.192  0.2977E+00  0.2208E+01
      3.286  0.6181E+00  0.2265E+01
      3.379  0.2618E+00  0.2290E+01
      3.472  0.1705E+00  0.2305E+01
      3.565  0.5835E+00  0.2360E+01
      3.659  0.4012E+00  0.2397E+01
      3.752  0.8529E-01  0.2405E+01
      3.845  0.2538E+00  0.2429E+01
      3.938  0.2622E+00  0.2453E+01
      4.032  0.2094E+00  0.2473E+01
      4.125  0.3511E-02  0.2473E+01
      4.218 -0.5654E-02  0.2473E+01
      4.311 -0.3888E-03  0.2473E+01
      4.405 -0.6805E-02  0.2472E+01
      4.498  0.1309E-01  0.2473E+01
      4.591  0.2389E+00  0.2496E+01
      4.685  0.1574E+00  0.2510E+01
      4.778 -0.9513E-02  0.2509E+01
      4.871 -0.2884E-02  0.2509E+01
      4.964 -0.4754E-04  0.2509E+01
      5.058 -0.1122E-06  0.2509E+01
      5.151 -0.4263E-10  0.2509E+01
      5.244 -0.2918E-10  0.2509E+01
      5.337 -0.8298E-07  0.2509E+01
      5.431 -0.3809E-04  0.2509E+01
      5.524 -0.2527E-02  0.2509E+01
      5.617 -0.1071E-01  0.2508E+01
      5.710  0.1409E+00  0.2521E+01
      5.804  0.2452E+00  0.2544E+01
      5.897  0.2199E+00  0.2564E+01
      5.990  0.1939E+00  0.2582E+01
      6.083 -0.2096E-02  0.2582E+01
      6.177 -0.4589E-02  0.2582E+01
      6.270 -0.1073E-03  0.2582E+01
      6.363 -0.1486E-04  0.2582E+01
      6.456 -0.1777E-02  0.2582E+01
      6.550 -0.2423E-01  0.2579E+01
      6.643  0.1190E+00  0.2590E+01
      6.736  0.6455E+00  0.2651E+01
      6.830  0.6104E+00  0.2708E+01
      6.923  0.2148E+00  0.2728E+01
      7.016  0.1029E+00  0.2737E+01
      7.109  0.2239E+00  0.2758E+01
      7.203  0.2858E+00  0.2785E+01
      7.296  0.9506E+00  0.2873E+01
      7.389  0.4921E+00  0.2919E+01
      7.482  0.2381E+00  0.2942E+01
      7.576  0.5227E-01  0.2946E+01
      7.669 -0.2327E-01  0.2944E+01
      7.762  0.1096E+00  0.2954E+01
      7.855  0.2590E+00  0.2979E+01
      7.949  0.1421E-01  0.2980E+01
      8.042  0.3149E+00  0.3009E+01
      8.135  0.6984E+00  0.3074E+01
      8.228  0.2012E+00  0.3093E+01
      8.322 -0.2142E-01  0.3091E+01
      8.415 -0.1526E-01  0.3090E+01
      8.508  0.4859E-01  0.3094E+01
      8.601  0.3078E+00  0.3123E+01
      8.695  0.3362E+00  0.3154E+01
      8.788  0.2041E+00  0.3173E+01
      8.881  0.2545E+00  0.3197E+01
      8.975  0.4095E-01  0.3201E+01
      9.068 -0.9801E-02  0.3200E+01
      9.161 -0.5385E-03  0.3200E+01
      9.254 -0.3456E-05  0.3200E+01
      9.348 -0.3422E-08  0.3200E+01
      9.441 -0.5577E-12  0.3200E+01
      9.534  0.0000E+00  0.3200E+01
      9.627  0.0000E+00  0.3200E+01
      9.721  0.0000E+00  0.3200E+01
      9.814  0.0000E+00  0.3200E+01
      9.907  0.0000E+00  0.3200E+01
     10.000  0.0000E+00  0.3200E+01
     10.094  0.0000E+00  0.3200E+01
