   48   48  200    1
  0.9428188E+01  0.7305636E-09  0.9308105E-09  0.6655032E-09  0.5000000E-15
  1.000000000000000E-004
  CAR 
 benzene                                 
    120    125     86
