   48   48   55    1
  0.9235776E+01  0.7255596E-09  0.9244349E-09  0.6609448E-09  0.5000000E-15
  1.000000000000000E-004
  CAR 
 benzene                                 
    120      1     88
 
  0.0000000E+00  0.0000000E+00  0.0000000E+00  0.1000000E+01
    1      -16.612806
    2      -16.478643
    3      -16.398597
    4      -16.375858
    5      -13.912297
    6      -13.722332
    7      -13.686573
    8      -13.633404
    9      -13.624100
   10      -13.574931
   11      -13.554606
   12      -13.530774
   13      -10.192409
   14      -10.163101
   15      -10.108960
   16      -10.041242
   17       -9.997924
   18       -9.972134
   19       -9.934814
   20       -9.734533
   21       -8.507463
   22       -8.048181
   23       -7.999069
   24       -7.670072
   25       -6.750346
   26       -6.523185
   27       -6.288176
   28       -6.175057
   29       -6.171360
   30       -6.155994
   31       -6.051911
   32       -6.049024
   33       -5.827305
   34       -5.808668
   35       -5.744283
   36       -5.332897
   37       -5.286407
   38       -5.260139
   39       -5.233652
   40       -5.029913
   41       -4.266807
   42       -4.136245
   43       -4.050524
   44       -4.003072
   45       -3.758172
   46       -3.661698
   47       -3.649434
   48       -3.507271
   49       -3.295465
   50       -3.280548
   51       -3.274926
   52       -3.061697
   53       -1.975997
   54       -1.949448
   55       -1.797288
   56       -1.722102
   57       -1.477772
   58       -1.390045
   59       -1.282920
   60       -1.232175
   61        3.190473
   62        3.227254
   63        3.301288
   64        3.487790
   65        3.540318
   66        3.602276
   67        3.803570
   68        3.946113
   69        4.575902
   70        5.729765
   71        5.896875
   72        6.688277
   73        6.693314
   74        6.770925
   75        6.831141
   76        7.044156
   77        7.212776
   78        7.256170
   79        7.271926
   80        7.289892
   81        7.431818
   82        7.793556
   83        8.050602
   84        8.062782
   85        8.125847
   86        8.560239
   87        8.663990
   88        8.821904
