<?xml version="1.0" encoding="ISO-8859-1"?>
<modeling>
 <generator>
  <i name="program" type="string">vasp </i>
  <i name="version" type="string">5.3.5  </i>
  <i name="subversion" type="string">31Mar14 (build Nov 02 2014 15:17:37) complex                          parallel </i>
  <i name="platform" type="string">ion-Intel-MKL </i>
  <i name="date" type="string">2017 03 20 </i>
  <i name="time" type="string">00:02:51 </i>
 </generator>
 <incar>
  <i type="string" name="SYSTEM"> benzene</i>
  <i type="int" name="ISTART">     0</i>
  <i type="string" name="PREC">normal</i>
  <i type="int" name="IALGO">    48</i>
  <i type="int" name="NSIM">     4</i>
  <i type="logical" name="ADDGRID"> T  </i>
  <i type="int" name="ISPIN">     1</i>
  <i type="int" name="ICHARG">     2</i>
  <i type="int" name="NELM">    60</i>
  <i type="int" name="NELMDL">    10</i>
  <i type="int" name="NELMIN">     2</i>
  <i type="int" name="IBRION">     2</i>
  <i name="EDIFF">      0.00010000</i>
  <i name="EDIFFG">     -0.00010000</i>
  <i type="int" name="NSW">    55</i>
  <i type="int" name="ISIF">     2</i>
  <i name="ENCUT">    400.00000000</i>
  <i type="logical" name="LREAL"> T  </i>
  <i type="int" name="ISMEAR">     1</i>
  <i name="SIGMA">      0.10000000</i>
  <i type="int" name="NELM">    60</i>
  <i type="int" name="VOSKOWN">     1</i>
 </incar>
 <kpoints>
  <varray name="kpointlist" >
   <v>       0.00000000       0.00000000       0.00000000 </v>
  </varray>
  <varray name="weights" >
   <v>       1.00000000 </v>
  </varray>
 </kpoints>
 <parameters>
  <separator name="general" >
   <i type="string" name="SYSTEM">benzene</i>
   <i type="logical" name="LCOMPAT"> F  </i>
  </separator>
  <separator name="electronic" >
   <i type="string" name="PREC">normal</i>
   <i name="ENMAX">    400.00000000</i>
   <i name="ENAUG">    644.87300000</i>
   <i name="EDIFF">      0.00010000</i>
   <i type="int" name="IALGO">    48</i>
   <i type="int" name="IWAVPR">    11</i>
   <i type="int" name="NBANDS">    88</i>
   <i name="NELECT">    120.00000000</i>
   <i type="int" name="TURBO">     0</i>
   <i type="int" name="IRESTART">     0</i>
   <i type="int" name="NREBOOT">     0</i>
   <i type="int" name="NMIN">     0</i>
   <i name="EREF">      0.00000000</i>
   <separator name="electronic smearing" >
    <i type="int" name="ISMEAR">     1</i>
    <i name="SIGMA">      0.10000000</i>
    <i name="KSPACING">      0.50000000</i>
    <i type="logical" name="KGAMMA"> T  </i>
   </separator>
   <separator name="electronic projectors" >
    <i type="logical" name="LREAL"> T  </i>
    <v name="ROPT">      0.00000000      0.00000000</v>
    <i type="int" name="LMAXPAW">  -100</i>
    <i type="int" name="LMAXMIX">     2</i>
    <i type="logical" name="NLSPLINE"> F  </i>
   </separator>
   <separator name="electronic startup" >
    <i type="int" name="ISTART">     0</i>
    <i type="int" name="ICHARG">     2</i>
    <i type="int" name="INIWAV">     1</i>
   </separator>
   <separator name="electronic spin" >
    <i type="int" name="ISPIN">     1</i>
    <i type="logical" name="LNONCOLLINEAR"> F  </i>
    <v name="MAGMOM">      1.00000000      1.00000000      1.00000000      1.00000000      1.00000000      1.00000000      1.00000000      1.00000000      1.00000000      1.00000000      1.00000000      1.00000000      1.00000000      1.00000000      1.00000000      1.00000000      1.00000000      1.00000000      1.00000000      1.00000000
      1.00000000      1.00000000      1.00000000      1.00000000      1.00000000      1.00000000      1.00000000      1.00000000      1.00000000      1.00000000      1.00000000      1.00000000      1.00000000      1.00000000      1.00000000      1.00000000      1.00000000      1.00000000      1.00000000      1.00000000
      1.00000000      1.00000000      1.00000000      1.00000000      1.00000000      1.00000000      1.00000000      1.00000000</v>
    <i name="NUPDOWN">     -1.00000000</i>
    <i type="logical" name="LSORBIT"> F  </i>
    <v name="SAXIS">      0.00000000      0.00000000      1.00000000</v>
    <i type="logical" name="LSPIRAL"> F  </i>
    <v name="QSPIRAL">      0.00000000      0.00000000      0.00000000</v>
    <i type="logical" name="LZEROZ"> F  </i>
   </separator>
   <separator name="electronic exchange-correlation" >
    <i type="logical" name="LASPH"> F  </i>
    <i type="logical" name="LMETAGGA"> F  </i>
   </separator>
   <separator name="electronic convergence" >
    <i type="int" name="NELM">    60</i>
    <i type="int" name="NELMDL">    10</i>
    <i type="int" name="NELMIN">     2</i>
    <i name="ENINI">    400.00000000</i>
    <separator name="electronic convergence detail" >
     <i type="logical" name="LDIAG"> T  </i>
     <i type="logical" name="LSUBROT"> F  </i>
     <i name="WEIMIN">      0.00100000</i>
     <i name="EBREAK">      0.00000003</i>
     <i name="DEPER">      0.30000000</i>
     <i type="int" name="NRMM">     4</i>
     <i name="TIME">      0.40000000</i>
    </separator>
   </separator>
   <separator name="electronic mixer" >
    <i name="AMIX">      0.40000000</i>
    <i name="BMIX">      1.00000000</i>
    <i name="AMIN">      0.10000000</i>
    <i name="AMIX_MAG">      1.60000000</i>
    <i name="BMIX_MAG">      1.00000000</i>
    <separator name="electronic mixer details" >
     <i type="int" name="IMIX">     4</i>
     <i type="int" name="MAXMIX">   -45</i>
     <i name="WC">    100.00000000</i>
     <i type="int" name="INIMIX">     1</i>
     <i type="int" name="MIXPRE">     1</i>
     <i type="int" name="MREMOVE">     5</i>
    </separator>
   </separator>
   <separator name="electronic dipolcorrection" >
    <i type="logical" name="LDIPOL"> F  </i>
    <i type="logical" name="LMONO"> F  </i>
    <i type="int" name="IDIPOL">     0</i>
    <i name="EPSILON">      1.00000000</i>
    <v name="DIPOL">   -100.00000000   -100.00000000   -100.00000000</v>
    <i name="EFIELD">      0.00000000</i>
   </separator>
  </separator>
  <separator name="grids" >
   <i type="int" name="NGX">    36</i>
   <i type="int" name="NGY">    48</i>
   <i type="int" name="NGZ">    32</i>
   <i type="int" name="NGXF">    72</i>
   <i type="int" name="NGYF">    96</i>
   <i type="int" name="NGZF">    64</i>
   <i type="logical" name="ADDGRID"> T  </i>
  </separator>
  <separator name="ionic" >
   <i type="int" name="NSW">    55</i>
   <i type="int" name="IBRION">     2</i>
   <i type="int" name="ISIF">     2</i>
   <i name="PSTRESS">      0.00000000</i>
   <i name="EDIFFG">     -0.00010000</i>
   <i type="int" name="NFREE">     1</i>
   <i name="POTIM">      0.50000000</i>
   <i name="SMASS">     -3.00000000</i>
   <i name="SCALEE">      1.00000000</i>
  </separator>
  <separator name="ionic md" >
   <i name="TEBEG">      0.00010000</i>
   <i name="TEEND">      0.00010000</i>
   <i type="int" name="NBLOCK">     1</i>
   <i type="int" name="KBLOCK">    55</i>
   <i type="int" name="NPACO">   256</i>
   <i name="APACO">     16.00000000</i>
  </separator>
  <separator name="symmetry" >
   <i type="int" name="ISYM">     2</i>
   <i name="SYMPREC">      0.00001000</i>
  </separator>
  <separator name="dos" >
   <i type="logical" name="LORBIT"> F  </i>
   <v name="RWIGS">     -1.00000000     -1.00000000</v>
   <i type="int" name="NEDOS">   301</i>
   <i name="EMIN">     10.00000000</i>
   <i name="EMAX">    -10.00000000</i>
   <i name="EFERMI">      0.00000000</i>
  </separator>
  <separator name="writing" >
   <i type="int" name="NWRITE">     2</i>
   <i type="logical" name="LWAVE"> T  </i>
   <i type="logical" name="LCHARG"> T  </i>
   <i type="logical" name="LPARD"> F  </i>
   <i type="logical" name="LVTOT"> F  </i>
   <i type="logical" name="LVHAR"> F  </i>
   <i type="logical" name="LELF"> F  </i>
   <i type="logical" name="LOPTICS"> F  </i>
   <v name="STM">      0.00000000      0.00000000      0.00000000      0.00000000      0.00000000      0.00000000      0.00000000</v>
  </separator>
  <separator name="performance" >
   <i type="int" name="NPAR">     8</i>
   <i type="int" name="NSIM">     4</i>
   <i type="int" name="NBLK">    -1</i>
   <i type="logical" name="LPLANE"> T  </i>
   <i type="logical" name="LSCALAPACK"> T  </i>
   <i type="logical" name="LSCAAWARE"> F  </i>
   <i type="logical" name="LSCALU"> F  </i>
   <i type="logical" name="LASYNC"> F  </i>
   <i type="logical" name="LORBITALREAL"> F  </i>
  </separator>
  <separator name="miscellaneous" >
   <i type="int" name="IDIOT">     3</i>
   <i type="logical" name="LMUSIC"> F  </i>
   <v name="POMASS">     12.01100000      1.00000000</v>
   <v name="DARWINR">      0.00000000      0.00000000</v>
   <v name="DARWINV">      1.00000000      1.00000000</v>
   <i type="logical" name="LCORR"> T  </i>
  </separator>
  <i type="logical" name="GGA_COMPAT"> T  </i>
  <i type="logical" name="LBERRY"> F  </i>
  <i type="int" name="ICORELEVEL">     0</i>
  <i type="logical" name="LDAU"> F  </i>
  <i type="int" name="I_CONSTRAINED_M">     0</i>
  <separator name="electronic exchange-correlation" >
   <i type="string" name="GGA">--</i>
   <i type="int" name="VOSKOWN">     1</i>
   <i type="logical" name="LHFCALC"> F  </i>
   <i type="string" name="PRECFOCK"></i>
   <i type="logical" name="LSYMGRAD"> F  </i>
   <i type="logical" name="LHFONE"> F  </i>
   <i type="logical" name="LRHFCALC"> F  </i>
   <i type="logical" name="LTHOMAS"> F  </i>
   <i type="logical" name="LMODELHF"> F  </i>
   <i name="ENCUT4O">     -1.00000000</i>
   <i type="int" name="EXXOEP">     0</i>
   <i type="int" name="FOURORBIT">     0</i>
   <i name="AEXX">      0.00000000</i>
   <i name="HFALPHA">      0.00000000</i>
   <i name="MCALPHA">      0.00000000</i>
   <i name="ALDAX">      1.00000000</i>
   <i name="AGGAX">      1.00000000</i>
   <i name="ALDAC">      1.00000000</i>
   <i name="AGGAC">      1.00000000</i>
   <i type="int" name="NKREDX">     1</i>
   <i type="int" name="NKREDY">     1</i>
   <i type="int" name="NKREDZ">     1</i>
   <i type="logical" name="SHIFTRED"> F  </i>
   <i type="logical" name="ODDONLY"> F  </i>
   <i type="logical" name="EVENONLY"> F  </i>
   <i type="int" name="LMAXFOCK">     0</i>
   <i type="int" name="NMAXFOCKAE">     0</i>
   <i type="logical" name="LFOCKAEDFT"> F  </i>
   <i name="HFSCREEN">      0.00000000</i>
   <i name="HFSCREENC">      0.00000000</i>
   <i type="int" name="NBANDSGWLOW">     0</i>
  </separator>
  <separator name="vdW DFT" >
   <i type="logical" name="LUSE_VDW"> F  </i>
   <i name="Zab_VDW">     -0.84910000</i>
   <i name="PARAM1">      0.12340000</i>
   <i name="PARAM2">      1.00000000</i>
   <i name="PARAM3">      0.00000000</i>
  </separator>
  <separator name="model GW" >
   <i type="int" name="MODEL_GW">     0</i>
   <i name="MODEL_EPS0">      5.54146589</i>
   <i name="MODEL_ALPHA">      1.00000000</i>
  </separator>
  <separator name="linear response parameters" >
   <i type="logical" name="LEPSILON"> F  </i>
   <i type="logical" name="LRPA"> F  </i>
   <i type="logical" name="LNABLA"> F  </i>
   <i type="logical" name="LVEL"> F  </i>
   <i type="int" name="KINTER">     0</i>
   <i name="CSHIFT">      0.10000000</i>
   <i name="OMEGAMAX">     -1.00000000</i>
   <i name="DEG_THRESHOLD">      0.00200000</i>
  </separator>
  <separator name="orbital magnetization" >
   <i type="logical" name="NUCIND"> F  </i>
   <v name="MAGPOS">      0.00000000      0.00000000      0.00000000</v>
   <i type="logical" name="LNICSALL"> T  </i>
   <i type="logical" name="ORBITALMAG"> F  </i>
   <i type="logical" name="LMAGBLOCH"> F  </i>
   <i type="logical" name="LCHIMAG"> F  </i>
   <i type="logical" name="LGAUGE"> T  </i>
   <i type="int" name="MAGATOM">     0</i>
   <v name="MAGDIPOL">      0.00000000      0.00000000      0.00000000</v>
   <v name="AVECCONST">      0.00000000      0.00000000      0.00000000</v>
  </separator>
  <separator name="response functions" >
   <i type="logical" name="LADDER"> F  </i>
   <i type="logical" name="LFXC"> F  </i>
   <i type="logical" name="LHARTREE"> T  </i>
   <i type="int" name="IBSE">     0</i>
   <i type="logical" name="LTCTE"> F  </i>
   <i type="logical" name="LTETE"> F  </i>
   <i type="logical" name="LTRIPLET"> F  </i>
   <i type="logical" name="LFXCEPS"> F  </i>
   <i type="logical" name="LFXHEG"> F  </i>
   <i type="logical" name="L2ORDER"> F  </i>
   <i type="logical" name="LUSEW"> F  </i>
   <i name="ENCUTGW">     -2.00000000</i>
   <i name="ENCUTGWSOFT">     -2.00000000</i>
   <i name="ENCUTLF">     -1.00000000</i>
   <i type="int" name="LMAXMP2">    -1</i>
   <i name="SCISSOR">      0.00000000</i>
   <i type="int" name="NOMEGA">     0</i>
   <i type="int" name="NOMEGAR">     0</i>
   <i type="int" name="NBANDSGW">    -1</i>
   <i type="int" name="NBANDSO">    -1</i>
   <i type="int" name="NBANDSV">    -1</i>
   <i type="int" name="NELM">    60</i>
   <i type="int" name="DIM">     3</i>
   <i type="int" name="ANTIRES">     0</i>
   <i name="OMEGAMAX">    -30.00000000</i>
   <i name="OMEGAMIN">    -30.00000000</i>
   <i name="OMEGATL">   -200.00000000</i>
   <i type="int" name="OMEGAGRID">     0</i>
   <i name="CSHIFT">     -0.10000000</i>
   <i type="logical" name="SELFENERGY"> F  </i>
   <i type="logical" name="LSPECTRAL"> F  </i>
   <i type="logical" name="ODDONLYGW"> F  </i>
   <i type="logical" name="EVENONLYGW"> F  </i>
   <i type="int" name="NKREDLFX">     1</i>
   <i type="int" name="NKREDLFY">     1</i>
   <i type="int" name="NKREDLFZ">     1</i>
   <i type="int" name="MAXMEM">  1800</i>
   <i type="int" name="TELESCOPE">     0</i>
   <i type="int" name="TAUPAR">     1</i>
  </separator>
  <separator name="External order field" >
   <i name="OFIELD_KAPPA">      0.00000000</i>
   <v name="OFIELD_K">      0.00000000      0.00000000      0.00000000</v>
   <i name="OFIELD_Q6_NEAR">      0.00000000</i>
   <i name="OFIELD_Q6_FAR">      0.00000000</i>
   <i name="OFIELD_A">      0.00000000</i>
  </separator>
 </parameters>
 <atominfo>
  <atoms>      48 </atoms>
  <types>       2 </types>
  <array name="atoms" >
   <dimension dim="1">ion</dimension>
   <field type="string">element</field>
   <field type="int">atomtype</field>
   <set>
    <rc><c>C </c><c>   1</c></rc>
    <rc><c>C </c><c>   1</c></rc>
    <rc><c>C </c><c>   1</c></rc>
    <rc><c>C </c><c>   1</c></rc>
    <rc><c>C </c><c>   1</c></rc>
    <rc><c>C </c><c>   1</c></rc>
    <rc><c>C </c><c>   1</c></rc>
    <rc><c>C </c><c>   1</c></rc>
    <rc><c>C </c><c>   1</c></rc>
    <rc><c>C </c><c>   1</c></rc>
    <rc><c>C </c><c>   1</c></rc>
    <rc><c>C </c><c>   1</c></rc>
    <rc><c>C </c><c>   1</c></rc>
    <rc><c>C </c><c>   1</c></rc>
    <rc><c>C </c><c>   1</c></rc>
    <rc><c>C </c><c>   1</c></rc>
    <rc><c>C </c><c>   1</c></rc>
    <rc><c>C </c><c>   1</c></rc>
    <rc><c>C </c><c>   1</c></rc>
    <rc><c>C </c><c>   1</c></rc>
    <rc><c>C </c><c>   1</c></rc>
    <rc><c>C </c><c>   1</c></rc>
    <rc><c>C </c><c>   1</c></rc>
    <rc><c>C </c><c>   1</c></rc>
    <rc><c>H </c><c>   2</c></rc>
    <rc><c>H </c><c>   2</c></rc>
    <rc><c>H </c><c>   2</c></rc>
    <rc><c>H </c><c>   2</c></rc>
    <rc><c>H </c><c>   2</c></rc>
    <rc><c>H </c><c>   2</c></rc>
    <rc><c>H </c><c>   2</c></rc>
    <rc><c>H </c><c>   2</c></rc>
    <rc><c>H </c><c>   2</c></rc>
    <rc><c>H </c><c>   2</c></rc>
    <rc><c>H </c><c>   2</c></rc>
    <rc><c>H </c><c>   2</c></rc>
    <rc><c>H </c><c>   2</c></rc>
    <rc><c>H </c><c>   2</c></rc>
    <rc><c>H </c><c>   2</c></rc>
    <rc><c>H </c><c>   2</c></rc>
    <rc><c>H </c><c>   2</c></rc>
    <rc><c>H </c><c>   2</c></rc>
    <rc><c>H </c><c>   2</c></rc>
    <rc><c>H </c><c>   2</c></rc>
    <rc><c>H </c><c>   2</c></rc>
    <rc><c>H </c><c>   2</c></rc>
    <rc><c>H </c><c>   2</c></rc>
    <rc><c>H </c><c>   2</c></rc>
   </set>
  </array>
  <array name="atomtypes" >
   <dimension dim="1">type</dimension>
   <field type="int">atomspertype</field>
   <field type="string">element</field>
   <field>mass</field>
   <field>valence</field>
   <field type="string">pseudopotential</field>
   <set>
    <rc><c>  24</c><c>C </c><c>     12.01100000</c><c>      4.00000000</c><c> PAW_PBE C 08Apr2002                    </c></rc>
    <rc><c>  24</c><c>H </c><c>      1.00000000</c><c>      1.00000000</c><c> PAW_PBE H 15Jun2001                    </c></rc>
   </set>
  </array>
 </atominfo>
 <structure name="initialpos" >
  <crystal>
   <varray name="basis" >
    <v>       7.25559592       0.00000000       0.00000000 </v>
    <v>       0.00000000       9.24434934       0.00000000 </v>
    <v>       0.00000000       0.00000000       6.60944836 </v>
   </varray>
   <i name="volume">    443.31727092 </i>
   <varray name="rec_basis" >
    <v>       0.13782465       0.00000000       0.00000000 </v>
    <v>       0.00000000       0.10817419       0.00000000 </v>
    <v>       0.00000000       0.00000000       0.15129856 </v>
   </varray>
  </crystal>
  <varray name="positions" >
   <v>       0.94599998       0.13760001       0.99980003 </v>
   <v>       0.05400000       0.86239999       0.00020000 </v>
   <v>       0.55400002       0.86239999       0.49980000 </v>
   <v>       0.44600001       0.13760001       0.50019997 </v>
   <v>       0.05400000       0.63760001       0.50019997 </v>
   <v>       0.94599998       0.36239999       0.49980000 </v>
   <v>       0.44600001       0.36239999       0.00020000 </v>
   <v>       0.55400002       0.63760001       0.99980003 </v>
   <v>       0.07680000       0.09030000       0.13240001 </v>
   <v>       0.92320001       0.90969998       0.86759996 </v>
   <v>       0.42320001       0.90969998       0.63240004 </v>
   <v>       0.57679999       0.09030000       0.36759999 </v>
   <v>       0.92320001       0.59030002       0.36759999 </v>
   <v>       0.07680000       0.40970001       0.63240004 </v>
   <v>       0.57679999       0.40970001       0.86759996 </v>
   <v>       0.42320001       0.59030002       0.13240001 </v>
   <v>       0.87000001       0.04540000       0.87180000 </v>
   <v>       0.12999999       0.95459998       0.12820000 </v>
   <v>       0.62999999       0.95459998       0.37180000 </v>
   <v>       0.37000001       0.04540000       0.62820000 </v>
   <v>       0.12999999       0.54540002       0.62820000 </v>
   <v>       0.87000001       0.45460001       0.37180000 </v>
   <v>       0.37000001       0.45460001       0.12820000 </v>
   <v>       0.62999999       0.54540002       0.87180000 </v>
   <v>       0.91119999       0.23160000       0.99910003 </v>
   <v>       0.08880000       0.76840001       0.00090000 </v>
   <v>       0.58880001       0.76840001       0.49910000 </v>
   <v>       0.41119999       0.23160000       0.50089997 </v>
   <v>       0.08880000       0.73159999       0.50089997 </v>
   <v>       0.91119999       0.26840001       0.49910000 </v>
   <v>       0.41119999       0.26840001       0.00090000 </v>
   <v>       0.58880001       0.73159999       0.99910003 </v>
   <v>       0.12650000       0.15199999       0.22240000 </v>
   <v>       0.87349999       0.84799999       0.77759999 </v>
   <v>       0.37349999       0.84799999       0.72240001 </v>
   <v>       0.62650001       0.15199999       0.27759999 </v>
   <v>       0.87349999       0.65200001       0.27759999 </v>
   <v>       0.12650000       0.34799999       0.72240001 </v>
   <v>       0.62650001       0.34799999       0.77759999 </v>
   <v>       0.37349999       0.65200001       0.22240000 </v>
   <v>       0.78079999       0.07640000       0.78670001 </v>
   <v>       0.21920000       0.92360002       0.21330001 </v>
   <v>       0.71920001       0.92360002       0.28670001 </v>
   <v>       0.28079999       0.07640000       0.71329999 </v>
   <v>       0.21920000       0.57639998       0.71329999 </v>
   <v>       0.78079999       0.42360002       0.28670001 </v>
   <v>       0.28079999       0.42360002       0.21330001 </v>
   <v>       0.71920001       0.57639998       0.78670001 </v>
  </varray>
 </structure>
 <calculation>
  <scstep>
   <time name="diag">    1.84    5.52</time>
   <time name="diis">    0.15    0.46</time>
   <time name="orth">    0.45    1.34</time>
   <time name="total">    3.12   17.55</time>
   <energy>
    <i name="alphaZ">    148.16020584 </i>
    <i name="ewald">  -1302.88680835 </i>
    <i name="hartreedc">  -1866.67424648 </i>
    <i name="XCdc">    395.41605234 </i>
    <i name="pawpsdc">    926.70645134 </i>
    <i name="pawaedc">   -954.53414885 </i>
    <i name="eentropy">      0.00621004 </i>
    <i name="bandstr">    105.25861678 </i>
    <i name="atom">   3830.54055688 </i>
    <i name="e_fr_energy">   1281.99288954 </i>
    <i name="e_wo_entrp">   1281.98667949 </i>
    <i name="e_0_energy">   1281.99081952 </i>
   </energy>
  </scstep>
  <scstep>
   <time name="diag">    1.52    4.56</time>
   <time name="diis">    0.15    0.45</time>
   <time name="orth">    0.50    1.50</time>
   <time name="total">    2.41    7.25</time>
   <energy>
    <i name="e_fr_energy">    271.40632893 </i>
    <i name="e_wo_entrp">    271.39707761 </i>
    <i name="e_0_energy">    271.40324516 </i>
   </energy>
  </scstep>
  <scstep>
   <time name="diag">    2.20    6.58</time>
   <time name="diis">    0.15    0.44</time>
   <time name="orth">    0.49    1.47</time>
   <time name="total">    3.07    9.84</time>
   <energy>
    <i name="e_fr_energy">   -137.32868521 </i>
    <i name="e_wo_entrp">   -137.33448312 </i>
    <i name="e_0_energy">   -137.33061785 </i>
   </energy>
  </scstep>
  <scstep>
   <time name="diag">    2.08    6.24</time>
   <time name="diis">    0.15    0.45</time>
   <time name="orth">    0.41    1.25</time>
   <time name="total">    2.87    9.95</time>
   <energy>
    <i name="e_fr_energy">   -286.78607435 </i>
    <i name="e_wo_entrp">   -286.79187225 </i>
    <i name="e_0_energy">   -286.78800698 </i>
   </energy>
  </scstep>
  <scstep>
   <time name="diag">    1.47    4.39</time>
   <time name="diis">    0.15    0.44</time>
   <time name="orth">    0.44    1.32</time>
   <time name="total">    2.25    6.96</time>
   <energy>
    <i name="e_fr_energy">   -319.36959444 </i>
    <i name="e_wo_entrp">   -319.37557646 </i>
    <i name="e_0_energy">   -319.37158845 </i>
   </energy>
  </scstep>
  <scstep>
   <time name="diag">    1.64    4.92</time>
   <time name="diis">    0.15    0.44</time>
   <time name="orth">    0.41    1.22</time>
   <time name="total">    2.31    8.33</time>
   <energy>
    <i name="e_fr_energy">   -328.29615756 </i>
    <i name="e_wo_entrp">   -328.30229602 </i>
    <i name="e_0_energy">   -328.29820372 </i>
   </energy>
  </scstep>
  <scstep>
   <time name="diag">    1.57    4.70</time>
   <time name="diis">    0.15    0.44</time>
   <time name="orth">    0.46    1.38</time>
   <time name="total">    2.39    7.17</time>
   <energy>
    <i name="e_fr_energy">   -330.59852262 </i>
    <i name="e_wo_entrp">   -330.60462386 </i>
    <i name="e_0_energy">   -330.60055637 </i>
   </energy>
  </scstep>
  <scstep>
   <time name="diag">    2.80    8.40</time>
   <time name="diis">    0.46    1.37</time>
   <time name="orth">    0.50    1.49</time>
   <time name="total">    4.03   13.41</time>
   <energy>
    <i name="e_fr_energy">   -331.46791717 </i>
    <i name="e_wo_entrp">   -331.47400314 </i>
    <i name="e_0_energy">   -331.46994583 </i>
   </energy>
  </scstep>
  <scstep>
   <time name="diag">    2.06    6.15</time>
   <time name="diis">    0.27    0.79</time>
   <time name="orth">    0.46    1.40</time>
   <time name="total">    2.97   16.93</time>
   <energy>
    <i name="e_fr_energy">   -331.58585020 </i>
    <i name="e_wo_entrp">   -331.59192100 </i>
    <i name="e_0_energy">   -331.58787380 </i>
   </energy>
  </scstep>
  <scstep>
   <time name="diag">    1.61    4.81</time>
   <time name="diis">    0.29    0.86</time>
   <time name="orth">    0.45    1.36</time>
   <time name="total">    2.85   14.98</time>
   <energy>
    <i name="e_fr_energy">   -331.59034488 </i>
    <i name="e_wo_entrp">   -331.59641517 </i>
    <i name="e_0_energy">   -331.59236831 </i>
   </energy>
  </scstep>
  <scstep>
   <time name="diag">    2.65    7.95</time>
   <time name="diis">    0.25    0.75</time>
   <time name="orth">    0.45    1.34</time>
   <time name="total">    4.33   18.68</time>
   <energy>
    <i name="e_fr_energy">   -290.53534757 </i>
    <i name="e_wo_entrp">   -290.54126423 </i>
    <i name="e_0_energy">   -290.53731979 </i>
   </energy>
  </scstep>
  <scstep>
   <time name="diag">    1.43    4.30</time>
   <time name="diis">    0.29    0.86</time>
   <time name="orth">    0.49    1.47</time>
   <time name="total">    3.29   16.07</time>
   <energy>
    <i name="e_fr_energy">   -280.04018493 </i>
    <i name="e_wo_entrp">   -280.04629348 </i>
    <i name="e_0_energy">   -280.04222112 </i>
   </energy>
  </scstep>
  <scstep>
   <time name="diag">    2.01    6.04</time>
   <time name="diis">    0.26    0.78</time>
   <time name="orth">    0.48    1.45</time>
   <time name="total">    3.90   11.74</time>
   <energy>
    <i name="e_fr_energy">   -279.92429763 </i>
    <i name="e_wo_entrp">   -279.93018121 </i>
    <i name="e_0_energy">   -279.92625883 </i>
   </energy>
  </scstep>
  <scstep>
   <time name="diag">    2.52    7.56</time>
   <time name="diis">    0.25    0.76</time>
   <time name="orth">    0.51    1.53</time>
   <time name="total">    4.48   18.57</time>
   <energy>
    <i name="e_fr_energy">   -279.91950950 </i>
    <i name="e_wo_entrp">   -279.92542713 </i>
    <i name="e_0_energy">   -279.92148205 </i>
   </energy>
  </scstep>
  <scstep>
   <time name="diag">    1.17    3.50</time>
   <time name="diis">    0.25    0.76</time>
   <time name="orth">    0.43    1.31</time>
   <time name="total">    2.95   11.82</time>
   <energy>
    <i name="e_fr_energy">   -279.92822724 </i>
    <i name="e_wo_entrp">   -279.93418695 </i>
    <i name="e_0_energy">   -279.93021381 </i>
   </energy>
  </scstep>
  <scstep>
   <time name="diag">    2.16    6.50</time>
   <time name="diis">    0.26    0.78</time>
   <time name="orth">    0.46    1.38</time>
   <time name="total">    3.97   12.43</time>
   <energy>
    <i name="e_fr_energy">   -279.92745006 </i>
    <i name="e_wo_entrp">   -279.93337715 </i>
    <i name="e_0_energy">   -279.92942576 </i>
   </energy>
  </scstep>
  <scstep>
   <time name="diag">    1.20    3.59</time>
   <time name="diis">    0.39    0.82</time>
   <time name="orth">    0.68    1.38</time>
   <time name="total">    3.62   12.70</time>
   <energy>
    <i name="e_fr_energy">   -279.92750458 </i>
    <i name="e_wo_entrp">   -279.93342970 </i>
    <i name="e_0_energy">   -279.92947962 </i>
   </energy>
  </scstep>
  <scstep>
   <time name="diag">    2.32    6.97</time>
   <time name="diis">    0.25    0.74</time>
   <time name="orth">    0.48    1.46</time>
   <time name="total">    3.78   11.34</time>
   <energy>
    <i name="alphaZ">    148.16020584 </i>
    <i name="ewald">  -1302.88680835 </i>
    <i name="hartreedc">  -2381.49709312 </i>
    <i name="XCdc">    429.92071151 </i>
    <i name="pawpsdc">   2346.67466165 </i>
    <i name="pawaedc">  -2380.78838555 </i>
    <i name="eentropy">      0.00593016 </i>
    <i name="bandstr">   -970.05724979 </i>
    <i name="atom">   3830.54055688 </i>
    <i name="e_fr_energy">   -279.92747076 </i>
    <i name="e_wo_entrp">   -279.93340092 </i>
    <i name="e_0_energy">   -279.92944748 </i>
   </energy>
  </scstep>
  <structure>
   <crystal>
    <varray name="basis" >
     <v>       7.25559592       0.00000000       0.00000000 </v>
     <v>       0.00000000       9.24434934       0.00000000 </v>
     <v>       0.00000000       0.00000000       6.60944836 </v>
    </varray>
    <i name="volume">    443.31727092 </i>
    <varray name="rec_basis" >
     <v>       0.13782465       0.00000000       0.00000000 </v>
     <v>       0.00000000       0.10817419       0.00000000 </v>
     <v>       0.00000000       0.00000000       0.15129856 </v>
    </varray>
   </crystal>
   <varray name="positions" >
    <v>       0.94599998       0.13760001       0.99980003 </v>
    <v>       0.05400000       0.86239999       0.00020000 </v>
    <v>       0.55400002       0.86239999       0.49980000 </v>
    <v>       0.44600001       0.13760001       0.50019997 </v>
    <v>       0.05400000       0.63760001       0.50019997 </v>
    <v>       0.94599998       0.36239999       0.49980000 </v>
    <v>       0.44600001       0.36239999       0.00020000 </v>
    <v>       0.55400002       0.63760001       0.99980003 </v>
    <v>       0.07680000       0.09030000       0.13240001 </v>
    <v>       0.92320001       0.90969998       0.86759996 </v>
    <v>       0.42320001       0.90969998       0.63240004 </v>
    <v>       0.57679999       0.09030000       0.36759999 </v>
    <v>       0.92320001       0.59030002       0.36759999 </v>
    <v>       0.07680000       0.40970001       0.63240004 </v>
    <v>       0.57679999       0.40970001       0.86759996 </v>
    <v>       0.42320001       0.59030002       0.13240001 </v>
    <v>       0.87000001       0.04540000       0.87180000 </v>
    <v>       0.12999999       0.95459998       0.12820000 </v>
    <v>       0.62999999       0.95459998       0.37180000 </v>
    <v>       0.37000001       0.04540000       0.62820000 </v>
    <v>       0.12999999       0.54540002       0.62820000 </v>
    <v>       0.87000001       0.45460001       0.37180000 </v>
    <v>       0.37000001       0.45460001       0.12820000 </v>
    <v>       0.62999999       0.54540002       0.87180000 </v>
    <v>       0.91119999       0.23160000       0.99910003 </v>
    <v>       0.08880000       0.76840001       0.00090000 </v>
    <v>       0.58880001       0.76840001       0.49910000 </v>
    <v>       0.41119999       0.23160000       0.50089997 </v>
    <v>       0.08880000       0.73159999       0.50089997 </v>
    <v>       0.91119999       0.26840001       0.49910000 </v>
    <v>       0.41119999       0.26840001       0.00090000 </v>
    <v>       0.58880001       0.73159999       0.99910003 </v>
    <v>       0.12650000       0.15199999       0.22240000 </v>
    <v>       0.87349999       0.84799999       0.77759999 </v>
    <v>       0.37349999       0.84799999       0.72240001 </v>
    <v>       0.62650001       0.15199999       0.27759999 </v>
    <v>       0.87349999       0.65200001       0.27759999 </v>
    <v>       0.12650000       0.34799999       0.72240001 </v>
    <v>       0.62650001       0.34799999       0.77759999 </v>
    <v>       0.37349999       0.65200001       0.22240000 </v>
    <v>       0.78079999       0.07640000       0.78670001 </v>
    <v>       0.21920000       0.92360002       0.21330001 </v>
    <v>       0.71920001       0.92360002       0.28670001 </v>
    <v>       0.28079999       0.07640000       0.71329999 </v>
    <v>       0.21920000       0.57639998       0.71329999 </v>
    <v>       0.78079999       0.42360002       0.28670001 </v>
    <v>       0.28079999       0.42360002       0.21330001 </v>
    <v>       0.71920001       0.57639998       0.78670001 </v>
   </varray>
  </structure>
  <varray name="forces" >
   <v>       3.31466949      -6.88274041       1.62521016 </v>
   <v>      -3.31466949       6.88274041      -1.62521016 </v>
   <v>      -3.31466949       6.88274041       1.62521016 </v>
   <v>       3.31466949      -6.88274041      -1.62521016 </v>
   <v>      -3.31466949      -6.88274041      -1.62521016 </v>
   <v>       3.31466949       6.88274041       1.62521016 </v>
   <v>       3.31466949       6.88274041      -1.62521016 </v>
   <v>      -3.31466949      -6.88274041       1.62521016 </v>
   <v>      -4.43552791      -2.99764429      -6.07283637 </v>
   <v>       4.43552791       2.99764429       6.07283637 </v>
   <v>       4.43552791       2.99764429      -6.07283637 </v>
   <v>      -4.43552791      -2.99764429       6.07283637 </v>
   <v>       4.43552791      -2.99764429       6.07283637 </v>
   <v>      -4.43552791       2.99764429      -6.07283637 </v>
   <v>      -4.43552791       2.99764429       6.07283637 </v>
   <v>       4.43552791      -2.99764429      -6.07283637 </v>
   <v>       4.60767182      -1.48719040       4.01125440 </v>
   <v>      -4.60767182       1.48719040      -4.01125440 </v>
   <v>      -4.60767182       1.48719040       4.01125440 </v>
   <v>       4.60767182      -1.48719040      -4.01125440 </v>
   <v>      -4.60767182      -1.48719040      -4.01125440 </v>
   <v>       4.60767182       1.48719040       4.01125440 </v>
   <v>       4.60767182       1.48719040      -4.01125440 </v>
   <v>      -4.60767182      -1.48719040       4.01125440 </v>
   <v>      -3.03775989      10.45846089       0.09941506 </v>
   <v>       3.03775989     -10.45846089      -0.09941506 </v>
   <v>       3.03775989     -10.45846089       0.09941506 </v>
   <v>      -3.03775989      10.45846089      -0.09941506 </v>
   <v>       3.03775989      10.45846089      -0.09941506 </v>
   <v>      -3.03775989     -10.45846089       0.09941506 </v>
   <v>      -3.03775989     -10.45846089      -0.09941506 </v>
   <v>       3.03775989      10.45846089       0.09941506 </v>
   <v>       4.56765824       7.26924159       7.42435823 </v>
   <v>      -4.56765824      -7.26924159      -7.42435823 </v>
   <v>      -4.56765824      -7.26924159       7.42435823 </v>
   <v>       4.56765824       7.26924159      -7.42435823 </v>
   <v>      -4.56765824       7.26924159      -7.42435823 </v>
   <v>       4.56765824      -7.26924159       7.42435823 </v>
   <v>       4.56765824      -7.26924159      -7.42435823 </v>
   <v>      -4.56765824       7.26924159       7.42435823 </v>
   <v>      -7.81568683       3.45035370      -6.92185237 </v>
   <v>       7.81568683      -3.45035370       6.92185237 </v>
   <v>       7.81568683      -3.45035370      -6.92185237 </v>
   <v>      -7.81568683       3.45035370       6.92185237 </v>
   <v>       7.81568683       3.45035370       6.92185237 </v>
   <v>      -7.81568683      -3.45035370      -6.92185237 </v>
   <v>      -7.81568683      -3.45035370       6.92185237 </v>
   <v>       7.81568683       3.45035370      -6.92185237 </v>
  </varray>
  <varray name="stress" >
   <v>     295.30935194       0.00000000      -0.00000000 </v>
   <v>       0.00000000     662.11220886       0.00000000 </v>
   <v>       0.00000000       0.00000000     336.66170164 </v>
  </varray>
  <energy>
   <i name="e_fr_energy">   -279.92747076 </i>
   <i name="e_wo_entrp">   -279.92944748 </i>
   <i name="e_0_energy">      0.00593016 </i>
  </energy>
  <time name="totalsc">   67.41  281.51</time>
 </calculation>
 <calculation>
  <scstep>
   <time name="diag">    1.52    4.55</time>
   <time name="diis">    0.17    0.51</time>
   <time name="orth">    0.41    1.22</time>
   <time name="total">    2.76   13.94</time>
   <energy>
    <i name="alphaZ">    148.16020584 </i>
    <i name="ewald">    196.62352166 </i>
    <i name="hartreedc">  -3181.63267232 </i>
    <i name="XCdc">    435.99100901 </i>
    <i name="pawpsdc">   2345.83474702 </i>
    <i name="pawaedc">  -2379.94132251 </i>
    <i name="eentropy">      0.02149076 </i>
    <i name="bandstr">  -1284.62431935 </i>
    <i name="atom">   3830.54055688 </i>
    <i name="e_fr_energy">    110.97321699 </i>
    <i name="e_wo_entrp">    110.95172623 </i>
    <i name="e_0_energy">    110.96605341 </i>
   </energy>
  </scstep>
  <scstep>
   <time name="diag">    2.49    7.44</time>
   <time name="diis">    0.15    0.46</time>
   <time name="orth">    0.47    1.42</time>
   <time name="total">    3.33    9.98</time>
   <energy>
    <i name="e_fr_energy">     18.07291424 </i>
    <i name="e_wo_entrp">     18.11366273 </i>
    <i name="e_0_energy">     18.08649707 </i>
   </energy>
  </scstep>
  <scstep>
   <time name="diag">    2.53    7.58</time>
   <time name="diis">    0.15    0.42</time>
   <time name="orth">    0.44    1.32</time>
   <time name="total">    3.42   13.54</time>
   <energy>
    <i name="e_fr_energy">    -42.78835845 </i>
    <i name="e_wo_entrp">    -42.79650352 </i>
    <i name="e_0_energy">    -42.79107347 </i>
   </energy>
  </scstep>
  <scstep>
   <time name="diag">    2.27    6.80</time>
   <time name="diis">    0.15    0.46</time>
   <time name="orth">    0.45    1.34</time>
   <time name="total">    3.12   15.83</time>
   <energy>
    <i name="e_fr_energy">    -52.65214656 </i>
    <i name="e_wo_entrp">    -52.66701221 </i>
    <i name="e_0_energy">    -52.65710178 </i>
   </energy>
  </scstep>
  <scstep>
   <time name="diag">    2.37    7.10</time>
   <time name="diis">    0.16    0.46</time>
   <time name="orth">    0.49    1.47</time>
   <time name="total">    3.25    9.76</time>
   <energy>
    <i name="e_fr_energy">    -55.20006278 </i>
    <i name="e_wo_entrp">    -55.21941262 </i>
    <i name="e_0_energy">    -55.20651273 </i>
   </energy>
  </scstep>
  <scstep>
   <time name="diag">    1.57    4.71</time>
   <time name="diis">    0.15    0.46</time>
   <time name="orth">    0.50    1.51</time>
   <time name="total">    2.42   11.87</time>
   <energy>
    <i name="e_fr_energy">    -55.93043664 </i>
    <i name="e_wo_entrp">    -55.95230578 </i>
    <i name="e_0_energy">    -55.93772636 </i>
   </energy>
  </scstep>
  <scstep>
   <time name="diag">    1.63    4.88</time>
   <time name="diis">    0.17    0.51</time>
   <time name="orth">    0.48    1.45</time>
   <time name="total">    2.51    9.34</time>
   <energy>
    <i name="e_fr_energy">    -56.18095336 </i>
    <i name="e_wo_entrp">    -56.20395140 </i>
    <i name="e_0_energy">    -56.18861937 </i>
   </energy>
  </scstep>
  <scstep>
   <time name="diag">    2.23    6.69</time>
   <time name="diis">    0.28    0.84</time>
   <time name="orth">    0.46    1.39</time>
   <time name="total">    3.20   11.01</time>
   <energy>
    <i name="e_fr_energy">    -56.33078537 </i>
    <i name="e_wo_entrp">    -56.35445970 </i>
    <i name="e_0_energy">    -56.33867681 </i>
   </energy>
  </scstep>
  <scstep>
   <time name="diag">    1.18    3.53</time>
   <time name="diis">    0.29    0.86</time>
   <time name="orth">    0.36    1.07</time>
   <time name="total">    2.00   14.02</time>
   <energy>
    <i name="e_fr_energy">    -56.33042321 </i>
    <i name="e_wo_entrp">    -56.35413041 </i>
    <i name="e_0_energy">    -56.33832561 </i>
   </energy>
  </scstep>
  <scstep>
   <time name="diag">    1.57    4.69</time>
   <time name="diis">    0.32    0.97</time>
   <time name="orth">    0.48    1.45</time>
   <time name="total">    2.86   11.18</time>
   <energy>
    <i name="e_fr_energy">    -56.33064546 </i>
    <i name="e_wo_entrp">    -56.35435535 </i>
    <i name="e_0_energy">    -56.33854876 </i>
   </energy>
  </scstep>
  <scstep>
   <time name="diag">    2.73    8.20</time>
   <time name="diis">    0.25    0.76</time>
   <time name="orth">    0.52    1.56</time>
   <time name="total">    4.55   14.61</time>
   <energy>
    <i name="e_fr_energy">     25.55830791 </i>
    <i name="e_wo_entrp">     25.54106132 </i>
    <i name="e_0_energy">     25.55255905 </i>
   </energy>
  </scstep>
  <scstep>
   <time name="diag">    1.68    5.05</time>
   <time name="diis">    0.24    0.70</time>
   <time name="orth">    0.45    1.37</time>
   <time name="total">    3.54   11.35</time>
   <energy>
    <i name="e_fr_energy">     32.94664977 </i>
    <i name="e_wo_entrp">     32.92356663 </i>
    <i name="e_0_energy">     32.93895539 </i>
   </energy>
  </scstep>
  <scstep>
   <time name="diag">    2.23    6.70</time>
   <time name="diis">    0.28    0.86</time>
   <time name="orth">    0.46    1.38</time>
   <time name="total">    4.10   17.25</time>
   <energy>
    <i name="e_fr_energy">     33.41833523 </i>
    <i name="e_wo_entrp">     33.41221866 </i>
    <i name="e_0_energy">     33.41629637 </i>
   </energy>
  </scstep>
  <scstep>
   <time name="diag">    1.71    5.13</time>
   <time name="diis">    0.26    0.78</time>
   <time name="orth">    0.44    1.32</time>
   <time name="total">    3.44   14.17</time>
   <energy>
    <i name="e_fr_energy">     33.51665705 </i>
    <i name="e_wo_entrp">     33.51079350 </i>
    <i name="e_0_energy">     33.51470253 </i>
   </energy>
  </scstep>
  <scstep>
   <time name="diag">    1.50    4.51</time>
   <time name="diis">    0.30    0.90</time>
   <time name="orth">    0.47    1.42</time>
   <time name="total">    3.37   16.84</time>
   <energy>
    <i name="e_fr_energy">     33.49910648 </i>
    <i name="e_wo_entrp">     33.49320773 </i>
    <i name="e_0_energy">     33.49714023 </i>
   </energy>
  </scstep>
  <scstep>
   <time name="diag">    1.54    4.63</time>
   <time name="diis">    0.25    0.76</time>
   <time name="orth">    0.46    1.38</time>
   <time name="total">    3.37   10.50</time>
   <energy>
    <i name="e_fr_energy">     33.49455711 </i>
    <i name="e_wo_entrp">     33.48861698 </i>
    <i name="e_0_energy">     33.49257707 </i>
   </energy>
  </scstep>
  <scstep>
   <time name="diag">    2.63    7.89</time>
   <time name="diis">    0.26    0.77</time>
   <time name="orth">    0.46    1.40</time>
   <time name="total">    4.33   16.71</time>
   <energy>
    <i name="e_fr_energy">     33.49443121 </i>
    <i name="e_wo_entrp">     33.48854041 </i>
    <i name="e_0_energy">     33.49246761 </i>
   </energy>
  </scstep>
  <scstep>
   <time name="diag">    2.06    6.18</time>
   <time name="diis">    0.29    0.85</time>
   <time name="orth">    0.42    1.28</time>
   <time name="total">    3.85   14.58</time>
   <energy>
    <i name="e_fr_energy">     33.49535909 </i>
    <i name="e_wo_entrp">     33.48945452 </i>
    <i name="e_0_energy">     33.49339090 </i>
   </energy>
  </scstep>
  <scstep>
   <time name="diag">    2.60    7.80</time>
   <time name="diis">    0.28    0.84</time>
   <time name="orth">    0.52    1.55</time>
   <time name="total">    4.16   17.45</time>
   <energy>
    <i name="alphaZ">    148.16020584 </i>
    <i name="ewald">    196.62352166 </i>
    <i name="hartreedc">  -3467.72171765 </i>
    <i name="XCdc">    442.85507867 </i>
    <i name="pawpsdc">   3737.67682996 </i>
    <i name="pawaedc">  -3781.52431951 </i>
    <i name="eentropy">      0.00590985 </i>
    <i name="bandstr">  -1073.12072025 </i>
    <i name="atom">   3830.54055688 </i>
    <i name="e_fr_energy">     33.49534544 </i>
    <i name="e_wo_entrp">     33.48943559 </i>
    <i name="e_0_energy">     33.49337549 </i>
   </energy>
  </scstep>
  <structure>
   <crystal>
    <varray name="basis" >
     <v>       7.25559592       0.00000000       0.00000000 </v>
     <v>       0.00000000       9.24434934       0.00000000 </v>
     <v>       0.00000000       0.00000000       6.60944836 </v>
    </varray>
    <i name="volume">    443.31727092 </i>
    <varray name="rec_basis" >
     <v>       0.13782465       0.00000000       0.00000000 </v>
     <v>       0.00000000       0.10817419       0.00000000 </v>
     <v>       0.00000000       0.00000000       0.15129856 </v>
    </varray>
   </crystal>
   <varray name="positions" >
    <v>       0.96803931       0.10168167       0.01166251 </v>
    <v>       0.03196067       0.89831833      -0.01166248 </v>
    <v>       0.53196069       0.89831833       0.51166248 </v>
    <v>       0.46803934       0.10168167       0.48833749 </v>
    <v>       0.03196067       0.60168167       0.48833749 </v>
    <v>       0.96803931       0.39831833       0.51166248 </v>
    <v>       0.46803934       0.39831833      -0.01166248 </v>
    <v>       0.53196069       0.60168167       0.01166251 </v>
    <v>       0.04730806       0.07465646       0.08807411 </v>
    <v>       0.95269196       0.92534351       0.91192586 </v>
    <v>       0.45269196       0.92534351       0.58807414 </v>
    <v>       0.54730804       0.07465646       0.41192589 </v>
    <v>       0.95269196       0.57465649       0.41192589 </v>
    <v>       0.04730806       0.42534354       0.58807414 </v>
    <v>       0.54730804       0.42534354       0.91192586 </v>
    <v>       0.45269196       0.57465649       0.08807411 </v>
    <v>       0.90063654       0.03763893       0.90107833 </v>
    <v>       0.09936346       0.96236104       0.09892167 </v>
    <v>       0.59936346       0.96236104       0.40107833 </v>
    <v>       0.40063654       0.03763893       0.59892167 </v>
    <v>       0.09936346       0.53763896       0.59892167 </v>
    <v>       0.90063654       0.46236107       0.40107833 </v>
    <v>       0.40063654       0.46236107       0.09892167 </v>
    <v>       0.59936346       0.53763896       0.90107833 </v>
    <v>       0.89100184       0.28617863       0.99982566 </v>
    <v>       0.10899815       0.71382138       0.00017437 </v>
    <v>       0.60899816       0.71382138       0.49982563 </v>
    <v>       0.39100184       0.28617863       0.50017434 </v>
    <v>       0.10899815       0.78617862       0.50017434 </v>
    <v>       0.89100184       0.21382138       0.49982563 </v>
    <v>       0.39100184       0.21382138       0.00017437 </v>
    <v>       0.60899816       0.78617862       0.99982566 </v>
    <v>       0.15687048       0.18993533       0.27659071 </v>
    <v>       0.84312951       0.81006465       0.72340927 </v>
    <v>       0.34312951       0.81006465       0.77659073 </v>
    <v>       0.65687049       0.18993533       0.22340927 </v>
    <v>       0.84312951       0.68993535       0.22340927 </v>
    <v>       0.15687048       0.31006465       0.77659073 </v>
    <v>       0.65687049       0.31006465       0.72340927 </v>
    <v>       0.34312951       0.68993535       0.27659071 </v>
    <v>       0.72883327       0.09440605       0.73617711 </v>
    <v>       0.27116671       0.90559397       0.26382291 </v>
    <v>       0.77116673       0.90559397       0.23617711 </v>
    <v>       0.22883327       0.09440605       0.76382289 </v>
    <v>       0.27116671       0.59440603       0.76382289 </v>
    <v>       0.72883327       0.40559397       0.23617711 </v>
    <v>       0.22883327       0.40559397       0.26382291 </v>
    <v>       0.77116673       0.59440603       0.73617711 </v>
   </varray>
  </structure>
  <varray name="forces" >
   <v>     -98.56211731      74.93453840     -75.13913306 </v>
   <v>      98.56211731     -74.93453840      75.13913306 </v>
   <v>      98.56211731     -74.93453840     -75.13913306 </v>
   <v>     -98.56211731      74.93453840      75.13913306 </v>
   <v>      98.56211731      74.93453840      75.13913306 </v>
   <v>     -98.56211731     -74.93453840     -75.13913306 </v>
   <v>     -98.56211731     -74.93453840      75.13913306 </v>
   <v>      98.56211731      74.93453840     -75.13913306 </v>
   <v>     106.17496465     -20.51247946     101.83200252 </v>
   <v>    -106.17496465      20.51247946    -101.83200252 </v>
   <v>    -106.17496465      20.51247946     101.83200252 </v>
   <v>     106.17496465     -20.51247946    -101.83200252 </v>
   <v>    -106.17496465     -20.51247946    -101.83200252 </v>
   <v>     106.17496465      20.51247946     101.83200252 </v>
   <v>     106.17496465      20.51247946    -101.83200252 </v>
   <v>    -106.17496465     -20.51247946     101.83200252 </v>
   <v>     -30.83546752       7.16284874     -30.42103575 </v>
   <v>      30.83546752      -7.16284874      30.42103575 </v>
   <v>      30.83546752      -7.16284874     -30.42103575 </v>
   <v>     -30.83546752       7.16284874      30.42103575 </v>
   <v>      30.83546752       7.16284874      30.42103575 </v>
   <v>     -30.83546752      -7.16284874     -30.42103575 </v>
   <v>     -30.83546752      -7.16284874      30.42103575 </v>
   <v>      30.83546752       7.16284874     -30.42103575 </v>
   <v>       0.10894375      -1.06021736      -0.00838635 </v>
   <v>      -0.10894375       1.06021736       0.00838635 </v>
   <v>      -0.10894375       1.06021736      -0.00838635 </v>
   <v>       0.10894375      -1.06021736       0.00838635 </v>
   <v>      -0.10894375      -1.06021736       0.00838635 </v>
   <v>       0.10894375       1.06021736      -0.00838635 </v>
   <v>       0.10894375       1.06021736       0.00838635 </v>
   <v>      -0.10894375      -1.06021736      -0.00838635 </v>
   <v>      -0.35467651      -0.22227047      -0.77327729 </v>
   <v>       0.35467651       0.22227047       0.77327729 </v>
   <v>       0.35467651       0.22227047      -0.77327729 </v>
   <v>      -0.35467651      -0.22227047       0.77327729 </v>
   <v>       0.35467651      -0.22227047       0.77327729 </v>
   <v>      -0.35467651       0.22227047      -0.77327729 </v>
   <v>      -0.35467651       0.22227047       0.77327729 </v>
   <v>       0.35467651      -0.22227047      -0.77327729 </v>
   <v>       2.45645809      -0.35872973       1.96596330 </v>
   <v>      -2.45645809       0.35872973      -1.96596330 </v>
   <v>      -2.45645809       0.35872973       1.96596330 </v>
   <v>       2.45645809      -0.35872973      -1.96596330 </v>
   <v>      -2.45645809      -0.35872973      -1.96596330 </v>
   <v>       2.45645809       0.35872973       1.96596330 </v>
   <v>       2.45645809       0.35872973      -1.96596330 </v>
   <v>      -2.45645809      -0.35872973       1.96596330 </v>
  </varray>
  <varray name="stress" >
   <v>    2173.36750656       0.00000000      -0.00000000 </v>
   <v>       0.00000000    1540.46010406       0.00000000 </v>
   <v>      -0.00000000       0.00000000    1946.70112962 </v>
  </varray>
  <energy>
   <i name="e_fr_energy">     33.49534544 </i>
   <i name="e_wo_entrp">     33.49337549 </i>
   <i name="e_0_energy">      0.00590985 </i>
  </energy>
  <time name="totalsc">   70.70  291.98</time>
 </calculation>
 <calculation>
  <scstep>
   <time name="diag">    2.08    6.22</time>
   <time name="diis">    0.17    0.51</time>
   <time name="orth">    0.47    1.40</time>
   <time name="total">    4.42   13.23</time>
   <energy>
    <i name="alphaZ">    148.16020584 </i>
    <i name="ewald">  -1252.11397864 </i>
    <i name="hartreedc">  -2540.51017966 </i>
    <i name="XCdc">    424.22972583 </i>
    <i name="pawpsdc">   3737.64435073 </i>
    <i name="pawaedc">  -3781.49275664 </i>
    <i name="eentropy">      0.00579791 </i>
    <i name="bandstr">   -806.71265152 </i>
    <i name="atom">   3830.54055688 </i>
    <i name="e_fr_energy">   -240.24892927 </i>
    <i name="e_wo_entrp">   -240.25472717 </i>
    <i name="e_0_energy">   -240.25086190 </i>
   </energy>
  </scstep>
  <scstep>
   <time name="diag">    2.58    7.73</time>
   <time name="diis">    0.15    0.46</time>
   <time name="orth">    0.45    1.36</time>
   <time name="total">    3.37   10.95</time>
   <energy>
    <i name="e_fr_energy">   -331.91510512 </i>
    <i name="e_wo_entrp">   -331.92090304 </i>
    <i name="e_0_energy">   -331.91703776 </i>
   </energy>
  </scstep>
  <scstep>
   <time name="diag">    1.72    5.15</time>
   <time name="diis">    0.15    0.43</time>
   <time name="orth">    0.49    1.47</time>
   <time name="total">    2.57   13.87</time>
   <energy>
    <i name="e_fr_energy">   -340.62692204 </i>
    <i name="e_wo_entrp">   -340.63271998 </i>
    <i name="e_0_energy">   -340.62885469 </i>
   </energy>
  </scstep>
  <scstep>
   <time name="diag">    2.63    7.89</time>
   <time name="diis">    0.18    0.52</time>
   <time name="orth">    0.48    1.45</time>
   <time name="total">    3.54   10.63</time>
   <energy>
    <i name="e_fr_energy">   -342.08340046 </i>
    <i name="e_wo_entrp">   -342.08919839 </i>
    <i name="e_0_energy">   -342.08533310 </i>
   </energy>
  </scstep>
  <scstep>
   <time name="diag">    2.51    7.52</time>
   <time name="diis">    0.16    0.46</time>
   <time name="orth">    0.46    1.40</time>
   <time name="total">    3.39   11.95</time>
   <energy>
    <i name="e_fr_energy">   -342.44207133 </i>
    <i name="e_wo_entrp">   -342.44786926 </i>
    <i name="e_0_energy">   -342.44400398 </i>
   </energy>
  </scstep>
  <scstep>
   <time name="diag">    2.54    7.60</time>
   <time name="diis">    0.15    0.46</time>
   <time name="orth">    0.51    1.53</time>
   <time name="total">    3.48   14.26</time>
   <energy>
    <i name="e_fr_energy">   -342.53959298 </i>
    <i name="e_wo_entrp">   -342.54539091 </i>
    <i name="e_0_energy">   -342.54152562 </i>
   </energy>
  </scstep>
  <scstep>
   <time name="diag">    2.78    8.35</time>
   <time name="diis">    0.17    0.50</time>
   <time name="orth">    0.43    1.31</time>
   <time name="total">    3.63   10.90</time>
   <energy>
    <i name="e_fr_energy">   -342.56848222 </i>
    <i name="e_wo_entrp">   -342.57428015 </i>
    <i name="e_0_energy">   -342.57041486 </i>
   </energy>
  </scstep>
  <scstep>
   <time name="diag">    1.04    3.11</time>
   <time name="diis">    0.27    0.83</time>
   <time name="orth">    0.47    1.40</time>
   <time name="total">    1.96    9.94</time>
   <energy>
    <i name="e_fr_energy">   -342.58053295 </i>
    <i name="e_wo_entrp">   -342.58633088 </i>
    <i name="e_0_energy">   -342.58246559 </i>
   </energy>
  </scstep>
  <scstep>
   <time name="diag">    2.33    6.97</time>
   <time name="diis">    0.28    0.82</time>
   <time name="orth">    0.30    0.92</time>
   <time name="total">    2.93   12.71</time>
   <energy>
    <i name="e_fr_energy">   -342.58142835 </i>
    <i name="e_wo_entrp">   -342.58722629 </i>
    <i name="e_0_energy">   -342.58336100 </i>
   </energy>
  </scstep>
  <scstep>
   <time name="diag">    1.15    3.43</time>
   <time name="diis">    0.25    0.75</time>
   <time name="orth">    0.50    1.50</time>
   <time name="total">    2.40   12.82</time>
   <energy>
    <i name="e_fr_energy">   -342.58147223 </i>
    <i name="e_wo_entrp">   -342.58727016 </i>
    <i name="e_0_energy">   -342.58340488 </i>
   </energy>
  </scstep>
  <scstep>
   <time name="diag">    2.05    6.15</time>
   <time name="diis">    0.25    0.76</time>
   <time name="orth">    0.45    1.34</time>
   <time name="total">    3.93   15.14</time>
   <energy>
    <i name="e_fr_energy">   -296.73456514 </i>
    <i name="e_wo_entrp">   -296.75170776 </i>
    <i name="e_0_energy">   -296.74027935 </i>
   </energy>
  </scstep>
  <scstep>
   <time name="diag">    1.96    5.87</time>
   <time name="diis">    0.28    0.84</time>
   <time name="orth">    0.47    1.40</time>
   <time name="total">    3.79   13.68</time>
   <energy>
    <i name="e_fr_energy">   -289.70351936 </i>
    <i name="e_wo_entrp">   -289.71634669 </i>
    <i name="e_0_energy">   -289.70779514 </i>
   </energy>
  </scstep>
  <scstep>
   <time name="diag">    1.50    4.50</time>
   <time name="diis">    0.25    0.74</time>
   <time name="orth">    0.48    1.44</time>
   <time name="total">    3.34   16.60</time>
   <energy>
    <i name="e_fr_energy">   -289.33803954 </i>
    <i name="e_wo_entrp">   -289.35261427 </i>
    <i name="e_0_energy">   -289.34289778 </i>
   </energy>
  </scstep>
  <scstep>
   <time name="diag">    1.97    5.93</time>
   <time name="diis">    0.29    0.87</time>
   <time name="orth">    0.48    1.45</time>
   <time name="total">    3.88   18.11</time>
   <energy>
    <i name="e_fr_energy">   -289.34664709 </i>
    <i name="e_wo_entrp">   -289.36026329 </i>
    <i name="e_0_energy">   -289.35118582 </i>
   </energy>
  </scstep>
  <scstep>
   <time name="diag">    1.99    5.96</time>
   <time name="diis">    0.25    0.76</time>
   <time name="orth">    0.44    1.32</time>
   <time name="total">    3.69   15.12</time>
   <energy>
    <i name="e_fr_energy">   -289.34967865 </i>
    <i name="e_wo_entrp">   -289.36315905 </i>
    <i name="e_0_energy">   -289.35417212 </i>
   </energy>
  </scstep>
  <scstep>
   <time name="diag">    3.05    9.15</time>
   <time name="diis">    0.29    0.85</time>
   <time name="orth">    0.49    1.45</time>
   <time name="total">    4.90   19.55</time>
   <energy>
    <i name="e_fr_energy">   -289.35018539 </i>
    <i name="e_wo_entrp">   -289.36393664 </i>
    <i name="e_0_energy">   -289.35476914 </i>
   </energy>
  </scstep>
  <scstep>
   <time name="diag">    2.01    6.03</time>
   <time name="diis">    0.29    0.86</time>
   <time name="orth">    0.47    1.42</time>
   <time name="total">    3.55   13.68</time>
   <energy>
    <i name="alphaZ">    148.16020584 </i>
    <i name="ewald">  -1252.11397864 </i>
    <i name="hartreedc">  -2461.30483595 </i>
    <i name="XCdc">    425.19636598 </i>
    <i name="pawpsdc">   2236.36723258 </i>
    <i name="pawaedc">  -2269.97064144 </i>
    <i name="eentropy">      0.01360132 </i>
    <i name="bandstr">   -946.23872294 </i>
    <i name="atom">   3830.54055688 </i>
    <i name="e_fr_energy">   -289.35021639 </i>
    <i name="e_wo_entrp">   -289.36381771 </i>
    <i name="e_0_energy">   -289.35475016 </i>
   </energy>
  </scstep>
  <structure>
   <crystal>
    <varray name="basis" >
     <v>       7.25559592       0.00000000       0.00000000 </v>
     <v>       0.00000000       9.24434934       0.00000000 </v>
     <v>       0.00000000       0.00000000       6.60944836 </v>
    </varray>
    <i name="volume">    443.31727092 </i>
    <varray name="rec_basis" >
     <v>       0.13782465       0.00000000       0.00000000 </v>
     <v>       0.00000000       0.10817419       0.00000000 </v>
     <v>       0.00000000       0.00000000       0.15129856 </v>
    </varray>
   </crystal>
   <varray name="positions" >
    <v>       0.95076328       0.12983707       0.00236383 </v>
    <v>       0.04923670       0.87016293      -0.00236381 </v>
    <v>       0.54923672       0.87016293       0.50236380 </v>
    <v>       0.45076331       0.12983707       0.49763617 </v>
    <v>       0.04923670       0.62983707       0.49763617 </v>
    <v>       0.95076328       0.37016293       0.50236380 </v>
    <v>       0.45076331       0.37016293      -0.00236381 </v>
    <v>       0.54923672       0.62983707       0.00236383 </v>
    <v>       0.07042599       0.08691900       0.12281996 </v>
    <v>       0.92957403       0.91308097       0.87718001 </v>
    <v>       0.42957403       0.91308097       0.62281999 </v>
    <v>       0.57042597       0.08691900       0.37718004 </v>
    <v>       0.92957403       0.58691903       0.37718004 </v>
    <v>       0.07042599       0.41308100       0.62281999 </v>
    <v>       0.57042597       0.41308100       0.87718001 </v>
    <v>       0.42957403       0.58691903       0.12281996 </v>
    <v>       0.87662140       0.04372262       0.87812785 </v>
    <v>       0.12337860       0.95627736       0.12187215 </v>
    <v>       0.62337860       0.95627736       0.37812785 </v>
    <v>       0.37662140       0.04372262       0.62187215 </v>
    <v>       0.12337860       0.54372264       0.62187215 </v>
    <v>       0.87662140       0.45627739       0.37812785 </v>
    <v>       0.37662140       0.45627739       0.12187215 </v>
    <v>       0.62337860       0.54372264       0.87812785 </v>
    <v>       0.90683461       0.24339594       0.99925686 </v>
    <v>       0.09316537       0.75660407       0.00074317 </v>
    <v>       0.59316539       0.75660407       0.49925683 </v>
    <v>       0.40683461       0.24339594       0.50074314 </v>
    <v>       0.09316537       0.74339593       0.50074314 </v>
    <v>       0.90683461       0.25660407       0.49925683 </v>
    <v>       0.40683461       0.25660407       0.00074317 </v>
    <v>       0.59316539       0.74339593       0.99925686 </v>
    <v>       0.13306389       0.16019886       0.23411209 </v>
    <v>       0.86693610       0.83980112       0.76588789 </v>
    <v>       0.36693610       0.83980112       0.73411211 </v>
    <v>       0.63306390       0.16019886       0.26588789 </v>
    <v>       0.86693610       0.66019888       0.26588789 </v>
    <v>       0.13306389       0.33980112       0.73411211 </v>
    <v>       0.63306390       0.33980112       0.76588789 </v>
    <v>       0.36693610       0.66019888       0.23411209 </v>
    <v>       0.76956855       0.08029160       0.77578062 </v>
    <v>       0.23043143       0.91970842       0.22421939 </v>
    <v>       0.73043145       0.91970842       0.27578062 </v>
    <v>       0.26956855       0.08029160       0.72421938 </v>
    <v>       0.23043143       0.58029158       0.72421938 </v>
    <v>       0.76956855       0.41970842       0.27578062 </v>
    <v>       0.26956855       0.41970842       0.22421939 </v>
    <v>       0.73043145       0.58029158       0.77578062 </v>
   </varray>
  </structure>
  <varray name="forces" >
   <v>      -4.01631411       9.50066855      -1.11918724 </v>
   <v>       4.01631411      -9.50066855       1.11918724 </v>
   <v>       4.01631411      -9.50066855      -1.11918724 </v>
   <v>      -4.01631411       9.50066855       1.11918724 </v>
   <v>       4.01631411       9.50066855       1.11918724 </v>
   <v>      -4.01631411      -9.50066855      -1.11918724 </v>
   <v>      -4.01631411      -9.50066855       1.11918724 </v>
   <v>       4.01631411       9.50066855      -1.11918724 </v>
   <v>       5.29497517       5.15379289       7.35688650 </v>
   <v>      -5.29497517      -5.15379289      -7.35688650 </v>
   <v>      -5.29497517      -5.15379289       7.35688650 </v>
   <v>       5.29497517       5.15379289      -7.35688650 </v>
   <v>      -5.29497517       5.15379289      -7.35688650 </v>
   <v>       5.29497517      -5.15379289       7.35688650 </v>
   <v>       5.29497517      -5.15379289      -7.35688650 </v>
   <v>      -5.29497517       5.15379289       7.35688650 </v>
   <v>      -5.98405594       2.47905130      -5.46602427 </v>
   <v>       5.98405594      -2.47905130       5.46602427 </v>
   <v>       5.98405594      -2.47905130      -5.46602427 </v>
   <v>      -5.98405594       2.47905130       5.46602427 </v>
   <v>       5.98405594       2.47905130       5.46602427 </v>
   <v>      -5.98405594      -2.47905130      -5.46602427 </v>
   <v>      -5.98405594      -2.47905130       5.46602427 </v>
   <v>       5.98405594       2.47905130      -5.46602427 </v>
   <v>       0.04772745       0.07047287       0.20868896 </v>
   <v>      -0.04772745      -0.07047287      -0.20868896 </v>
   <v>      -0.04772745      -0.07047287       0.20868896 </v>
   <v>       0.04772745       0.07047287      -0.20868896 </v>
   <v>      -0.04772745       0.07047287      -0.20868896 </v>
   <v>       0.04772745      -0.07047287       0.20868896 </v>
   <v>       0.04772745      -0.07047287      -0.20868896 </v>
   <v>      -0.04772745       0.07047287       0.20868896 </v>
   <v>      -0.06577823       0.11692555      -0.14540517 </v>
   <v>       0.06577823      -0.11692555       0.14540517 </v>
   <v>       0.06577823      -0.11692555      -0.14540517 </v>
   <v>      -0.06577823       0.11692555       0.14540517 </v>
   <v>       0.06577823       0.11692555       0.14540517 </v>
   <v>      -0.06577823      -0.11692555      -0.14540517 </v>
   <v>      -0.06577823      -0.11692555       0.14540517 </v>
   <v>       0.06577823       0.11692555      -0.14540517 </v>
   <v>      -0.21692343       0.10520648      -0.28491037 </v>
   <v>       0.21692343      -0.10520648       0.28491037 </v>
   <v>       0.21692343      -0.10520648      -0.28491037 </v>
   <v>      -0.21692343       0.10520648       0.28491037 </v>
   <v>       0.21692343       0.10520648       0.28491037 </v>
   <v>      -0.21692343      -0.10520648      -0.28491037 </v>
   <v>      -0.21692343      -0.10520648       0.28491037 </v>
   <v>       0.21692343       0.10520648      -0.28491037 </v>
  </varray>
  <varray name="stress" >
   <v>     278.76318084       0.00000000       0.00000000 </v>
   <v>       0.00000000     488.58448669       0.00000000 </v>
   <v>       0.00000000       0.00000000     300.73150584 </v>
  </varray>
  <energy>
   <i name="e_fr_energy">   -289.35021639 </i>
   <i name="e_wo_entrp">   -289.35475016 </i>
   <i name="e_0_energy">      0.01360132 </i>
  </energy>
  <time name="totalsc">   65.27  266.15</time>
 </calculation>
 <calculation>
  <scstep>
   <time name="diag">    0.77    2.30</time>
   <time name="diis">    0.17    0.51</time>
   <time name="orth">    0.46    1.37</time>
   <time name="total">    2.08    6.22</time>
   <energy>
    <i name="alphaZ">    148.16020584 </i>
    <i name="ewald">  -1283.62550631 </i>
    <i name="hartreedc">  -2426.65484659 </i>
    <i name="XCdc">    425.35873906 </i>
    <i name="pawpsdc">   2236.70592501 </i>
    <i name="pawaedc">  -2270.31283262 </i>
    <i name="eentropy">      0.01420116 </i>
    <i name="bandstr">   -952.72188027 </i>
    <i name="atom">   3830.54055688 </i>
    <i name="e_fr_energy">   -292.53543785 </i>
    <i name="e_wo_entrp">   -292.54963901 </i>
    <i name="e_0_energy">   -292.54017157 </i>
   </energy>
  </scstep>
  <scstep>
   <time name="diag">    1.90    5.67</time>
   <time name="diis">    0.16    0.48</time>
   <time name="orth">    0.41    1.24</time>
   <time name="total">    2.55    9.01</time>
   <energy>
    <i name="e_fr_energy">   -292.75946923 </i>
    <i name="e_wo_entrp">   -292.77366372 </i>
    <i name="e_0_energy">   -292.76420073 </i>
   </energy>
  </scstep>
  <scstep>
   <time name="diag">    1.73    5.19</time>
   <time name="diis">    0.16    0.48</time>
   <time name="orth">    0.53    1.59</time>
   <time name="total">    2.65    8.04</time>
   <energy>
    <i name="e_fr_energy">   -292.78655712 </i>
    <i name="e_wo_entrp">   -292.80075172 </i>
    <i name="e_0_energy">   -292.79128866 </i>
   </energy>
  </scstep>
  <scstep>
   <time name="diag">    2.05    6.14</time>
   <time name="diis">    0.16    0.48</time>
   <time name="orth">    0.47    1.43</time>
   <time name="total">    2.89    8.82</time>
   <energy>
    <i name="e_fr_energy">   -292.79177835 </i>
    <i name="e_wo_entrp">   -292.80597292 </i>
    <i name="e_0_energy">   -292.79650988 </i>
   </energy>
  </scstep>
  <scstep>
   <time name="diag">    1.52    4.54</time>
   <time name="diis">    0.16    0.48</time>
   <time name="orth">    0.49    1.49</time>
   <time name="total">    2.34    7.08</time>
   <energy>
    <i name="e_fr_energy">   -292.79309085 </i>
    <i name="e_wo_entrp">   -292.80728539 </i>
    <i name="e_0_energy">   -292.79782236 </i>
   </energy>
  </scstep>
  <scstep>
   <time name="diag">    1.54    4.63</time>
   <time name="diis">    0.16    0.48</time>
   <time name="orth">    0.48    1.45</time>
   <time name="total">    2.41    7.22</time>
   <energy>
    <i name="e_fr_energy">   -292.79344192 </i>
    <i name="e_wo_entrp">   -292.80763646 </i>
    <i name="e_0_energy">   -292.79817343 </i>
   </energy>
  </scstep>
  <scstep>
   <time name="diag">    2.05    6.15</time>
   <time name="diis">    0.15    0.44</time>
   <time name="orth">    0.41    1.24</time>
   <time name="total">    2.79   10.31</time>
   <energy>
    <i name="e_fr_energy">   -292.79354819 </i>
    <i name="e_wo_entrp">   -292.80774272 </i>
    <i name="e_0_energy">   -292.79827970 </i>
   </energy>
  </scstep>
  <scstep>
   <time name="diag">    1.96    5.87</time>
   <time name="diis">    0.27    0.80</time>
   <time name="orth">    0.50    1.50</time>
   <time name="total">    2.92   10.28</time>
   <energy>
    <i name="e_fr_energy">   -292.79358914 </i>
    <i name="e_wo_entrp">   -292.80778367 </i>
    <i name="e_0_energy">   -292.79832065 </i>
   </energy>
  </scstep>
  <scstep>
   <time name="diag">    2.36    7.05</time>
   <time name="diis">    0.20    0.59</time>
   <time name="orth">    0.48    1.43</time>
   <time name="total">    3.25   10.06</time>
   <energy>
    <i name="e_fr_energy">   -292.79359503 </i>
    <i name="e_wo_entrp">   -292.80778956 </i>
    <i name="e_0_energy">   -292.79832654 </i>
   </energy>
  </scstep>
  <scstep>
   <time name="diag">    1.83    5.46</time>
   <time name="diis">    0.19    0.57</time>
   <time name="orth">    0.50    1.51</time>
   <time name="total">    3.13   13.11</time>
   <energy>
    <i name="e_fr_energy">   -292.79359590 </i>
    <i name="e_wo_entrp">   -292.80779043 </i>
    <i name="e_0_energy">   -292.79832741 </i>
   </energy>
  </scstep>
  <scstep>
   <time name="diag">    2.47    7.41</time>
   <time name="diis">    0.26    0.78</time>
   <time name="orth">    0.46    1.38</time>
   <time name="total">    4.25   13.31</time>
   <energy>
    <i name="e_fr_energy">   -292.61042083 </i>
    <i name="e_wo_entrp">   -292.62539930 </i>
    <i name="e_0_energy">   -292.61541365 </i>
   </energy>
  </scstep>
  <scstep>
   <time name="diag">    1.30    3.90</time>
   <time name="diis">    0.24    0.73</time>
   <time name="orth">    0.40    1.22</time>
   <time name="total">    2.99   10.00</time>
   <energy>
    <i name="e_fr_energy">   -292.57198381 </i>
    <i name="e_wo_entrp">   -292.58739395 </i>
    <i name="e_0_energy">   -292.57712053 </i>
   </energy>
  </scstep>
  <scstep>
   <time name="diag">    2.35    7.04</time>
   <time name="diis">    0.24    0.72</time>
   <time name="orth">    0.46    1.38</time>
   <time name="total">    4.16   12.46</time>
   <energy>
    <i name="e_fr_energy">   -292.57103939 </i>
    <i name="e_wo_entrp">   -292.58626008 </i>
    <i name="e_0_energy">   -292.57611295 </i>
   </energy>
  </scstep>
  <scstep>
   <time name="diag">    1.68    5.05</time>
   <time name="diis">    0.25    0.76</time>
   <time name="orth">    0.44    1.32</time>
   <time name="total">    3.48   11.66</time>
   <energy>
    <i name="e_fr_energy">   -292.57087454 </i>
    <i name="e_wo_entrp">   -292.58605898 </i>
    <i name="e_0_energy">   -292.57593602 </i>
   </energy>
  </scstep>
  <scstep>
   <time name="diag">    1.49    4.46</time>
   <time name="diis">    0.25    0.76</time>
   <time name="orth">    0.47    1.42</time>
   <time name="total">    2.91    9.90</time>
   <energy>
    <i name="alphaZ">    148.16020584 </i>
    <i name="ewald">  -1283.62550631 </i>
    <i name="hartreedc">  -2430.73820502 </i>
    <i name="XCdc">    426.08880592 </i>
    <i name="pawpsdc">   2234.27956290 </i>
    <i name="pawaedc">  -2267.85809025 </i>
    <i name="eentropy">      0.01523008 </i>
    <i name="bandstr">   -949.43344271 </i>
    <i name="atom">   3830.54055688 </i>
    <i name="e_fr_energy">   -292.57088267 </i>
    <i name="e_wo_entrp">   -292.58611275 </i>
    <i name="e_0_energy">   -292.57595936 </i>
   </energy>
  </scstep>
  <structure>
   <crystal>
    <varray name="basis" >
     <v>       7.25559592       0.00000000       0.00000000 </v>
     <v>       0.00000000       9.24434934       0.00000000 </v>
     <v>       0.00000000       0.00000000       6.60944836 </v>
    </varray>
    <i name="volume">    443.31727092 </i>
    <varray name="rec_basis" >
     <v>       0.13782465       0.00000000       0.00000000 </v>
     <v>       0.00000000       0.10817419       0.00000000 </v>
     <v>       0.00000000       0.00000000       0.15129856 </v>
    </varray>
   </crystal>
   <varray name="positions" >
    <v>       0.94940489       0.13205089       0.00163269 </v>
    <v>       0.05059509       0.86794911      -0.00163266 </v>
    <v>       0.55059511       0.86794911       0.50163266 </v>
    <v>       0.44940492       0.13205089       0.49836731 </v>
    <v>       0.05059509       0.63205089       0.49836731 </v>
    <v>       0.94940489       0.36794911       0.50163266 </v>
    <v>       0.44940492       0.36794911      -0.00163266 </v>
    <v>       0.55059511       0.63205089       0.00163269 </v>
    <v>       0.07224372       0.08788319       0.12555199 </v>
    <v>       0.92775630       0.91211679       0.87444798 </v>
    <v>       0.42775630       0.91211679       0.62555202 </v>
    <v>       0.57224370       0.08788319       0.37444801 </v>
    <v>       0.92775630       0.58788321       0.37444801 </v>
    <v>       0.07224372       0.41211682       0.62555202 </v>
    <v>       0.57224370       0.41211682       0.87444798 </v>
    <v>       0.42775630       0.58788321       0.12555199 </v>
    <v>       0.87473312       0.04420097       0.87632329 </v>
    <v>       0.12526688       0.95579900       0.12367671 </v>
    <v>       0.62526688       0.95579900       0.37632329 </v>
    <v>       0.37473312       0.04420097       0.62367671 </v>
    <v>       0.12526688       0.54420100       0.62367671 </v>
    <v>       0.87473312       0.45579903       0.37632329 </v>
    <v>       0.37473312       0.45579903       0.12367671 </v>
    <v>       0.62526688       0.54420100       0.87632329 </v>
    <v>       0.90807952       0.24003199       0.99921213 </v>
    <v>       0.09192046       0.75996802       0.00078789 </v>
    <v>       0.59192048       0.75996802       0.49921211 </v>
    <v>       0.40807952       0.24003199       0.50078787 </v>
    <v>       0.09192046       0.74003198       0.50078787 </v>
    <v>       0.90807952       0.25996802       0.49921211 </v>
    <v>       0.40807952       0.25996802       0.00078789 </v>
    <v>       0.59192048       0.74003198       0.99921213 </v>
    <v>       0.13119201       0.15786072       0.23077205 </v>
    <v>       0.86880798       0.84213926       0.76922793 </v>
    <v>       0.36880798       0.84213926       0.73077207 </v>
    <v>       0.63119202       0.15786072       0.26922793 </v>
    <v>       0.86880798       0.65786074       0.26922793 </v>
    <v>       0.13119201       0.34213926       0.73077207 </v>
    <v>       0.63119202       0.34213926       0.76922793 </v>
    <v>       0.36880798       0.65786074       0.23077205 </v>
    <v>       0.77277152       0.07918180       0.77889460 </v>
    <v>       0.22722847       0.92081822       0.22110541 </v>
    <v>       0.72722848       0.92081822       0.27889460 </v>
    <v>       0.27277152       0.07918180       0.72110540 </v>
    <v>       0.22722847       0.57918178       0.72110540 </v>
    <v>       0.77277152       0.42081822       0.27889460 </v>
    <v>       0.27277152       0.42081822       0.22110541 </v>
    <v>       0.72722848       0.57918178       0.77889460 </v>
   </varray>
  </structure>
  <varray name="forces" >
   <v>      -1.89416324       5.67183522      -0.06458070 </v>
   <v>       1.89416324      -5.67183522       0.06458070 </v>
   <v>       1.89416324      -5.67183522      -0.06458070 </v>
   <v>      -1.89416324       5.67183522       0.06458070 </v>
   <v>       1.89416324       5.67183522       0.06458070 </v>
   <v>      -1.89416324      -5.67183522      -0.06458070 </v>
   <v>      -1.89416324      -5.67183522       0.06458070 </v>
   <v>       1.89416324       5.67183522      -0.06458070 </v>
   <v>       2.60513779       3.73998204       3.95163510 </v>
   <v>      -2.60513779      -3.73998204      -3.95163510 </v>
   <v>      -2.60513779      -3.73998204       3.95163510 </v>
   <v>       2.60513779       3.73998204      -3.95163510 </v>
   <v>      -2.60513779       3.73998204      -3.95163510 </v>
   <v>       2.60513779      -3.73998204       3.95163510 </v>
   <v>       2.60513779      -3.73998204      -3.95163510 </v>
   <v>      -2.60513779       3.73998204       3.95163510 </v>
   <v>      -3.58601204       1.69032568      -3.27356835 </v>
   <v>       3.58601204      -1.69032568       3.27356835 </v>
   <v>       3.58601204      -1.69032568      -3.27356835 </v>
   <v>      -3.58601204       1.69032568       3.27356835 </v>
   <v>       3.58601204       1.69032568       3.27356835 </v>
   <v>      -3.58601204      -1.69032568      -3.27356835 </v>
   <v>      -3.58601204      -1.69032568       3.27356835 </v>
   <v>       3.58601204       1.69032568      -3.27356835 </v>
   <v>      -0.53487229       1.96653943       0.17098061 </v>
   <v>       0.53487229      -1.96653943      -0.17098061 </v>
   <v>       0.53487229      -1.96653943       0.17098061 </v>
   <v>      -0.53487229       1.96653943      -0.17098061 </v>
   <v>       0.53487229       1.96653943      -0.17098061 </v>
   <v>      -0.53487229      -1.96653943       0.17098061 </v>
   <v>      -0.53487229      -1.96653943      -0.17098061 </v>
   <v>       0.53487229       1.96653943       0.17098061 </v>
   <v>       0.79035027       1.38214839       1.23500114 </v>
   <v>      -0.79035027      -1.38214839      -1.23500114 </v>
   <v>      -0.79035027      -1.38214839       1.23500114 </v>
   <v>       0.79035027       1.38214839      -1.23500114 </v>
   <v>      -0.79035027       1.38214839      -1.23500114 </v>
   <v>       0.79035027      -1.38214839       1.23500114 </v>
   <v>       0.79035027      -1.38214839      -1.23500114 </v>
   <v>      -0.79035027       1.38214839       1.23500114 </v>
   <v>      -1.67392583       0.73658535      -1.56087944 </v>
   <v>       1.67392583      -0.73658535       1.56087944 </v>
   <v>       1.67392583      -0.73658535      -1.56087944 </v>
   <v>      -1.67392583       0.73658535       1.56087944 </v>
   <v>       1.67392583       0.73658535       1.56087944 </v>
   <v>      -1.67392583      -0.73658535      -1.56087944 </v>
   <v>      -1.67392583      -0.73658535       1.56087944 </v>
   <v>       1.67392583       0.73658535      -1.56087944 </v>
  </varray>
  <varray name="stress" >
   <v>     260.70343779       0.00000000       0.00000000 </v>
   <v>       0.00000000     504.27212209       0.00000000 </v>
   <v>      -0.00000000       0.00000000     286.59503763 </v>
  </varray>
  <energy>
   <i name="e_fr_energy">   -292.57088267 </i>
   <i name="e_wo_entrp">   -292.57595936 </i>
   <i name="e_0_energy">      0.01523008 </i>
  </energy>
  <time name="totalsc">   51.81  187.69</time>
 </calculation>
 <calculation>
  <scstep>
   <time name="diag">    2.44    7.34</time>
   <time name="diis">    0.16    0.46</time>
   <time name="orth">    0.48    1.45</time>
   <time name="total">    3.92   11.92</time>
   <energy>
    <i name="alphaZ">    148.16020584 </i>
    <i name="ewald">  -1290.56780948 </i>
    <i name="hartreedc">  -2421.18104624 </i>
    <i name="XCdc">    426.17358335 </i>
    <i name="pawpsdc">   2234.25401467 </i>
    <i name="pawaedc">  -2267.83272717 </i>
    <i name="eentropy">      0.01418769 </i>
    <i name="bandstr">   -952.31761290 </i>
    <i name="atom">   3830.54055688 </i>
    <i name="e_fr_energy">   -292.75664736 </i>
    <i name="e_wo_entrp">   -292.77083504 </i>
    <i name="e_0_energy">   -292.76137659 </i>
   </energy>
  </scstep>
  <scstep>
   <time name="diag">    1.93    5.77</time>
   <time name="diis">    0.15    0.45</time>
   <time name="orth">    0.50    1.51</time>
   <time name="total">    2.80    9.10</time>
   <energy>
    <i name="e_fr_energy">   -292.77683962 </i>
    <i name="e_wo_entrp">   -292.79102758 </i>
    <i name="e_0_energy">   -292.78156894 </i>
   </energy>
  </scstep>
  <scstep>
   <time name="diag">    1.75    5.23</time>
   <time name="diis">    0.15    0.46</time>
   <time name="orth">    0.43    1.30</time>
   <time name="total">    2.52    7.57</time>
   <energy>
    <i name="e_fr_energy">   -292.77925291 </i>
    <i name="e_wo_entrp">   -292.79344087 </i>
    <i name="e_0_energy">   -292.78398223 </i>
   </energy>
  </scstep>
  <scstep>
   <time name="diag">    1.42    4.25</time>
   <time name="diis">    0.15    0.47</time>
   <time name="orth">    0.46    1.40</time>
   <time name="total">    2.25    8.18</time>
   <energy>
    <i name="e_fr_energy">   -292.77972255 </i>
    <i name="e_wo_entrp">   -292.79391050 </i>
    <i name="e_0_energy">   -292.78445187 </i>
   </energy>
  </scstep>
  <scstep>
   <time name="diag">    1.54    4.61</time>
   <time name="diis">    0.14    0.43</time>
   <time name="orth">    0.43    1.30</time>
   <time name="total">    2.27    9.17</time>
   <energy>
    <i name="e_fr_energy">   -292.77984050 </i>
    <i name="e_wo_entrp">   -292.79402846 </i>
    <i name="e_0_energy">   -292.78456982 </i>
   </energy>
  </scstep>
  <scstep>
   <time name="diag">    2.23    6.68</time>
   <time name="diis">    0.15    0.44</time>
   <time name="orth">    0.48    1.45</time>
[...]
       <r>    3.1905    0.0000 </r>
       <r>    3.2273    0.0000 </r>
       <r>    3.3013    0.0000 </r>
       <r>    3.4878    0.0000 </r>
       <r>    3.5403    0.0000 </r>
       <r>    3.6023    0.0000 </r>
       <r>    3.8036    0.0000 </r>
       <r>    3.9461    0.0000 </r>
       <r>    4.5759    0.0000 </r>
       <r>    5.7298    0.0000 </r>
       <r>    5.8969    0.0000 </r>
       <r>    6.6883    0.0000 </r>
       <r>    6.6933    0.0000 </r>
       <r>    6.7709    0.0000 </r>
       <r>    6.8311    0.0000 </r>
       <r>    7.0442    0.0000 </r>
       <r>    7.2128    0.0000 </r>
       <r>    7.2562    0.0000 </r>
       <r>    7.2719    0.0000 </r>
       <r>    7.2899    0.0000 </r>
       <r>    7.4318    0.0000 </r>
       <r>    7.7936    0.0000 </r>
       <r>    8.0506    0.0000 </r>
       <r>    8.0628    0.0000 </r>
       <r>    8.1258    0.0000 </r>
       <r>    8.5602    0.0000 </r>
       <r>    8.6640    0.0000 </r>
       <r>    8.8219    0.0000 </r>
      </set>
     </set>
    </set>
   </array>
  </eigenvalues>
  <separator name="orbital magnetization" >
   <v name="MAGDIPOLOUT">      0.00000000      0.00000000      0.00000000</v>
  </separator>
  <dos>
   <i name="efermi">     -1.16166240 </i>
   <total>
    <array>
     <dimension dim="1">gridpoints</dimension>
     <dimension dim="2">spin</dimension>
     <field>energy</field>
     <field>total</field>
     <field>integrated</field>
     <set>
      <set comment="spin 1">
       <r>   -17.8845     0.0000     0.0000 </r>
       <r>   -17.7913     0.0000     0.0000 </r>
       <r>   -17.6980     0.0000     0.0000 </r>
       <r>   -17.6048     0.0000     0.0000 </r>
       <r>   -17.5115     0.0000     0.0000 </r>
       <r>   -17.4182    -0.0000    -0.0000 </r>
       <r>   -17.3250    -0.0000    -0.0000 </r>
       <r>   -17.2317    -0.0000    -0.0000 </r>
       <r>   -17.1385    -0.0000    -0.0000 </r>
       <r>   -17.0452    -0.0000    -0.0000 </r>
       <r>   -16.9519    -0.0002    -0.0000 </r>
       <r>   -16.8587    -0.0296    -0.0028 </r>
       <r>   -16.7654    -0.5421    -0.0533 </r>
       <r>   -16.6722     2.1296     0.1453 </r>
       <r>   -16.5789    13.9381     1.4452 </r>
       <r>   -16.4856    15.3361     2.8754 </r>
       <r>   -16.3924    31.8573     5.8464 </r>
       <r>   -16.2991    23.5313     8.0410 </r>
       <r>   -16.2059     0.1819     8.0579 </r>
       <r>   -16.1126    -0.6036     8.0017 </r>
       <r>   -16.0193    -0.0177     8.0000 </r>
       <r>   -15.9261    -0.0001     8.0000 </r>
       <r>   -15.8328    -0.0000     8.0000 </r>
       <r>   -15.7395    -0.0000     8.0000 </r>
       <r>   -15.6463     0.0000     8.0000 </r>
       <r>   -15.5530     0.0000     8.0000 </r>
       <r>   -15.4598     0.0000     8.0000 </r>
       <r>   -15.3665     0.0000     8.0000 </r>
       <r>   -15.2732     0.0000     8.0000 </r>
       <r>   -15.1800     0.0000     8.0000 </r>
       <r>   -15.0867     0.0000     8.0000 </r>
       <r>   -14.9935     0.0000     8.0000 </r>
       <r>   -14.9002     0.0000     8.0000 </r>
       <r>   -14.8069     0.0000     8.0000 </r>
       <r>   -14.7137    -0.0000     8.0000 </r>
       <r>   -14.6204    -0.0000     8.0000 </r>
       <r>   -14.5272    -0.0000     8.0000 </r>
       <r>   -14.4339    -0.0000     8.0000 </r>
       <r>   -14.3406    -0.0000     8.0000 </r>
       <r>   -14.2474    -0.0002     8.0000 </r>
       <r>   -14.1541    -0.0353     7.9967 </r>
       <r>   -14.0609    -0.5714     7.9434 </r>
       <r>   -13.9676     2.7620     8.2010 </r>
       <r>   -13.8743    14.0501     9.5113 </r>
       <r>   -13.7811     6.0500    10.0755 </r>
       <r>   -13.6878    28.0344    12.6900 </r>
       <r>   -13.5946    60.8451    18.3645 </r>
       <r>   -13.5013    53.6408    23.3671 </r>
       <r>   -13.4080     8.7746    24.1854 </r>
       <r>   -13.3148    -1.8329    24.0145 </r>
       <r>   -13.2215    -0.1534    24.0001 </r>
       <r>   -13.1283    -0.0015    24.0000 </r>
       <r>   -13.0350    -0.0000    24.0000 </r>
       <r>   -12.9417    -0.0000    24.0000 </r>
       <r>   -12.8485    -0.0000    24.0000 </r>
       <r>   -12.7552     0.0000    24.0000 </r>
       <r>   -12.6619     0.0000    24.0000 </r>
       <r>   -12.5687     0.0000    24.0000 </r>
       <r>   -12.4754     0.0000    24.0000 </r>
       <r>   -12.3822     0.0000    24.0000 </r>
       <r>   -12.2889     0.0000    24.0000 </r>
       <r>   -12.1956     0.0000    24.0000 </r>
       <r>   -12.1024     0.0000    24.0000 </r>
       <r>   -12.0091     0.0000    24.0000 </r>
       <r>   -11.9159     0.0000    24.0000 </r>
       <r>   -11.8226     0.0000    24.0000 </r>
       <r>   -11.7293     0.0000    24.0000 </r>
       <r>   -11.6361     0.0000    24.0000 </r>
       <r>   -11.5428     0.0000    24.0000 </r>
       <r>   -11.4496     0.0000    24.0000 </r>
       <r>   -11.3563     0.0000    24.0000 </r>
       <r>   -11.2630     0.0000    24.0000 </r>
       <r>   -11.1698     0.0000    24.0000 </r>
       <r>   -11.0765    -0.0000    24.0000 </r>
       <r>   -10.9833    -0.0000    24.0000 </r>
       <r>   -10.8900    -0.0000    24.0000 </r>
       <r>   -10.7967    -0.0000    24.0000 </r>
       <r>   -10.7035    -0.0000    24.0000 </r>
       <r>   -10.6102    -0.0000    24.0000 </r>
       <r>   -10.5170    -0.0005    23.9999 </r>
       <r>   -10.4237    -0.0706    23.9934 </r>
       <r>   -10.3304    -1.1328    23.8877 </r>
       <r>   -10.2372     4.2091    24.2803 </r>
       <r>   -10.1439    32.6671    27.3268 </r>
       <r>   -10.0507    39.2198    30.9845 </r>
       <r>    -9.9574    49.1208    35.5655 </r>
       <r>    -9.8641    26.3179    38.0199 </r>
       <r>    -9.7709     5.0675    38.4925 </r>
       <r>    -9.6776    14.1639    39.8135 </r>
       <r>    -9.5843     2.5915    40.0551 </r>
       <r>    -9.4911    -0.5582    40.0031 </r>
       <r>    -9.3978    -0.0329    40.0000 </r>
       <r>    -9.3046    -0.0002    40.0000 </r>
       <r>    -9.2113    -0.0000    40.0000 </r>
       <r>    -9.1180    -0.0000    40.0000 </r>
       <r>    -9.0248    -0.0000    40.0000 </r>
       <r>    -8.9315    -0.0000    40.0000 </r>
       <r>    -8.8383    -0.0003    40.0000 </r>
       <r>    -8.7450    -0.0422    39.9960 </r>
       <r>    -8.6517    -0.6031    39.9398 </r>
       <r>    -8.5585     3.3127    40.2487 </r>
       <r>    -8.4652    15.0161    41.6491 </r>
       <r>    -8.3720     4.4754    42.0665 </r>
       <r>    -8.2787    -0.7151    41.9998 </r>
       <r>    -8.1854    -0.9590    41.9104 </r>
       <r>    -8.0922     4.1393    42.2964 </r>
       <r>    -7.9989    26.1436    44.7346 </r>
       <r>    -7.9057    14.5451    46.0911 </r>
       <r>    -7.8124    -1.3358    45.9665 </r>
       <r>    -7.7191     3.2627    46.2708 </r>
       <r>    -7.6259    15.0375    47.6732 </r>
       <r>    -7.5326     4.2049    48.0653 </r>
       <r>    -7.4394    -0.6442    48.0052 </r>
       <r>    -7.3461    -0.0558    48.0000 </r>
       <r>    -7.2528    -0.0005    48.0000 </r>
       <r>    -7.1596    -0.0000    48.0000 </r>
       <r>    -7.0663    -0.0008    47.9999 </r>
       <r>    -6.9731    -0.0762    47.9928 </r>
       <r>    -6.8798    -0.6689    47.9304 </r>
       <r>    -6.7865     5.3407    48.4285 </r>
       <r>    -6.6933    14.4477    49.7759 </r>
       <r>    -6.6000     3.3889    50.0920 </r>
       <r>    -6.5067    12.6177    51.2687 </r>
       <r>    -6.4135     7.6867    51.9856 </r>
       <r>    -6.3202     3.8201    52.3418 </r>
       <r>    -6.2270    21.0162    54.3018 </r>
       <r>    -6.1337    46.6770    58.6549 </r>
       <r>    -6.0404    41.5478    62.5297 </r>
       <r>    -5.9472    15.6295    63.9873 </r>
       <r>    -5.8539     9.2706    64.8519 </r>
       <r>    -5.7607    37.4078    68.3406 </r>
       <r>    -5.6674    18.5660    70.0721 </r>
       <r>    -5.5741    -0.3479    70.0396 </r>
       <r>    -5.4809    -1.3381    69.9148 </r>
       <r>    -5.3876     1.2946    70.0356 </r>
       <r>    -5.2944    32.6089    73.0767 </r>
       <r>    -5.2011    46.2347    77.3886 </r>
       <r>    -5.1078     8.6069    78.1913 </r>
       <r>    -5.0146    11.5471    79.2681 </r>
       <r>    -4.9213     8.5328    80.0639 </r>
       <r>    -4.8281    -0.5240    80.0151 </r>
       <r>    -4.7348    -0.1588    80.0002 </r>
       <r>    -4.6415    -0.0026    80.0000 </r>
       <r>    -4.5483    -0.0054    79.9995 </r>
       <r>    -4.4550    -0.2415    79.9770 </r>
       <r>    -4.3618    -0.2320    79.9553 </r>
       <r>    -4.2685    10.0586    80.8934 </r>
       <r>    -4.1752    15.2378    82.3145 </r>
       <r>    -4.0820    21.6327    84.3320 </r>
       <r>    -3.9887    30.2059    87.1490 </r>
       <r>    -3.8955     9.5966    88.0440 </r>
       <r>    -3.8022     2.0033    88.2308 </r>
       <r>    -3.7089    20.8193    90.1724 </r>
       <r>    -3.6157    32.7849    93.2300 </r>
       <r>    -3.5224    17.6249    94.8737 </r>
       <r>    -3.4291    10.0112    95.8073 </r>
       <r>    -3.3359    10.2645    96.7646 </r>
       <r>    -3.2426    43.8436   100.8535 </r>
       <r>    -3.1494    14.2654   102.1839 </r>
       <r>    -3.0561     9.9644   103.1132 </r>
       <r>    -2.9628    10.0236   104.0480 </r>
       <r>    -2.8696    -0.2951   104.0205 </r>
       <r>    -2.7763    -0.2149   104.0004 </r>
       <r>    -2.6831    -0.0044   104.0000 </r>
       <r>    -2.5898    -0.0000   104.0000 </r>
       <r>    -2.4965    -0.0000   104.0000 </r>
       <r>    -2.4033    -0.0000   104.0000 </r>
       <r>    -2.3100    -0.0003   104.0000 </r>
       <r>    -2.2168    -0.0479   103.9955 </r>
       <r>    -2.1235    -0.9294   103.9088 </r>
       <r>    -2.0302     3.4010   104.2260 </r>
       <r>    -1.9370    26.9980   106.7439 </r>
       <r>    -1.8437    17.3069   108.3579 </r>
       <r>    -1.7505    20.4743   110.2674 </r>
       <r>    -1.6572    17.6682   111.9151 </r>
       <r>    -1.5639     1.0161   112.0099 </r>
       <r>    -1.4707    11.8137   113.1116 </r>
       <r>    -1.3774    22.0348   115.1666 </r>
       <r>    -1.2842    22.8491   117.2975 </r>
       <r>    -1.1909    25.5826   119.6834 </r>
       <r>    -1.0976     4.3856   120.0924 </r>
       <r>    -1.0044    -0.9211   120.0065 </r>
       <r>    -0.9111    -0.0689   120.0001 </r>
       <r>    -0.8179    -0.0006   120.0000 </r>
       <r>    -0.7246    -0.0000   120.0000 </r>
       <r>    -0.6313    -0.0000   120.0000 </r>
       <r>    -0.5381    -0.0000   120.0000 </r>
       <r>    -0.4448     0.0000   120.0000 </r>
       <r>    -0.3515     0.0000   120.0000 </r>
       <r>    -0.2583     0.0000   120.0000 </r>
       <r>    -0.1650     0.0000   120.0000 </r>
       <r>    -0.0718     0.0000   120.0000 </r>
       <r>     0.0215     0.0000   120.0000 </r>
       <r>     0.1148     0.0000   120.0000 </r>
       <r>     0.2080     0.0000   120.0000 </r>
       <r>     0.3013     0.0000   120.0000 </r>
       <r>     0.3945     0.0000   120.0000 </r>
       <r>     0.4878     0.0000   120.0000 </r>
       <r>     0.5811     0.0000   120.0000 </r>
       <r>     0.6743     0.0000   120.0000 </r>
       <r>     0.7676     0.0000   120.0000 </r>
       <r>     0.8608     0.0000   120.0000 </r>
       <r>     0.9541     0.0000   120.0000 </r>
       <r>     1.0474     0.0000   120.0000 </r>
       <r>     1.1406     0.0000   120.0000 </r>
       <r>     1.2339     0.0000   120.0000 </r>
       <r>     1.3271     0.0000   120.0000 </r>
       <r>     1.4204     0.0000   120.0000 </r>
       <r>     1.5137     0.0000   120.0000 </r>
       <r>     1.6069     0.0000   120.0000 </r>
       <r>     1.7002     0.0000   120.0000 </r>
       <r>     1.7934     0.0000   120.0000 </r>
       <r>     1.8867     0.0000   120.0000 </r>
       <r>     1.9800     0.0000   120.0000 </r>
       <r>     2.0732     0.0000   120.0000 </r>
       <r>     2.1665     0.0000   120.0000 </r>
       <r>     2.2597     0.0000   120.0000 </r>
       <r>     2.3530    -0.0000   120.0000 </r>
       <r>     2.4463    -0.0000   120.0000 </r>
       <r>     2.5395    -0.0000   120.0000 </r>
       <r>     2.6328    -0.0000   120.0000 </r>
       <r>     2.7261    -0.0000   120.0000 </r>
       <r>     2.8193    -0.0000   120.0000 </r>
       <r>     2.9126    -0.0074   119.9993 </r>
       <r>     3.0058    -0.3486   119.9668 </r>
       <r>     3.0991    -0.8482   119.8877 </r>
       <r>     3.1924    16.3737   121.4147 </r>
       <r>     3.2856    33.9957   124.5852 </r>
       <r>     3.3789    14.3983   125.9280 </r>
       <r>     3.4721     9.3756   126.8023 </r>
       <r>     3.5654    32.0903   129.7951 </r>
       <r>     3.6587    22.0647   131.8529 </r>
       <r>     3.7519     4.6911   132.2904 </r>
       <r>     3.8452    13.9610   133.5924 </r>
       <r>     3.9384    14.4234   134.9375 </r>
       <r>     4.0317    11.5193   136.0118 </r>
       <r>     4.1250     0.1931   136.0298 </r>
       <r>     4.2182    -0.3110   136.0008 </r>
       <r>     4.3115    -0.0214   135.9988 </r>
       <r>     4.4047    -0.3743   135.9639 </r>
       <r>     4.4980     0.7199   136.0310 </r>
       <r>     4.5913    13.1415   137.2566 </r>
       <r>     4.6845     8.6554   138.0638 </r>
       <r>     4.7778    -0.5232   138.0150 </r>
       <r>     4.8710    -0.1586   138.0002 </r>
       <r>     4.9643    -0.0026   138.0000 </r>
       <r>     5.0576    -0.0000   138.0000 </r>
       <r>     5.1508    -0.0000   138.0000 </r>
       <r>     5.2441    -0.0000   138.0000 </r>
       <r>     5.3373    -0.0000   138.0000 </r>
       <r>     5.4306    -0.0021   137.9998 </r>
       <r>     5.5239    -0.1390   137.9868 </r>
       <r>     5.6171    -0.5888   137.9319 </r>
       <r>     5.7104     7.7498   138.6547 </r>
       <r>     5.8037    13.4844   139.9123 </r>
       <r>     5.8969    12.0951   141.0403 </r>
       <r>     5.9902    10.6646   142.0348 </r>
       <r>     6.0834    -0.1153   142.0241 </r>
       <r>     6.1767    -0.2524   142.0006 </r>
       <r>     6.2700    -0.0059   142.0000 </r>
       <r>     6.3632    -0.0008   141.9999 </r>
       <r>     6.4565    -0.0978   141.9908 </r>
       <r>     6.5497    -1.3328   141.8665 </r>
       <r>     6.6430     6.5470   142.4771 </r>
       <r>     6.7363    35.5005   145.7879 </r>
       <r>     6.8295    33.5717   148.9188 </r>
       <r>     6.9228    11.8150   150.0207 </r>
       <r>     7.0160     5.6619   150.5487 </r>
       <r>     7.1093    12.3148   151.6972 </r>
       <r>     7.2026    15.7208   153.1633 </r>
       <r>     7.2958    52.2805   158.0390 </r>
       <r>     7.3891    27.0641   160.5630 </r>
       <r>     7.4823    13.0977   161.7845 </r>
       <r>     7.5756     2.8749   162.0527 </r>
       <r>     7.6689    -1.2801   161.9333 </r>
       <r>     7.7621     6.0286   162.4955 </r>
       <r>     7.8554    14.2461   163.8241 </r>
       <r>     7.9486     0.7817   163.8970 </r>
       <r>     8.0419    17.3178   165.5121 </r>
       <r>     8.1352    38.4128   169.0945 </r>
       <r>     8.2284    11.0681   170.1267 </r>
       <r>     8.3217    -1.1781   170.0168 </r>
       <r>     8.4149    -0.8393   169.9386 </r>
       <r>     8.5082     2.6726   170.1878 </r>
       <r>     8.6015    16.9288   171.7666 </r>
       <r>     8.6947    18.4893   173.4909 </r>
       <r>     8.7880    11.2245   174.5377 </r>
       <r>     8.8813    13.9960   175.8430 </r>
       <r>     8.9745     2.2524   176.0531 </r>
       <r>     9.0678    -0.5391   176.0028 </r>
       <r>     9.1610    -0.0296   176.0000 </r>
       <r>     9.2543    -0.0002   176.0000 </r>
       <r>     9.3476    -0.0000   176.0000 </r>
       <r>     9.4408    -0.0000   176.0000 </r>
       <r>     9.5341     0.0000   176.0000 </r>
       <r>     9.6273     0.0000   176.0000 </r>
       <r>     9.7206     0.0000   176.0000 </r>
       <r>     9.8139     0.0000   176.0000 </r>
       <r>     9.9071     0.0000   176.0000 </r>
       <r>    10.0004     0.0000   176.0000 </r>
       <r>    10.0936     0.0000   176.0000 </r>
      </set>
     </set>
    </array>
   </total>
  </dos>
 </calculation>
 <structure name="finalpos" >
  <crystal>
   <varray name="basis" >
    <v>       7.25559592       0.00000000       0.00000000 </v>
    <v>       0.00000000       9.24434934       0.00000000 </v>
    <v>       0.00000000       0.00000000       6.60944836 </v>
   </varray>
   <i name="volume">    443.31727092 </i>
   <varray name="rec_basis" >
    <v>       0.13782465       0.00000000       0.00000000 </v>
    <v>       0.00000000       0.10817419       0.00000000 </v>
    <v>       0.00000000       0.00000000       0.15129856 </v>
   </varray>
  </crystal>
  <varray name="positions" >
   <v>       0.93927661       0.14334397       0.00637933 </v>
   <v>       0.06072337       0.85665603      -0.00637930 </v>
   <v>       0.56072339       0.85665603       0.50637930 </v>
   <v>       0.43927664       0.14334397       0.49362067 </v>
   <v>       0.06072337       0.64334397       0.49362067 </v>
   <v>       0.93927661       0.35665603       0.50637930 </v>
   <v>       0.43927664       0.35665603      -0.00637930 </v>
   <v>       0.56072339       0.64334397       0.00637933 </v>
   <v>       0.07756721       0.09705356       0.13769618 </v>
   <v>       0.92243280       0.90294642       0.86230379 </v>
   <v>       0.42243280       0.90294642       0.63769621 </v>
   <v>       0.57756720       0.09705356       0.36230382 </v>
   <v>       0.92243280       0.59705358       0.36230382 </v>
   <v>       0.07756721       0.40294645       0.63769621 </v>
   <v>       0.57756720       0.40294645       0.86230379 </v>
   <v>       0.42243280       0.59705358       0.13769618 </v>
   <v>       0.86195261       0.04629338       0.86802656 </v>
   <v>       0.13804739       0.95370660       0.13197344 </v>
   <v>       0.63804739       0.95370660       0.36802656 </v>
   <v>       0.36195261       0.04629338       0.63197344 </v>
   <v>       0.13804739       0.54629340       0.63197344 </v>
   <v>       0.86195261       0.45370663       0.36802656 </v>
   <v>       0.36195261       0.45370663       0.13197344 </v>
   <v>       0.63804739       0.54629340       0.86802656 </v>
   <v>       0.89228462       0.25555814       0.01031541 </v>
   <v>       0.10771537       0.74444188      -0.01031538 </v>
   <v>       0.60771538       0.74444188       0.51031538 </v>
   <v>       0.39228462       0.25555814       0.48968459 </v>
   <v>       0.10771537       0.75555812       0.48968459 </v>
   <v>       0.89228462       0.24444188       0.51031538 </v>
   <v>       0.39228462       0.24444188      -0.01031538 </v>
   <v>       0.60771538       0.75555812       0.01031541 </v>
   <v>       0.13760759       0.17190866       0.24625175 </v>
   <v>       0.86239240       0.82809133       0.75374823 </v>
   <v>       0.36239240       0.82809133       0.74625177 </v>
   <v>       0.63760760       0.17190866       0.25374823 </v>
   <v>       0.86239240       0.67190867       0.25374823 </v>
   <v>       0.13760759       0.32809133       0.74625177 </v>
   <v>       0.63760760       0.32809133       0.75374823 </v>
   <v>       0.36239240       0.67190867       0.24625175 </v>
   <v>       0.75273070       0.08142095       0.76501836 </v>
   <v>       0.24726929       0.91857907       0.23498166 </v>
   <v>       0.74726930       0.91857907       0.26501836 </v>
   <v>       0.25273070       0.08142095       0.73498164 </v>
   <v>       0.24726929       0.58142093       0.73498164 </v>
   <v>       0.75273070       0.41857907       0.26501836 </v>
   <v>       0.25273070       0.41857907       0.23498166 </v>
   <v>       0.74726930       0.58142093       0.76501836 </v>
  </varray>
 </structure>
</modeling>
