benzene                                 
           1
     7.305636    0.000000    0.000000
     0.000000    9.308105    0.000000
     0.000000    0.000000    6.655032
   C    H 
  24  24
Direct configuration=     1
   0.94599998  0.13760001  0.99980003
   0.05400000  0.86239999  0.00020000
   0.55400002  0.86239999  0.49980000
   0.44600001  0.13760001  0.50019997
   0.05400000  0.63760001  0.50019997
   0.94599998  0.36239999  0.49980000
   0.44600001  0.36239999  0.00020000
   0.55400002  0.63760001  0.99980003
   0.07680000  0.09030000  0.13240001
   0.92320001  0.90969998  0.86759996
   0.42320001  0.90969998  0.63240004
   0.57679999  0.09030000  0.36759999
   0.92320001  0.59030002  0.36759999
   0.07680000  0.40970001  0.63240004
   0.57679999  0.40970001  0.86759996
   0.42320001  0.59030002  0.13240001
   0.87000001  0.04540000  0.87180000
   0.12999999  0.95459998  0.12820000
   0.62999999  0.95459998  0.37180000
   0.37000001  0.04540000  0.62820000
   0.12999999  0.54540002  0.62820000
   0.87000001  0.45460001  0.37180000
   0.37000001  0.45460001  0.12820000
   0.62999999  0.54540002  0.87180000
   0.91119999  0.23160000  0.99910003
   0.08880000  0.76840001  0.00090000
   0.58880001  0.76840001  0.49910000
   0.41119999  0.23160000  0.50089997
   0.08880000  0.73159999  0.50089997
   0.91119999  0.26840001  0.49910000
   0.41119999  0.26840001  0.00090000
   0.58880001  0.73159999  0.99910003
   0.12650000  0.15199999  0.22240000
   0.87349999  0.84799999  0.77759999
   0.37349999  0.84799999  0.72240001
   0.62650001  0.15199999  0.27759999
   0.87349999  0.65200001  0.27759999
   0.12650000  0.34799999  0.72240001
   0.62650001  0.34799999  0.77759999
   0.37349999  0.65200001  0.22240000
   0.78079999  0.07640000  0.78670001
   0.21920000  0.92360002  0.21330001
   0.71920001  0.92360002  0.28670001
   0.28079999  0.07640000  0.71329999
   0.21920000  0.57639998  0.71329999
   0.78079999  0.42360002  0.28670001
   0.28079999  0.42360002  0.21330001
   0.71920001  0.57639998  0.78670001
Direct configuration=     2
   0.96737142  0.10241451  0.01098693
   0.03262856  0.89758549 -0.01098691
   0.53262858  0.89758549  0.51098690
   0.46737145  0.10241451  0.48901307
   0.03262856  0.60241451  0.48901307
   0.96737142  0.39758549  0.51098690
   0.46737145  0.39758549 -0.01098691
   0.53262858  0.60241451  0.01098693
   0.04827528  0.07452922  0.08907979
   0.95172474  0.92547075  0.91092018
   0.45172474  0.92547075  0.58907982
   0.54827526  0.07452922  0.41092021
   0.95172474  0.57452925  0.41092021
   0.04827528  0.42547078  0.58907982
   0.54827526  0.42547078  0.91092018
   0.45172474  0.57452925  0.08907979
   0.90029189  0.03751518  0.90073396
   0.09970811  0.96248479  0.09926604
   0.59970811  0.96248479  0.40073396
   0.40029189  0.03751518  0.59926604
   0.09970811  0.53751521  0.59926604
   0.90029189  0.46248482  0.40073396
   0.40029189  0.46248482  0.09926604
   0.59970811  0.53751521  0.90073396
   0.89224311  0.28276205  0.99978904
   0.10775687  0.71723797  0.00021099
   0.60775689  0.71723797  0.49978901
   0.39224311  0.28276205  0.50021096
   0.10775687  0.78276203  0.50021096
   0.89224311  0.21723797  0.49978901
   0.39224311  0.21723797  0.00021099
   0.60775689  0.78276203  0.99978904
   0.15508295  0.18770682  0.27336168
   0.84491703  0.81229317  0.72663831
   0.34491703  0.81229317  0.77336169
   0.65508297  0.18770682  0.22663831
   0.84491703  0.68770683  0.22663831
   0.15508295  0.31229317  0.77336169
   0.65508297  0.31229317  0.72663831
   0.34491703  0.68770683  0.27336168
   0.73204599  0.09332652  0.73925076
   0.26795399  0.90667350  0.26074926
   0.76795401  0.90667350  0.23925076
   0.23204599  0.09332652  0.76074924
   0.26795399  0.59332650  0.76074924
   0.73204599  0.40667350  0.23925076
   0.23204599  0.40667350  0.26074926
   0.76795401  0.59332650  0.73925076
Direct configuration=     3
   0.95052883  0.13014379  0.00217066
   0.04947115  0.86985621 -0.00217063
   0.54947117  0.86985621  0.50217063
   0.45052886  0.13014379  0.49782934
   0.04947115  0.63014379  0.49782934
   0.95052883  0.36985621  0.50217063
   0.45052886  0.36985621 -0.00217063
   0.54947117  0.63014379  0.00217066
   0.07075528  0.08695799  0.12321995
   0.92924473  0.91304199  0.87678002
   0.42924473  0.91304199  0.62321998
   0.57075527  0.08695799  0.37678005
   0.92924473  0.58695801  0.37678005
   0.07075528  0.41304202  0.62321998
   0.57075527  0.41304202  0.87678002
   0.42924473  0.58695801  0.12321995
   0.87641921  0.04372912  0.87793144
   0.12358079  0.95627086  0.12206856
   0.62358079  0.95627086  0.37793144
   0.37641921  0.04372912  0.62206856
   0.12358079  0.54372914  0.62206856
   0.87641921  0.45627089  0.37793144
   0.37641921  0.45627089  0.12206856
   0.62358079  0.54372914  0.87793144
   0.90718281  0.24244183  0.99924604
   0.09281718  0.75755818  0.00075399
   0.59281719  0.75755818  0.49924601
   0.40718281  0.24244183  0.50075396
   0.09281718  0.74244182  0.50075396
   0.90718281  0.25755818  0.49924601
   0.40718281  0.25755818  0.00075399
   0.59281719  0.74244182  0.99924604
   0.13255705  0.15956668  0.23319936
   0.86744293  0.84043330  0.76680062
   0.36744293  0.84043330  0.73319938
   0.63255707  0.15956668  0.26680062
   0.86744293  0.65956670  0.26680062
   0.13255705  0.34043330  0.73319938
   0.63255707  0.34043330  0.76680062
   0.36744293  0.65956670  0.23319936
   0.77046845  0.07998692  0.77664497
   0.22953153  0.92001309  0.22335505
   0.72953155  0.92001309  0.27664497
   0.27046845  0.07998692  0.72335503
   0.22953153  0.57998691  0.72335503
   0.77046845  0.42001309  0.27664497
   0.27046845  0.42001309  0.22335505
   0.72953155  0.57998691  0.77664497
Direct configuration=     4
   0.94929059  0.13218242  0.00152250
   0.05070940  0.86781758 -0.00152247
   0.55070941  0.86781758  0.50152247
   0.44929062  0.13218242  0.49847750
   0.05070940  0.63218242  0.49847750
   0.94929059  0.36781758  0.50152247
   0.44929062  0.36781758 -0.00152247
   0.55070941  0.63218242  0.00152250
   0.07240799  0.08787174  0.12572990
   0.92759202  0.91212824  0.87427007
   0.42759202  0.91212824  0.62572993
   0.57240798  0.08787174  0.37427010
   0.92759202  0.58787176  0.37427010
   0.07240799  0.41212827  0.62572993
   0.57240798  0.41212827  0.87427007
   0.42759202  0.58787176  0.12572990
   0.87466411  0.04418596  0.87625503
   0.12533589  0.95581402  0.12374497
   0.62533589  0.95581402  0.37625503
   0.37466411  0.04418596  0.62374497
   0.12533589  0.54418598  0.62374497
   0.87466411  0.45581405  0.37625503
   0.37466411  0.45581405  0.12374497
   0.62533589  0.54418598  0.87625503
   0.90828116  0.23947753  0.99920612
   0.09171883  0.76052248  0.00079391
   0.59171884  0.76052248  0.49920609
   0.40828116  0.23947753  0.50079388
   0.09171883  0.73947752  0.50079388
   0.90828116  0.26052248  0.49920609
   0.40828116  0.26052248  0.00079391
   0.59171884  0.73947752  0.99920612
   0.13090097  0.15749785  0.23024667
   0.86909901  0.84250213  0.76975331
   0.36909901  0.84250213  0.73024669
   0.63090099  0.15749785  0.26975331
   0.86909901  0.65749787  0.26975331
   0.13090097  0.34250213  0.73024669
   0.63090099  0.34250213  0.76975331
   0.36909901  0.65749787  0.23024667
   0.77329323  0.07900621  0.77939415
   0.22670676  0.92099381  0.22060587
   0.72670677  0.92099381  0.27939415
   0.27329323  0.07900621  0.72060585
   0.22670676  0.57900619  0.72060585
   0.77329323  0.42099381  0.27939415
   0.27329323  0.42099381  0.22060587
   0.72670677  0.57900619  0.77939415
Direct configuration=     5
   0.94893485  0.13276809  0.00133629
   0.05106513  0.86723191 -0.00133626
   0.55106515  0.86723191  0.50133626
   0.44893488  0.13276809  0.49866371
   0.05106513  0.63276809  0.49866371
   0.94893485  0.36723191  0.50133626
   0.44893488  0.36723191 -0.00133626
   0.55106515  0.63276809  0.00133629
   0.07288280  0.08813425  0.12645098
   0.92711722  0.91186573  0.87354899
   0.42711722  0.91186573  0.62645101
   0.57288278  0.08813425  0.37354902
   0.92711722  0.58813427  0.37354902
   0.07288280  0.41186576  0.62645101
   0.57288278  0.41186576  0.87354899
   0.42711722  0.58813427  0.12645098
   0.87415989  0.04431720  0.87577341
   0.12584011  0.95568277  0.12422659
   0.62584011  0.95568277  0.37577341
   0.37415989  0.04431720  0.62422659
   0.12584011  0.54431723  0.62422659
   0.87415989  0.45568280  0.37577341
   0.37415989  0.45568280  0.12422659
   0.62584011  0.54431723  0.87577341
   0.90859670  0.23862592  0.99919465
   0.09140328  0.76137409  0.00080538
   0.59140330  0.76137409  0.49919462
   0.40859670  0.23862592  0.50080535
   0.09140328  0.73862591  0.50080535
   0.90859670  0.26137409  0.49919462
   0.40859670  0.26137409  0.00080538
   0.59140330  0.73862591  0.99919465
   0.13042520  0.15690350  0.22939840
   0.86957478  0.84309649  0.77060159
   0.36957478  0.84309649  0.72939841
   0.63042522  0.15690350  0.27060159
   0.86957478  0.65690351  0.27060159
   0.13042520  0.34309649  0.72939841
   0.63042522  0.34309649  0.77060159
   0.36957478  0.65690351  0.22939840
   0.77410476  0.07872446  0.78018396
   0.22589523  0.92127555  0.21981606
   0.72589524  0.92127555  0.28018396
   0.27410476  0.07872446  0.71981604
   0.22589523  0.57872445  0.71981604
   0.77410476  0.42127555  0.28018396
   0.27410476  0.42127555  0.21981606
   0.72589524  0.57872445  0.78018396
