   32   32    1    1
  0.7533559E+01  0.4934311E-09  0.4934311E-09  0.1143376E-08  0.5000000E-15
  1.000000000000000E-004
  CAR 
 graphite                                
    128    163     84
 
  0.0000000E+00  0.0000000E+00  0.0000000E+00  0.3086420E-02
    1      -13.719644
    2      -13.297685
    3      -13.296491
    4      -12.791638
    5       -8.268203
    6       -8.265274
    7       -8.262354
    8       -8.039107
    9       -8.034727
   10       -8.034285
   11       -8.033924
   12       -8.033713
   13       -8.029186
   14       -7.923046
   15       -7.921649
   16       -7.920490
   17       -7.009718
   18       -7.008175
   19       -7.007816
   20       -6.991787
   21       -6.989153
   22       -6.987911
   23       -6.987627
   24       -6.987583
   25       -6.983848
   26       -6.769390
   27       -6.767409
   28       -6.765041
   29       -3.155620
   30       -1.343947
   31       -1.341020
   32       -0.249499
   33       -0.246854
   34       -0.245747
   35       -0.137677
   36       -0.134852
   37       -0.134807
   38       -0.133428
   39       -0.131662
   40       -0.130041
   41       -0.019301
   42       -0.016646
   43       -0.015418
   44        0.954262
   45        2.806664
   46        2.808857
   47        2.811167
   48        3.199696
   49        3.203821
   50        3.240257
   51        3.242980
   52        3.247796
   53        3.250738
   54        3.286998
   55        3.291188
   56        3.855210
   57        3.858967
   58        3.859337
   59        3.859483
   60        3.859995
   61        3.863779
   62        4.185559
   63        4.186793
   64        4.187377
   65        7.827420
   66        7.834523
   67        7.836227
   68        7.836387
   69        7.837057
   70        7.844204
   71        8.081708
   72        8.082749
   73        8.082986
   74        8.995598
   75        8.998196
   76        9.000537
   77       12.469267
   78       13.027556
   79       13.031745
   80       13.034883
   81       13.573073
   82       13.575427
   83       13.577374
   84       13.578532
 
  0.1111111E+00  0.1387779E-16  0.0000000E+00  0.6172840E-02
    1      -13.644988
    2      -13.224356
    3      -13.223166
    4      -12.720383
    5       -9.116080
    6       -8.791517
    7       -8.790561
    8       -8.550300
    9       -8.547474
   10       -8.428290
   11       -8.259843
   12       -8.257064
   13       -8.256358
   14       -8.254287
   15       -7.970751
   16       -7.968070
   17       -6.846231
   18       -6.844881
   19       -6.646681
   20       -6.645985
   21       -6.644972
   22       -6.642384
   23       -6.379797
   24       -6.359257
   25       -6.357408
   26       -6.124284
   27       -6.122037
   28       -5.821633
   29       -3.065222
   30       -1.257935
   31       -1.255014
   32       -0.483466
   33       -0.480578
   34       -0.362461
   35       -0.360208
   36       -0.357739
   37       -0.357112
   38       -0.233318
   39       -0.230436
   40       -0.173930
   41       -0.062537
   42       -0.059489
   43        0.055003
   44        1.033958
   45        2.146803
   46        2.665181
   47        2.667764
   48        2.887102
   49        2.941463
   50        2.947463
   51        3.001908
   52        3.037326
   53        3.087647
   54        3.093921
   55        3.144538
   56        3.437760
   57        3.440535
   58        3.804219
   59        3.808177
   60        3.808586
   61        3.809883
   62        4.356964
   63        4.358522
   64        4.433284
   65        7.961920
   66        7.964824
   67        7.966070
   68        7.972352
   69        8.028474
   70        8.029443
   71        8.048167
   72        8.365598
   73        8.371745
   74        9.135987
   75        9.138743
   76        9.666474
   77       12.546419
   78       13.076810
   79       13.369647
   80       13.375394
   81       13.618142
   82       13.622346
   83       13.908288
   84       13.913620
 
  0.2222222E+00  0.1387779E-16  0.0000000E+00  0.6172840E-02
    1      -13.421296
    2      -13.004829
    3      -13.003650
    4      -12.506970
    5      -10.146871
    6       -9.793922
    7       -9.792913
    8       -9.386404
    9       -8.915688
   10       -8.913408
   11       -8.596520
   12       -8.594349
   13       -8.593801
   14       -8.591833
   15       -8.238880
   16       -8.236525
   17       -6.204650
   18       -6.202930
   19       -5.956161
   20       -5.955416
   21       -5.954254
   22       -5.951963
   23       -5.663098
   24       -5.661176
   25       -5.050568
   26       -4.800885
   27       -4.798738
   28       -4.519776
   29       -2.794818
   30       -1.107948
   31       -1.105303
   32       -1.001171
   33       -0.998273
   34       -0.966206
   35       -0.964024
   36       -0.961907
   37       -0.961120
   38       -0.811608
   39       -0.808946
   40        0.042166
   41        0.151636
   42        0.154773
   43        0.267635
   44        1.058813
   45        1.271530
   46        2.035869
   47        2.121079
   48        2.126306
   49        2.212933
   50        2.399513
   51        2.401741
   52        2.558472
   53        2.560994
   54        2.603634
   55        2.671791
   56        2.677476
   57        2.746675
   58        3.684329
   59        3.688461
   60        3.689115
   61        3.690342
   62        4.216724
   63        4.685391
   64        4.687343
   65        7.994092
   66        7.995454
   67        8.291985
   68        8.294430
   69        8.295556
   70        8.301674
   71        8.802571
   72        9.402095
   73        9.404963
   74        9.573476
   75        9.578538
   76       10.859672
   77       12.779665
   78       13.211941
   79       13.743133
   80       13.744987
   81       14.283684
   82       14.313799
   83       14.340847
   84       14.496363
 
  0.3333333E+00  0.8326673E-16  0.0000000E+00  0.6172840E-02
    1      -13.049812
    2      -12.640179
    3      -12.639019
    4      -12.152322
    5      -11.073976
    6      -10.701729
    7      -10.700667
    8      -10.267041
    9       -9.179832
   10       -9.177777
   11       -8.849833
   12       -8.847848
   13       -8.847471
   14       -8.845483
   15       -8.473043
   16       -8.470909
   17       -5.388791
   18       -5.386796
   19       -5.151233
   20       -5.150430
   21       -5.149273
   22       -5.146653
   23       -4.885223
   24       -4.883064
   25       -3.597375
   26       -3.374009
   27       -3.371614
   28       -3.126319
   29       -2.346514
   30       -1.936938
   31       -1.934653
   32       -1.780292
   33       -1.777871
   34       -1.776478
   35       -1.775331
   36       -1.601498
   37       -1.599129
   38       -0.577075
   39       -0.574176
   40        0.000761
   41        0.393195
   42        0.499643
   43        0.502971
   44        0.612513
   45        0.821867
   46        0.944265
   47        0.948476
   48        1.072777
   49        1.615689
   50        1.618150
   51        1.661551
   52        2.028955
   53        2.112212
   54        2.116480
   55        2.174751
   56        2.177000
   57        2.202986
   58        3.561047
   59        3.564698
   60        3.565885
   61        3.566642
   62        3.568578
   63        4.953960
   64        4.956322
   65        8.084995
   66        8.087251
   67        8.677193
   68        8.678885
   69        8.679810
   70        8.685298
   71        9.611255
   72        9.614134
   73       10.212602
   74       11.029222
   75       11.033552
   76       12.183759
   77       13.165824
   78       13.424413
   79       13.945003
   80       13.947057
   81       14.321502
   82       14.373894
   83       14.406037
   84       14.411310
 
  0.4444444E+00  0.2775558E-16  0.0000000E+00  0.6172840E-02
    1      -12.532345
    2      -12.132287
    3      -12.131151
    4      -11.872036
    5      -11.658416
    6      -11.484297
    7      -11.483193
    8      -11.028202
    9       -9.315728
   10       -9.313764
   11       -8.981004
   12       -8.979056
   13       -8.978809
   14       -8.976781
   15       -8.597675
   16       -8.595633
   17       -4.602044
   18       -4.599810
   19       -4.418651
   20       -4.417718
   21       -4.417323
   22       -4.413230
   23       -4.240630
   24       -4.238253
   25       -2.651948
   26       -2.650259
   27       -2.542507
   28       -2.539286
   29       -2.538849
   30       -2.537417
   31       -2.377773
   32       -2.375864
   33       -2.092598
   34       -1.901551
   35       -1.898695
   36       -1.724922
   37       -1.690327
   38       -0.937586
   39       -0.593377
   40       -0.442338
   41       -0.438970
   42       -0.265788
   43        0.018417
   44        0.020826
   45        0.750604
   46        0.753199
   47        0.862996
   48        0.964495
   49        0.968106
   50        1.072533
   51        1.423764
   52        1.517932
   53        1.522203
   54        1.618628
   55        2.052456
   56        2.054852
   57        2.193073
   58        2.844224
   59        3.487760
   60        3.492053
   61        3.492893
   62        3.494311
   63        5.086640
   64        5.089285
   65        8.218279
   66        8.221258
   67        8.939612
   68        8.940306
   69        8.940764
   70        8.945993
   71        9.695667
   72        9.698435
   73       11.851300
   74       12.527863
   75       12.531720
   76       13.501119
   77       13.533353
   78       13.655615
   79       13.681416
   80       13.824026
   81       13.828562
   82       14.095577
   83       14.221097
   84       14.224395
 
 -0.8470329E-21  0.1111111E+00  0.0000000E+00  0.6172840E-02
    1      -13.644986
    2      -13.224354
    3      -13.223164
    4      -12.720380
    5       -9.116185
    6       -8.791658
    7       -8.790732
    8       -8.550274
    9       -8.547171
   10       -8.428503
   11       -8.259521
   12       -8.257058
   13       -8.256359
   14       -8.253699
   15       -7.970466
   16       -7.967770
   17       -6.847609
   18       -6.845153
   19       -6.649141
   20       -6.646520
   21       -6.644959
   22       -6.642258
   23       -6.378686
   24       -6.360554
   25       -6.357272
   26       -6.122421
   27       -6.121640
   28       -5.820565
   29       -3.065227
   30       -1.257941
   31       -1.255020
   32       -0.481868
   33       -0.480774
   34       -0.360417
   35       -0.360150
   36       -0.357211
   37       -0.356939
   38       -0.231713
   39       -0.230650
   40       -0.175261
   41       -0.062639
   42       -0.062232
   43        0.053502
   44        1.033949
   45        2.145884
   46        2.665582
   47        2.668701
   48        2.890389
   49        2.946933
   50        2.947466
   51        3.004034
   52        3.035211
   53        3.087646
   54        3.088396
   55        3.141127
   56        3.437367
   57        3.438714
   58        3.805272
   59        3.808172
   60        3.808583
   61        3.811700
   62        4.357048
   63        4.359181
   64        4.432169
   65        7.958986
   66        7.964254
   67        7.966183
   68        7.970837
   69        8.027212
   70        8.029206
   71        8.050242
   72        8.368389
   73        8.373018
   74        9.134054
   75        9.138255
   76        9.668309
   77       12.546394
   78       13.076066
   79       13.371271
   80       13.374566
   81       13.618032
   82       13.620947
   83       13.910440
   84       13.915235
 
  0.1111111E+00  0.1111111E+00  0.0000000E+00  0.6172840E-02
    1      -13.495802
    2      -13.077907
    3      -13.076725
    4      -12.578022
    5       -9.591381
    6       -9.588012
    7       -9.252593
    8       -9.249181
    9       -9.249109
   10       -9.245610
   11       -8.862893
   12       -8.859441
   13       -8.074466
   14       -7.847985
   15       -7.846225
   16       -7.734555
   17       -6.823067
   18       -6.805837
   19       -6.801837
   20       -6.591953
   21       -5.698626
   22       -5.695004
   23       -5.443802
   24       -5.439171
   25       -5.439139
   26       -5.436361
   27       -5.150150
   28       -5.146424
   29       -2.884802
   30       -1.182308
   31       -1.086518
   32       -1.083609
   33       -1.039026
   34       -1.036359
   35       -0.883309
   36       -0.336869
   37       -0.333936
   38       -0.216617
   39       -0.215016
   40       -0.214970
   41       -0.210486
   42       -0.089807
   43       -0.086630
   44        1.192583
   45        1.672526
   46        1.675184
   47        2.351251
   48        2.409681
   49        2.415545
   50        2.458885
   51        2.739260
   52        2.773011
   53        2.779095
   54        2.829443
   55        3.070222
   56        3.082497
   57        3.083950
   58        3.084325
   59        3.088401
   60        4.119790
   61        4.122824
   62        4.433621
   63        4.471188
   64        4.473451
   65        7.760384
   66        7.766937
   67        8.112280
   68        8.295161
   69        8.297927
   70        8.678671
   71        8.899896
   72        8.906175
   73        8.906936
   74        8.909353
   75       10.166219
   76       10.169392
   77       12.702527
   78       13.460422
   79       13.464936
   80       13.990350
   81       13.994340
   82       13.995959
   83       14.001205
   84       14.275462
 
  0.2222222E+00  0.1111111E+00  0.0000000E+00  0.6172840E-02
    1      -13.198205
    2      -12.785808
    3      -12.784641
    4      -12.293980
    5      -10.572528
    6      -10.210420
    7      -10.209384
    8       -9.937406
    9       -9.790072
   10       -9.588702
   11       -9.587700
   12       -9.187215
   13       -8.157031
   14       -7.874657
   15       -7.873483
   16       -7.596498
   17       -6.490740
   18       -6.303533
   19       -6.300368
   20       -6.034763
   21       -4.901753
   22       -4.660562
   23       -4.659768
   24       -4.392282
   25       -4.300121
   26       -4.064995
   27       -4.062868
   28       -3.803196
   29       -2.525410
   30       -2.107243
   31       -1.942611
   32       -1.940002
   33       -1.757956
   34       -0.878356
   35       -0.745903
   36       -0.743143
   37       -0.740104
   38       -0.739648
   39       -0.591560
   40       -0.045866
   41        0.070399
   42        0.073450
   43        0.194673
   44        0.582245
   45        1.312760
   46        1.373952
   47        1.462709
   48        1.468406
   49        1.506478
   50        1.549535
   51        2.143517
   52        2.145914
   53        2.173618
   54        2.231628
   55        2.237932
   56        2.307436
   57        2.799762
   58        2.801706
   59        3.179400
   60        3.972087
   61        4.319976
   62        4.322950
   63        4.449234
   64        4.857561
   65        7.766670
   66        7.772425
   67        7.891700
   68        8.599229
   69        8.729788
   70        9.440727
   71        9.467534
   72        9.470945
   73       10.255326
   74       10.259677
   75       10.549147
   76       11.426128
   77       13.017739
   78       13.638599
   79       14.157731
   80       14.159934
   81       14.444396
   82       14.642137
   83       14.663631
   84       14.694380
 
  0.3333333E+00  0.1111111E+00  0.0000000E+00  0.6172840E-02
    1      -12.753704
    2      -12.349515
    3      -12.348369
    4      -11.869707
    5      -11.435601
    6      -11.056251
    7      -11.055171
    8      -10.611897
    9      -10.148807
   10       -9.795365
   11       -9.794348
   12       -9.387094
   13       -8.316258
   14       -8.010408
   15       -8.009486
   16       -7.671988
   17       -5.750804
   18       -5.534482
   19       -5.531515
   20       -5.290441
   21       -4.076866
   22       -3.870689
   23       -3.869339
   24       -3.651399
   25       -3.039602
   26       -2.881538
   27       -2.878682
   28       -2.827406
   29       -2.685726
   30       -2.623086
   31       -2.620732
   32       -2.398169
   33       -1.990175
   34       -1.578991
   35       -1.441941
   36       -1.440541
   37       -1.279872
   38       -0.420877
   39       -0.244495
   40       -0.241441
   41        0.095633
   42        0.231625
   43        0.236107
   44        0.363061
   45        0.374857
   46        0.485266
   47        0.488443
   48        0.604098
   49        1.089189
   50        1.230665
   51        1.233179
   52        1.526928
   53        1.611489
   54        1.616810
   55        1.707956
   56        1.968154
   57        2.618651
   58        2.620769
   59        3.139714
   60        3.256712
   61        4.406342
   62        4.410585
   63        4.411919
   64        5.429091
   65        7.455020
   66        7.881980
   67        7.886327
   68        8.727510
   69        9.181973
   70        9.915859
   71        9.918441
   72       10.735270
   73       10.983916
   74       11.735716
   75       11.739348
   76       12.747377
   77       13.483294
   78       13.874769
   79       14.172146
   80       14.314014
   81       14.319367
   82       14.388120
   83       14.391628
   84       14.491441
 
  0.4444444E+00  0.1111111E+00  0.0000000E+00  0.6172840E-02
    1      -12.166435
    2      -12.163294
    3      -11.774389
    4      -11.771161
    5      -11.771015
    6      -11.767780
    7      -11.309270
    8      -11.306010
    9      -10.219778
   10       -9.864876
   11       -9.863852
   12       -9.454372
   13       -8.375414
   14       -8.064602
   15       -8.063712
   16       -7.716175
   17       -5.205769
   18       -5.048845
   19       -5.046120
   20       -4.918916
   21       -3.550703
   22       -3.476017
   23       -3.422537
   24       -3.419733
   25       -3.415194
   26       -3.411726
   27       -3.302694
   28       -3.281828
   29       -1.939613
   30       -1.881535
   31       -1.877968
   32       -1.757386
   33       -1.340753
   34       -1.337093
   35       -1.286468
   36       -1.283865
   37       -1.174033
   38       -1.167795
   39       -1.167715
   40       -1.167267
   41       -0.987732
   42       -0.984405
   43        0.424362
   44        0.427494
   45        0.428304
   46        0.432309
   47        0.906767
   48        0.911621
   49        1.008021
   50        1.010541
   51        1.010608
   52        1.011397
   53        1.022923
   54        1.117606
   55        1.123796
   56        2.555855
   57        2.558450
   58        2.561193
   59        2.564127
   60        3.113124
   61        4.388593
   62        4.431817
   63        4.433721
   64        5.738419
   65        7.207173
   66        7.947225
   67        7.949947
   68        8.783575
   69        9.391751
   70       10.091149
   71       10.093575
   72       10.767317
   73       12.617297
   74       12.620998
   75       13.176225
   76       13.182956
   77       13.185067
   78       13.186168
   79       13.989692
   80       13.992705
   81       14.059116
   82       14.062598
   83       14.318279
   84       14.328614
 
 -0.4444444E+00  0.1111111E+00  0.0000000E+00  0.6172840E-02
    1      -12.753785
    2      -12.349600
    3      -12.348454
    4      -11.869774
    5      -11.435463
    6      -11.056114
    7      -11.055033
    8      -10.611755
    9      -10.149182
   10       -9.795575
   11       -9.794557
   12       -9.387305
   13       -8.315903
   14       -8.009989
   15       -8.009121
   16       -7.671522
   17       -5.750308
   18       -5.532993
   19       -5.531924
   20       -5.289923
   21       -4.077870
   22       -3.872453
   23       -3.869413
   24       -3.652235
   25       -3.040549
   26       -2.881639
   27       -2.880647
   28       -2.827639
   29       -2.686795
   30       -2.623624
   31       -2.620871
   32       -2.398512
   33       -1.990279
   34       -1.577828
   35       -1.441715
   36       -1.438249
   37       -1.278573
   38       -0.420717
   39       -0.244588
   40       -0.241545
   41        0.096098
   42        0.232728
   43        0.235626
   44        0.363204
   45        0.375324
   46        0.485362
   47        0.489092
   48        0.604494
   49        1.088943
   50        1.230786
   51        1.233329
   52        1.526637
   53        1.611987
   54        1.615500
   55        1.707490
   56        1.968054
   57        2.618275
   58        2.620569
   59        3.140137
   60        3.256852
   61        4.406298
   62        4.411150
   63        4.412095
   64        5.430208
   65        7.454175
   66        7.882684
   67        7.885363
   68        8.727499
   69        9.181710
   70        9.915140
   71        9.918667
   72       10.735361
   73       10.983723
   74       11.735335
   75       11.739380
   76       12.747287
   77       13.483108
   78       13.874568
   79       14.173579
   80       14.313642
   81       14.319595
   82       14.388285
   83       14.391341
   84       14.490097
 
 -0.3333333E+00  0.1111111E+00  0.0000000E+00  0.6172840E-02
    1      -13.198266
    2      -12.785868
    3      -12.784701
    4      -12.294039
    5      -10.572362
    6      -10.210246
    7      -10.209211
    8       -9.937821
    9       -9.789909
   10       -9.589140
   11       -9.588140
   12       -9.187649
   13       -8.156222
   14       -7.873540
   15       -7.872765
   16       -7.595361
   17       -6.490709
   18       -6.302054
   19       -6.301371
   20       -6.034427
   21       -4.902681
   22       -4.662317
   23       -4.659807
   24       -4.393097
   25       -4.300484
   26       -4.065439
   27       -4.063082
   28       -3.803519
   29       -2.525485
   30       -2.108557
   31       -1.942907
   32       -1.942377
   33       -1.759298
   34       -0.876799
   35       -0.745975
   36       -0.743131
   37       -0.739824
   38       -0.736854
   39       -0.589968
   40       -0.045614
   41        0.070525
   42        0.073818
   43        0.194910
   44        0.582425
   45        1.312227
   46        1.374322
   47        1.464496
   48        1.466953
   49        1.506413
   50        1.549463
   51        2.143672
   52        2.146078
   53        2.173726
   54        2.233117
   55        2.235972
   56        2.306912
   57        2.798984
   58        2.801319
   59        3.180286
   60        3.972202
   61        4.322046
   62        4.322948
   63        4.448404
   64        4.858836
   65        7.767439
   66        7.771254
   67        7.890973
   68        8.598977
   69        8.729547
   70        9.440656
   71        9.466520
   72        9.471186
   73       10.254969
   74       10.259650
   75       10.549189
   76       11.425979
   77       13.017596
   78       13.638416
   79       14.157380
   80       14.159730
   81       14.447742
   82       14.646339
   83       14.677479
   84       14.694784
 
 -0.2222222E+00  0.1111111E+00  0.0000000E+00  0.6172840E-02
    1      -13.495838
    2      -13.077943
    3      -13.076760
    4      -12.578058
    5       -9.590313
    6       -9.589496
    7       -9.250371
    8       -9.249404
    9       -9.249318
   10       -9.248346
   11       -8.861880
   12       -8.860994
   13       -8.072955
   14       -7.845783
   15       -7.845265
   16       -7.733156
   17       -6.822887
   18       -6.804468
   19       -6.804097
   20       -6.592298
   21       -5.697604
   22       -5.696944
   23       -5.441588
   24       -5.440803
   25       -5.439377
   26       -5.438461
   27       -5.149111
   28       -5.148489
   29       -2.884848
   30       -1.183800
   31       -1.086564
   32       -1.083657
   33       -1.039427
   34       -1.038966
   35       -0.884823
   36       -0.334499
   37       -0.334417
   38       -0.214930
   39       -0.214743
   40       -0.211909
   41       -0.211739
   42       -0.087357
   43       -0.087319
   44        1.192535
   45        1.672712
   46        1.674393
   47        2.351369
   48        2.412288
   49        2.412408
   50        2.458242
   51        2.739997
   52        2.776206
   53        2.776331
   54        2.829178
   55        3.071492
   56        3.082053
   57        3.084152
   58        3.084398
   59        3.087127
   60        4.122276
   61        4.122924
   62        4.434764
   63        4.470576
   64        4.472975
   65        7.761093
   66        7.765710
   67        8.112367
   68        8.295362
   69        8.297536
   70        8.677856
   71        8.900697
   72        8.904496
   73        8.906258
   74        8.910051
   75       10.166837
   76       10.168691
   77       12.702434
   78       13.462987
   79       13.465979
   80       13.994187
   81       13.995808
   82       13.997127
   83       13.998984
   84       14.264705
 
 -0.1111111E+00  0.1111111E+00  0.0000000E+00  0.6172840E-02
    1      -13.644998
    2      -13.224366
    3      -13.223176
    4      -12.720392
    5       -9.117063
    6       -8.792567
    7       -8.791605
    8       -8.549344
    9       -8.546712
   10       -8.429477
   11       -8.258419
   12       -8.256247
   13       -8.256104
   14       -8.253025
   15       -7.969573
   16       -7.967134
   17       -6.847540
   18       -6.845425
   19       -6.648686
   20       -6.645221
   21       -6.645088
   22       -6.644186
   23       -6.378963
   24       -6.360132
   25       -6.357947
   26       -6.123722
   27       -6.121234
   28       -5.821015
   29       -3.065242
   30       -1.257956
   31       -1.255035
   32       -0.483419
   33       -0.480791
   34       -0.361494
   35       -0.360219
   36       -0.360169
   37       -0.355916
   38       -0.233384
   39       -0.230462
   40       -0.173653
   41       -0.062204
   42       -0.059340
   43        0.055177
   44        1.033934
   45        2.144838
   46        2.666457
   47        2.669210
   48        2.889651
   49        2.943961
   50        2.949834
   51        3.004370
   52        3.034904
   53        3.085439
   54        3.091182
   55        3.141816
   56        3.435678
   57        3.438195
   58        3.807100
   59        3.808160
   60        3.808553
   61        3.812642
   62        4.358152
   63        4.359277
   64        4.430846
   65        7.958146
   66        7.965849
   67        7.966535
   68        7.969419
   69        8.027347
   70        8.029043
   71        8.050230
   72        8.367544
   73        8.373732
   74        9.134103
   75        9.137527
   76        9.668572
   77       12.546362
   78       13.079867
   79       13.368866
   80       13.373055
   81       13.621097
   82       13.627529
   83       13.908221
   84       13.915383
 
 -0.3388132E-20  0.2222222E+00  0.0000000E+00  0.6172840E-02
    1      -13.421288
    2      -13.004821
    3      -13.003641
    4      -12.506960
    5      -10.146851
    6       -9.793909
    7       -9.792901
    8       -9.386406
    9       -8.916105
   10       -8.912904
   11       -8.597220
   12       -8.594361
   13       -8.593814
   14       -8.590820
   15       -8.239168
   16       -8.236004
   17       -6.206133
   18       -6.202840
   19       -5.958814
   20       -5.955949
   21       -5.954252
   22       -5.951302
   23       -5.664555
   24       -5.660916
   25       -5.049491
   26       -4.799129
   27       -4.798389
   28       -4.518727
   29       -2.794838
   30       -1.106785
   31       -1.104989
   32       -1.001194
   33       -0.998292
   34       -0.964740
   35       -0.964013
   36       -0.961185
   37       -0.960376
   38       -0.810432
   39       -0.808634
   40        0.040732
   41        0.151510
   42        0.151885
   43        0.266050
   44        1.058321
   45        1.271482
   46        2.038614
   47        2.126111
   48        2.126371
   49        2.215315
   50        2.399478
   51        2.402861
   52        2.558095
   53        2.560098
   54        2.601243
   55        2.671767
   56        2.672151
   57        2.743654
   58        3.685097
   59        3.688414
   60        3.688958
   61        3.692396
   62        4.215723
   63        4.685734
   64        4.688173
   65        7.992512
   66        7.994863
   67        8.289038
   68        8.293903
   69        8.295573
   70        8.300378
   71        8.804566
   72        9.399927
   73        9.404948
   74        9.575533
   75        9.579547
   76       10.860983
   77       12.779588
   78       13.211159
   79       13.742639
   80       13.743873
   81       14.281378
   82       14.310999
   83       14.357574
   84       14.528056
 
  0.1111111E+00  0.2222222E+00  0.0000000E+00  0.6172840E-02
    1      -13.198199
    2      -12.785802
    3      -12.784634
    4      -12.293973
    5      -10.572486
    6      -10.210378
    7      -10.209344
    8       -9.937438
    9       -9.790033
   10       -9.588726
   11       -9.587728
   12       -9.187232
   13       -8.157017
   14       -7.874628
   15       -7.873478
   16       -7.596483
   17       -6.490806
   18       -6.303534
   19       -6.300568
   20       -6.034900
   21       -4.902923
   22       -4.662375
   23       -4.660275
   24       -4.393455
   25       -4.298966
   26       -4.063155
   27       -4.062399
   28       -3.802024
   29       -2.525425
   30       -2.107127
   31       -1.942427
   32       -1.940000
   33       -1.757880
   34       -0.876860
   35       -0.745903
   36       -0.743057
   37       -0.739792
   38       -0.737044
   39       -0.590004
   40       -0.047410
   41        0.070118
   42        0.070536
   43        0.193015
   44        0.581839
   45        1.313299
   46        1.375521
   47        1.465176
   48        1.468406
   49        1.506458