   4   4   0   0
  0.9254429E+01  0.2466437E-09  0.2466437E-09  0.7029656E-09  0.5000000E-15
  1.000000000000000E-004
  CAR 
 graphite                                
     18.09244941    -17.31508411  301      4.27640029      1.00000000
    -17.315  0.0000E+00  0.0000E+00
    -17.197  0.0000E+00  0.0000E+00
    -17.079  0.0000E+00  0.0000E+00
    -16.961  0.0000E+00  0.0000E+00
    -16.843  0.0000E+00  0.0000E+00
    -16.725  0.0000E+00  0.0000E+00
    -16.607  0.0000E+00  0.0000E+00
    -16.489  0.0000E+00  0.0000E+00
    -16.371  0.0000E+00  0.0000E+00
    -16.253  0.0000E+00  0.0000E+00
    -16.135  0.0000E+00  0.0000E+00
    -16.017  0.0000E+00  0.0000E+00
    -15.899  0.0000E+00  0.0000E+00
    -15.781  0.0000E+00  0.0000E+00
    -15.663  0.0000E+00  0.0000E+00
    -15.545  0.0000E+00  0.0000E+00
    -15.427  0.0000E+00  0.0000E+00
    -15.309  0.1050E-04  0.2250E-07
    -15.191  0.1363E-02  0.6562E-04
    -15.073  0.2650E-02  0.3111E-03
    -14.955  0.3109E-02  0.6716E-03
    -14.837  0.3097E-02  0.1021E-02
    -14.719  0.3216E-02  0.1397E-02
    -14.601  0.3070E-02  0.1769E-02
    -14.482  0.2966E-02  0.2124E-02
    -14.364  0.3062E-02  0.2479E-02
    -14.246  0.3172E-02  0.2847E-02
    -14.128  0.3203E-02  0.3226E-02
    -14.010  0.3143E-02  0.3601E-02
    -13.892  0.3062E-02  0.3965E-02
    -13.774  0.3055E-02  0.4325E-02
    -13.656  0.3083E-02  0.4687E-02
    -13.538  0.3141E-02  0.5054E-02
    -13.420  0.3199E-02  0.5429E-02
    -13.302  0.3237E-02  0.5809E-02
    -13.184  0.3187E-02  0.6189E-02
    -13.066  0.3121E-02  0.6561E-02
    -12.948  0.3122E-02  0.6928E-02
    -12.830  0.3139E-02  0.7298E-02
    -12.712  0.3155E-02  0.7669E-02
    -12.594  0.3179E-02  0.8043E-02
    -12.476  0.3215E-02  0.8420E-02
    -12.358  0.3253E-02  0.8802E-02
    -12.240  0.3290E-02  0.9188E-02
    -12.122  0.3264E-02  0.9575E-02
    -12.004  0.3232E-02  0.9957E-02
    -11.886  0.3225E-02  0.1034E-01
    -11.768  0.3237E-02  0.1072E-01
    -11.650  0.3266E-02  0.1110E-01
    -11.532  0.3295E-02  0.1149E-01
    -11.414  0.3324E-02  0.1188E-01
    -11.296  0.3353E-02  0.1227E-01
    -11.178  0.3400E-02  0.1267E-01
    -11.060  0.3467E-02  0.1308E-01
    -10.942  0.3531E-02  0.1349E-01
    -10.824  0.3580E-02  0.1391E-01
    -10.706  0.3684E-02  0.1434E-01
    -10.588  0.3841E-02  0.1478E-01
    -10.470  0.3998E-02  0.1525E-01
    -10.352  0.5557E-02  0.1580E-01
    -10.234  0.5862E-02  0.1652E-01
    -10.116  0.4543E-02  0.1713E-01
     -9.998  0.3243E-02  0.1759E-01
     -9.880  0.2699E-02  0.1793E-01
     -9.761  0.2420E-02  0.1823E-01
     -9.643  0.2141E-02  0.1850E-01
     -9.525  0.4162E-02  0.1893E-01
     -9.407  0.1281E-02  0.1930E-01
     -9.289  0.1143E-02  0.1944E-01
     -9.171  0.1005E-02  0.1957E-01
     -9.053  0.8676E-03  0.1968E-01
     -8.935  0.7473E-03  0.1977E-01
     -8.817  0.9839E-03  0.1987E-01
     -8.699  0.1270E-02  0.2000E-01
     -8.581  0.1555E-02  0.2017E-01
     -8.463  0.3102E-02  0.2042E-01
     -8.345  0.5640E-02  0.2093E-01
     -8.227  0.4147E-02  0.2154E-01
     -8.109  0.3861E-02  0.2196E-01
     -7.991  0.4580E-02  0.2246E-01
     -7.873  0.5300E-02  0.2304E-01
     -7.755  0.6020E-02  0.2371E-01
     -7.637  0.4950E-02  0.2441E-01
     -7.519  0.3556E-02  0.2487E-01
     -7.401  0.3451E-02  0.2528E-01
     -7.283  0.3364E-02  0.2569E-01
     -7.165  0.3279E-02  0.2608E-01
     -7.047  0.3193E-02  0.2646E-01
     -6.929  0.3098E-02  0.2683E-01
     -6.811  0.3004E-02  0.2719E-01
     -6.693  0.2910E-02  0.2754E-01
     -6.575  0.2816E-02  0.2788E-01
     -6.457  0.2721E-02  0.2820E-01
     -6.339  0.2627E-02  0.2852E-01
     -6.221  0.2583E-02  0.2882E-01
     -6.103  0.2807E-02  0.2914E-01
     -5.985  0.3036E-02  0.2949E-01
     -5.867  0.3265E-02  0.2986E-01
     -5.749  0.3494E-02  0.3026E-01
     -5.631  0.3723E-02  0.3068E-01
     -5.513  0.3952E-02  0.3114E-01
     -5.395  0.4182E-02  0.3162E-01
     -5.277  0.4153E-02  0.3211E-01
     -5.158  0.3895E-02  0.3259E-01
     -5.040  0.3825E-02  0.3304E-01
     -4.922  0.3823E-02  0.3349E-01
     -4.804  0.3821E-02  0.3394E-01
     -4.686  0.3820E-02  0.3439E-01
     -4.568  0.3869E-02  0.3485E-01
     -4.450  0.3948E-02  0.3531E-01
     -4.332  0.4028E-02  0.3578E-01
     -4.214  0.4108E-02  0.3626E-01
     -4.096  0.4175E-02  0.3675E-01
     -3.978  0.4341E-02  0.3725E-01
     -3.860  0.4946E-02  0.3779E-01
     -3.742  0.5283E-02  0.3840E-01
     -3.624  0.5509E-02  0.3903E-01
     -3.506  0.5750E-02  0.3970E-01
     -3.388  0.5984E-02  0.4039E-01
     -3.270  0.6188E-02  0.4111E-01
     -3.152  0.6925E-02  0.4187E-01
     -3.034  0.7430E-02  0.4273E-01
     -2.916  0.7487E-02  0.4361E-01
     -2.798  0.7434E-02  0.4449E-01
     -2.680  0.7330E-02  0.4536E-01
     -2.562  0.8166E-02  0.4624E-01
     -2.444  0.9002E-02  0.4725E-01
     -2.326  0.9621E-02  0.4836E-01
     -2.208  0.1022E-01  0.4953E-01
     -2.090  0.1336E-01  0.5105E-01
     -1.972  0.1058E-01  0.5248E-01
     -1.854  0.8802E-02  0.5361E-01
     -1.736  0.7817E-02  0.5458E-01
     -1.618  0.7423E-02  0.5547E-01
     -1.500  0.5482E-02  0.5625E-01
     -1.382  0.4471E-02  0.5682E-01
     -1.264  0.4629E-02  0.5735E-01
     -1.146  0.5268E-02  0.5793E-01
     -1.028  0.6035E-02  0.5860E-01
     -0.910  0.6066E-02  0.5932E-01
     -0.792  0.7330E-02  0.6008E-01
     -0.674  0.9562E-02  0.6117E-01
     -0.556  0.7946E-02  0.6218E-01
     -0.437  0.7182E-02  0.6307E-01
     -0.319  0.6637E-02  0.6389E-01
     -0.201  0.6186E-02  0.6464E-01
     -0.083  0.5959E-02  0.6536E-01
      0.035  0.5803E-02  0.6605E-01
      0.153  0.5708E-02  0.6673E-01
      0.271  0.6003E-02  0.6742E-01
      0.389  0.5870E-02  0.6812E-01
      0.507  0.5745E-02  0.6881E-01
      0.625  0.5902E-02  0.6948E-01
      0.743  0.5789E-02  0.7018E-01
      0.861  0.5476E-02  0.7085E-01
      0.979  0.6110E-02  0.7152E-01
      1.097  0.5161E-02  0.7218E-01
      1.215  0.4252E-02  0.7274E-01
      1.333  0.3873E-02  0.7320E-01
      1.451  0.4695E-02  0.7369E-01
      1.569  0.4934E-02  0.7426E-01
      1.687  0.4681E-02  0.7483E-01
      1.805  0.4589E-02  0.7537E-01
      1.923  0.4533E-02  0.7591E-01
      2.041  0.4476E-02  0.7645E-01
      2.159  0.5269E-02  0.7699E-01
      2.277  0.3245E-02  0.7743E-01
      2.395  0.3010E-02  0.7780E-01
      2.513  0.2870E-02  0.7815E-01
      2.631  0.2302E-02  0.7845E-01
      2.749  0.1987E-02  0.7870E-01
      2.867  0.1806E-02  0.7892E-01
      2.985  0.1616E-02  0.7913E-01
      3.103  0.1420E-02  0.7930E-01
      3.221  0.1214E-02  0.7946E-01
      3.339  0.9718E-03  0.7959E-01
      3.457  0.8300E-03  0.7969E-01
      3.575  0.6881E-03  0.7978E-01
      3.693  0.5462E-03  0.7986E-01
      3.811  0.4045E-03  0.7991E-01
      3.929  0.2827E-03  0.7995E-01
      4.047  0.1760E-03  0.7998E-01
      4.165  0.7974E-04  0.8000E-01
      4.284  0.3125E-05  0.8000E-01
      4.402  0.7804E-04  0.8000E-01
      4.520  0.1636E-03  0.8002E-01
      4.638  0.2613E-03  0.8004E-01
      4.756  0.3752E-03  0.8008E-01
      4.874  0.5190E-03  0.8013E-01
      4.992  0.6709E-03  0.8020E-01
      5.110  0.8230E-03  0.8029E-01
      5.228  0.9752E-03  0.8040E-01
      5.346  0.1128E-02  0.8052E-01
      5.464  0.1912E-02  0.8069E-01
      5.582  0.2396E-02  0.8095E-01
      5.700  0.2534E-02  0.8124E-01
      5.818  0.3890E-02  0.8159E-01
      5.936  0.4741E-02  0.8209E-01
      6.054  0.4806E-02  0.8270E-01
      6.172  0.4688E-02  0.8325E-01
      6.290  0.4676E-02  0.8381E-01
      6.408  0.4759E-02  0.8436E-01
      6.526  0.4581E-02  0.8492E-01
      6.644  0.3688E-02  0.8541E-01
      6.762  0.3421E-02  0.8583E-01
      6.880  0.3187E-02  0.8622E-01
      6.998  0.3000E-02  0.8659E-01
      7.116  0.2849E-02  0.8693E-01
      7.234  0.2729E-02  0.8726E-01
      7.352  0.2642E-02  0.8758E-01
      7.470  0.2578E-02  0.8788E-01
      7.588  0.2522E-02  0.8819E-01
      7.706  0.2466E-02  0.8848E-01
      7.824  0.2415E-02  0.8877E-01
      7.942  0.2365E-02  0.8905E-01
      8.060  0.2315E-02  0.8933E-01
      8.178  0.2267E-02  0.8960E-01
      8.296  0.2252E-02  0.8986E-01
      8.414  0.2428E-02  0.9014E-01
      8.532  0.2482E-02  0.9043E-01
      8.650  0.2464E-02  0.9072E-01
      8.768  0.2509E-02  0.9101E-01
      8.886  0.2563E-02  0.9131E-01
      9.005  0.2593E-02  0.9162E-01
      9.123  0.2617E-02  0.9192E-01
      9.241  0.2667E-02  0.9224E-01
      9.359  0.2721E-02  0.9255E-01
      9.477  0.2777E-02  0.9288E-01
      9.595  0.2839E-02  0.9321E-01
      9.713  0.2927E-02  0.9355E-01
      9.831  0.3199E-02  0.9391E-01
      9.949  0.3795E-02  0.9432E-01
     10.067  0.3600E-02  0.9477E-01
     10.185  0.3309E-02  0.9517E-01
     10.303  0.3048E-02  0.9555E-01
     10.421  0.2689E-02  0.9589E-01
     10.539  0.2291E-02  0.9618E-01
     10.657  0.2153E-02  0.9644E-01
     10.775  0.2007E-02  0.9669E-01
     10.893  0.2009E-02  0.9692E-01
     11.011  0.2123E-02  0.9716E-01
     11.129  0.2263E-02  0.9742E-01
     11.247  0.2467E-02  0.9770E-01
     11.365  0.2733E-02  0.9800E-01
     11.483  0.3075E-02  0.9835E-01
     11.601  0.4028E-02  0.9875E-01
     11.719  0.5307E-02  0.9931E-01
     11.837  0.6644E-02  0.1000E+00
     11.955  0.8363E-02  0.1009E+00
     12.073  0.9090E-02  0.1019E+00
     12.191  0.9854E-02  0.1030E+00
     12.309  0.9961E-02  0.1042E+00
     12.427  0.9661E-02  0.1054E+00
     12.545  0.9210E-02  0.1065E+00
     12.663  0.1350E-01  0.1078E+00
     12.781  0.1217E-01  0.1095E+00
     12.899  0.8331E-02  0.1107E+00
     13.017  0.5226E-02  0.1115E+00
     13.135  0.5197E-02  0.1121E+00
     13.253  0.4626E-02  0.1127E+00
     13.371  0.4325E-02  0.1132E+00
     13.489  0.4170E-02  0.1137E+00
     13.607  0.3769E-02  0.1142E+00
     13.726  0.3417E-02  0.1146E+00
     13.844  0.3137E-02  0.1150E+00
     13.962  0.2954E-02  0.1153E+00
     14.080  0.2930E-02  0.1157E+00
     14.198  0.3302E-02  0.1160E+00
     14.316  0.4657E-02  0.1165E+00
     14.434  0.3698E-02  0.1170E+00
     14.552  0.3543E-02  0.1174E+00
     14.670  0.4033E-02  0.1179E+00
     14.788  0.5201E-02  0.1184E+00
     14.906  0.2960E-02  0.1188E+00
     15.024  0.2250E-02  0.1191E+00
     15.142  0.1906E-02  0.1194E+00
     15.260  0.1798E-02  0.1196E+00
     15.378  0.1281E-02  0.1198E+00
     15.496  0.8143E-03  0.1199E+00
     15.614  0.3635E-03  0.1200E+00
     15.732  0.1386E-03  0.1200E+00
     15.850  0.4835E-04  0.1200E+00
     15.968  0.1238E-04  0.1200E+00
     16.086  0.3302E-07  0.1200E+00
     16.204  0.0000E+00  0.1200E+00
     16.322  0.0000E+00  0.1200E+00
     16.440  0.0000E+00  0.1200E+00
     16.558  0.0000E+00  0.1200E+00
     16.676  0.0000E+00  0.1200E+00
     16.794  0.0000E+00  0.1200E+00
     16.912  0.0000E+00  0.1200E+00
     17.030  0.0000E+00  0.1200E+00
     17.148  0.0000E+00  0.1200E+00
     17.266  0.0000E+00  0.1200E+00
     17.384  0.0000E+00  0.1200E+00
     17.502  0.0000E+00  0.1200E+00
     17.620  0.0000E+00  0.1200E+00
     17.738  0.0000E+00  0.1200E+00
     17.856  0.0000E+00  0.1200E+00
     17.974  0.0000E+00  0.1200E+00
     18.092  0.0000E+00  0.1200E+00
