    4    4  200    1
  0.9254429E+01  0.2466437E-09  0.2466437E-09  0.7029656E-09  0.5000000E-15
  1.000000000000000E-004
  CAR 
 graphite                                
     16    215     12
 
  0.0000000E+00  0.0000000E+00  0.0000000E+00  0.8680556E-03
    1      -15.315084
    2      -15.107851
    3       -4.043319
    4       -2.502503
    5        1.260157
    6        1.271434
    7        1.276847
    8        1.287776
    9        8.230011
   10       12.609467
   11       12.621945
   12       12.642518
 
  0.8333333E-01 -0.6938894E-17  0.0000000E+00  0.3472222E-02
    1      -15.149868
    2      -14.944805
    3       -3.842998
    4       -2.312980
    5        0.616048
    6        0.637050
    7        0.922585
    8        0.940018
    9        8.433826
   10       12.660484
   11       12.720106
   12       13.333320
 
  0.1666667E+00 -0.1387779E-16  0.0000000E+00  0.3472222E-02
    1      -14.655967
    2      -14.457429
    3       -3.246450
    4       -1.750654
    5       -1.033594
    6       -0.992189
    7        0.125642
    8        0.150866
    9        9.046539
   10       12.566470
   11       12.698315
   12       13.493488
 
  0.2500000E+00  0.0000000E+00  0.0000000E+00  0.3472222E-02
    1      -13.839306
    2      -13.651452
    3       -3.145774
    4       -3.080691
    5       -2.269950
    6       -0.838691
    7       -0.756814
    8       -0.726726
    9       10.062837
   10       11.297436
   11       11.766620
   12       12.245159
 
  0.3333333E+00 -0.2775558E-16  0.0000000E+00  0.3472222E-02
    1      -12.712196
    2      -12.538964
    3       -5.362715
    4       -5.274060
    5       -1.491683
    6       -1.458725
    7       -0.954840
    8        0.360093
    9        8.882753
   10        9.567299
   11       11.427515
   12       11.901207
 
  0.4166667E+00  0.0000000E+00  0.0000000E+00  0.3472222E-02
    1      -11.305475
    2      -11.151975
    3       -7.474537
    4       -7.365493
    5       -1.965183
    6       -1.930849
    7        0.570932
    8        1.626466
    9        6.724454
   10        7.498390
   11       11.615431
   12       11.875856
 
  0.5000000E+00  0.0000000E+00  0.0000000E+00  0.1736111E-02
    1      -10.007419
    2       -9.931166
    3       -8.951394
    4       -8.893186
    5       -2.127702
    6       -2.092969
    7        1.622952
    8        2.156499
    9        5.785092
   10        6.349280
   11       11.527302
   12       11.805493
 
  0.8333333E-01  0.8333333E-01  0.0000000E+00  0.1736111E-02
    1      -14.820066
    2      -14.619350
    3       -3.444205
    4       -1.936653
    5       -0.417815
    6       -0.397571
    7        0.245481
    8        0.260216
    9        8.843485
   10       12.940024
   11       13.028356
   12       14.193323
 
  0.1666667E+00  0.8333333E-01  0.0000000E+00  0.3472222E-02
    1      -14.164550
    2      -13.972455
    3       -2.656529
    4       -2.143401
    5       -2.099049
    6       -1.197691
    7       -0.757791
    8       -0.729751
    9        9.662538
   10       12.211194
   11       12.535055
   12       13.038259
 
  0.2500000E+00  0.8333333E-01  0.0000000E+00  0.3472222E-02
    1      -13.192249
    2      -13.012787
    3       -4.232932
    4       -4.160321
    5       -1.648960
    6       -1.611220
    7       -1.505648
    8       -0.133179
    9        9.970118
   10       10.489175
   11       10.879065
   12       12.754968
 
  0.3333333E+00  0.8333333E-01  0.0000000E+00  0.3472222E-02
    1      -11.922148
    2      -11.759438
    3       -6.369627
    4       -6.272519
    5       -2.286636
    6       -2.244416
    7       -0.059737
    8        1.148596
    9        7.683637
   10        8.382650
   11       12.336759
   12       12.512744
 
  0.4166667E+00  0.8333333E-01  0.0000000E+00  0.3472222E-02
    1      -10.427876
    2      -10.293973
    3       -8.316784
    4       -8.208677
    5       -2.616768
    6       -2.572743
    7        1.417260
    8        2.196794
    9        5.998877
   10        6.623511
   11       12.257613
   12       12.551988
 
  0.5000000E+00  0.8333333E-01  0.0000000E+00  0.3472222E-02
    1      -10.430242
    2      -10.296260
    3       -8.314023
    4       -8.205817
    5       -2.617592
    6       -2.573565
    7        1.415814
    8        2.196187
    9        5.999111
   10        6.625190
   11       12.258618
   12       12.552976
 
 -0.4166667E+00  0.8333333E-01  0.0000000E+00  0.3472222E-02
    1      -11.924324
    2      -11.761584
    3       -6.366163
    4       -6.269018
    5       -2.288970
    6       -2.246710
    7       -0.061610
    8        1.147011
    9        7.684309
   10        8.384786
   11       12.337071
   12       12.513396
 
 -0.3333333E+00  0.8333333E-01  0.0000000E+00  0.3472222E-02
    1      -13.193957
    2      -13.014478
    3       -4.229690
    4       -4.157040
    5       -1.652013
    6       -1.614230
    7       -1.507284
    8       -0.134708
    9        9.969577
   10       10.490792
   11       10.876791
   12       12.759537
 
 -0.2500000E+00  0.8333333E-01  0.0000000E+00  0.3472222E-02
    1      -14.165760
    2      -13.973660
    3       -2.657761
    4       -2.142659
    5       -2.098298
    6       -1.198872
    7       -0.758757
    8       -0.730797
    9        9.660892
   10       12.208551
   11       12.535915
   12       13.073643
 
 -0.1666667E+00  0.8333333E-01  0.0000000E+00  0.3472222E-02
    1      -14.820790
    2      -14.620071
    3       -3.444966
    4       -1.937389
    5       -0.426038
    6       -0.405285
    7        0.253294
    8        0.268081
    9        8.842469
   10       12.947355
   11       13.036743
   12       14.142113
 
 -0.8333333E-01  0.8333333E-01  0.0000000E+00  0.1736111E-02
    1      -15.150111
    2      -14.945046
    3       -3.843255
    4       -2.313230
    5        0.602994
    6        0.624266
    7        0.935671
    8        0.952965
    9        8.433475
   10       12.665006
   11       12.724853
   12       13.317421
 
  0.1666667E+00  0.1666667E+00  0.0000000E+00  0.1736111E-02
    1      -13.353358
    2      -13.171830
    3       -3.472940
    4       -3.437899
    5       -2.117278
    6       -2.091685
    7       -1.691481
    8       -0.300814
    9       10.483041
   10       10.686023
   11       10.832670
   12       14.209092
 
  0.2500000E+00  0.1666667E+00  0.0000000E+00  0.3472222E-02
    1      -12.236696
    2      -12.069708
    3       -5.219096
    4       -5.150487
    5       -3.184961
    6       -3.138074
    7       -0.390577
    8        0.883562
    9        8.481122
   10        8.947764
   11       12.095051
   12       14.349589
 
  0.3333333E+00  0.1666667E+00  0.0000000E+00  0.3472222E-02
    1      -10.849443
    2      -10.702261
    3       -7.145395
    4       -7.047193
    5       -3.768769
    6       -3.709467
    7        1.131786
    8        2.168028
    9        6.537778
   10        7.109828
   11       13.817219
   12       14.133083
 
  0.4166667E+00  0.1666667E+00  0.0000000E+00  0.3472222E-02
    1       -9.583753
    2       -9.510835
    3       -8.550079
    4       -8.498852
    5       -3.956580
    6       -3.894258
    7        2.221895
    8        2.744769
    9        5.677719
   10        5.952082
   11       14.007309
   12       14.420371
 
  0.5000000E+00  0.1666667E+00  0.0000000E+00  0.3472222E-02
    1      -10.854168
    2      -10.706964
    3       -7.139079
    4       -7.040740
    5       -3.771170
    6       -3.711767
    7        1.128157
    8        2.165305
    9        6.537857
   10        7.114516
   11       13.811533
   12       14.134620
 
 -0.4166667E+00  0.1666667E+00  0.0000000E+00  0.3472222E-02
    1      -12.240570
    2      -12.073573
    3       -5.213521
    4       -5.144731
    5       -3.187994
    6       -3.141017
    7       -0.394098
    8        0.880286
    9        8.479292
   10        8.951923
   11       12.089833
   12       14.355808
 
 -0.3333333E+00  0.1666667E+00  0.0000000E+00  0.3472222E-02
    1      -13.356263
    2      -13.174724
    3       -3.474552
    4       -3.438672
    5       -2.114685
    6       -2.088617
    7       -1.694318
    8       -0.303579
    9       10.477602
   10       10.682162
   11       10.835012
   12       14.229213
 
 -0.2500000E+00  0.1666667E+00  0.0000000E+00  0.3472222E-02
    1      -14.166480
    2      -13.974378
    3       -2.658514
    4       -2.153681
    5       -2.108839
    6       -1.199633
    7       -0.746519
    8       -0.718316
    9        9.659961
   10       12.204255
   11       12.533863
   12       13.063665
 
 -0.1666667E+00  0.1666667E+00  0.0000000E+00  0.1736111E-02
    1      -14.656930
    2      -14.458387
    3       -3.247463
    4       -1.751649
    5       -1.047228
    6       -1.005611
    7        0.140448
    8        0.165586
    9        9.045234
   10       12.585026
   11       12.716473
   12       13.487813
 
  0.2500000E+00  0.2500000E+00  0.0000000E+00  0.1736111E-02
    1      -10.998303
    2      -10.848195
    3       -6.249517
    4       -6.199978
    5       -4.661790
    6       -4.624831
    7        1.017736
    8        2.134273
    9        6.873620
   10        7.318125
   11       13.655891
   12       15.878957
 
  0.3333333E+00  0.2500000E+00  0.0000000E+00  0.3472222E-02
    1       -9.561032
    2       -9.439197
    3       -7.686296
    4       -7.605180
    5       -5.384420
    6       -5.321395
    7        2.532598
    8        3.313847
    9        5.403366
   10        5.807490
   11       15.421220
   12       15.602644
 
  0.4166667E+00  0.2500000E+00  0.0000000E+00  0.3472222E-02
    1       -9.568202
    2       -9.446245
    3       -7.678793
    4       -7.597019
    5       -5.385251
    6       -5.322125
    7        2.528117
    8        3.311452
    9        5.400176
   10        5.815381
   11       15.409383
   12       15.614258
 
  0.5000000E+00  0.2500000E+00  0.0000000E+00  0.3472222E-02
    1      -11.004830
    2      -10.854730
    3       -6.245794
    4       -6.195083
    5       -4.660070
    6       -4.622340
    7        1.012431
    8        2.129085
    9        6.870126
   10        7.324865
   11       13.646935
   12       16.092449
 
 -0.4166667E+00  0.2500000E+00  0.0000000E+00  0.3472222E-02
    1      -12.241791
    2      -12.074799
    3       -5.223537
    4       -5.154270
    5       -3.175878
    6       -3.128602
    7       -0.395269
    8        0.878811
    9        8.475061
   10        8.950059
   11       12.088409
   12       14.386938
 
 -0.3333333E+00  0.2500000E+00  0.0000000E+00  0.3472222E-02
    1      -13.195883
    2      -13.016401
    3       -4.242491
    4       -4.169617
    5       -1.635203
    6       -1.597424
    7       -1.509229
    8       -0.136811
    9        9.962351
   10       10.486365
   11       10.874500
   12       12.788273
 
 -0.2500000E+00  0.2500000E+00  0.0000000E+00  0.1736111E-02
    1      -13.841473
    2      -13.653610
    3       -3.158676
    4       -3.093410
    5       -2.272174
    6       -0.840942
    7       -0.740333
    8       -0.710312
    9       10.060108
   10       11.289434
   11       11.761808
   12       12.272681
 
  0.3333333E+00  0.3333333E+00  0.0000000E+00  0.1736111E-02
    1       -8.352916
    2       -8.289382
    3       -8.287475
    4       -8.225137
    5       -6.243275
    6       -6.242620
    7        3.798234
    8        4.264144
    9        4.271015
   10        4.815183
   11       15.255691
   12       15.275682
 
  0.4166667E+00  0.3333333E+00  0.0000000E+00  0.3472222E-02
    1       -9.570857
    2       -9.449281
    3       -7.684487
    4       -7.602758
    5       -5.376132
    6       -5.312634
    7        2.527254
    8        3.305072
    9        5.401421
   10        5.814916
   11       15.408058
   12       15.617358
 
  0.5000000E+00  0.3333333E+00  0.0000000E+00  0.3472222E-02
    1      -10.857337
    2      -10.710233
    3       -7.148964
    4       -7.050531
    5       -3.755981
    6       -3.696581
    7        1.125761
    8        2.160375
    9        6.533987
   10        7.110892
   11       13.810939
   12       14.169053
 
 -0.4166667E+00  0.3333333E+00  0.0000000E+00  0.3472222E-02
    1      -11.928011
    2      -11.765316
    3       -6.377298
    4       -6.280028
    5       -2.270879
    6       -2.228671
    7       -0.064978
    8        1.142560
    9        7.677400
   10        8.378495
   11       12.348822
   12       12.538821
 
 -0.3333333E+00  0.3333333E+00  0.0000000E+00  0.1736111E-02
    1      -12.716067
    2      -12.542836
    3       -5.373770
    4       -5.284968
    5       -1.473884
    6       -1.441015
    7       -0.958599
    8        0.355950
    9        8.874676
   10        9.560831
   11       11.425965
   12       11.932611
 
  0.4166667E+00  0.4166667E+00  0.0000000E+00  0.1736111E-02
    1       -9.593505
    2       -9.522264
    3       -8.551475
    4       -8.501374
    5       -3.941858
    6       -3.879527
    7        2.220207
    8        2.730965
    9        5.680983
   10        5.947068
   11       14.044529
   12       14.458371
 
  0.5000000E+00  0.4166667E+00  0.0000000E+00  0.3472222E-02
    1      -10.437005
    2      -10.303470
    3       -8.321198
    4       -8.213236
    5       -2.599538
    6       -2.555557
    7        1.412266
    8        2.185819
    9        5.997836
   10        6.617001
   11       12.293385
   12       12.587860
 
 -0.4166667E+00  0.4166667E+00  0.0000000E+00  0.1736111E-02
    1      -11.311745
    2      -11.158359
    3       -7.482834
    4       -7.373740
    5       -1.946577
    6       -1.912300
    7        0.565935
    8        1.618907
    9        6.719488
   10        7.490757
   11       11.648996
   12       11.909248
 
  0.5000000E+00  0.5000000E+00  0.0000000E+00  0.8680556E-03
    1      -10.017922
    2       -9.943408
    3       -8.953877
    4       -8.896900
    5       -2.108810
    6       -2.074142
    7        1.620637
    8        2.141813
    9        5.787014
   10        6.338395
   11       11.561775
   12       11.840004
 
  0.0000000E+00  0.0000000E+00  0.1250000E+00  0.1736111E-02
    1      -15.307571
    2      -15.116108
    3       -3.993149
    4       -2.572985
    5        1.260603
    6        1.270997
    7        1.277279
    8        1.287354
    9        8.394082
   10       12.607979
   11       12.613941
   12       12.639133
 
  0.8333333E-01 -0.6938894E-17  0.1250000E+00  0.6944444E-02
    1      -15.142410
    2      -14.952976
    3       -3.793134
    4       -2.382891
    5        0.616875
    6        0.636280
    7        0.923230
    8        0.939337
    9        8.596741
   10       12.658983
   11       12.718242
   12       13.305385
 
  0.1666667E+00 -0.1387779E-16  0.1250000E+00  0.6944444E-02
    1      -14.648730
    2      -14.465335
    3       -3.197588
    4       -1.818764
    5       -1.032024
    6       -0.993755
    7        0.126601
    8        0.149900
    9        9.205515
   10       12.565417
   11       12.693097
   12       13.501869
 
  0.2500000E+00  0.0000000E+00  0.1250000E+00  0.6944444E-02
    1      -13.832440
    2      -13.658900
    3       -3.143297
    4       -3.083218
    5       -2.222901
    6       -0.903272
    7       -0.755701
    8       -0.727865
    9       10.208985
   10       11.319846
   11       11.742295
   12       12.250641
 
  0.3333333E+00 -0.2775558E-16  0.1250000E+00  0.6944444E-02
    1      -12.705845
    2      -12.545807
    3       -5.359410
    4       -5.277493
    5       -1.490431
    6       -1.459982
    7       -0.910964
    8        0.301899
    9        8.900927
   10        9.535079
   11       11.554364
   12       11.913120
 
  0.4166667E+00  0.0000000E+00  0.1250000E+00  0.6944444E-02
    1      -11.299815
    2      -11.158016
    3       -7.470499
    4       -7.369756
    5       -1.963878
    6       -1.932161
    7        0.608244
    8        1.583225
    9        6.743019
   10        7.459055
   11       11.625643
   12       11.866359
 
  0.5000000E+00  0.0000000E+00  0.1250000E+00  0.3472222E-02
    1      -10.004187
    2       -9.933696
    3       -8.949811
    4       -8.895975
    5       -2.126396
    6       -2.094265
    7        1.647512
    8        2.142504
    9        5.787041
   10        6.310061
   11       11.537520
   12       11.794622
 
  0.8333333E-01  0.8333333E-01  0.1250000E+00  0.3472222E-02
    1      -14.812755
    2      -14.627355
    3       -3.394989
    4       -2.005385
    5       -0.417048
    6       -0.398336
    7        0.245957
    8        0.259592
    9        9.003962
   10       12.934237
   11       13.025543
   12       13.947296
 
  0.1666667E+00  0.8333333E-01  0.1250000E+00  0.6944444E-02
    1      -14.157537
    2      -13.980086
    3       -2.608751
    4       -2.141716
    5       -2.100731
    6       -1.263774
    7       -0.756752
    8       -0.730840
    9        9.817099
   10       12.222406
   11       12.518061
   12       13.039783
 
  0.2500000E+00  0.8333333E-01  0.1250000E+00  0.6944444E-02
    1      -13.185680
    2      -13.019898
    3       -4.230200
    4       -4.163121
    5       -1.647515
    6       -1.612670
    7       -1.460192
    8       -0.194541
    9        9.981781
   10       10.465955
   11       11.031980
   12       12.761435
 
  0.3333333E+00  0.8333333E-01  0.1250000E+00  0.6944444E-02
    1      -11.916173
    2      -11.765842
    3       -6.366007
    4       -6.276308
    5       -2.285060
    6       -2.246053
    7       -0.018686
    8        1.096348
    9        7.703551
   10        8.350468
   11       12.389693
   12       12.549294
 
  0.4166667E+00  0.8333333E-01  0.1250000E+00  0.6944444E-02
    1      -10.422882
    2      -10.299180
    3       -8.312877
    4       -8.213000
    5       -2.615109
    6       -2.574435
    7        1.447880
    8        2.169520
    9        6.007990
   10        6.587287
   11       12.268327
   12       12.540285
 
  0.5000000E+00  0.8333333E-01  0.1250000E+00  0.6944444E-02
    1      -10.425247
    2      -10.301482
    3       -8.310123
    4       -8.210131
    5       -2.615944
    6       -2.575259
    7        1.446451
    8        2.168892
    9        6.008305
   10        6.588926
   11       12.269312
   12       12.541265
 
 -0.4166667E+00  0.8333333E-01  0.1250000E+00  0.6944444E-02
    1      -11.918343
    2      -11.767996
    3       -6.362544
    4       -6.272807
    5       -2.287399
    6       -2.248350
    7       -0.020554
    8        1.094743
    9        7.704279
   10        8.352551
   11       12.391261
   12       12.549645
 
 -0.3333333E+00  0.8333333E-01  0.1250000E+00  0.6944444E-02
    1      -13.187377
    2      -13.021589
    3       -4.226954
    4       -4.159831
    5       -1.650568
    6       -1.615678
    7       -1.461827
    8       -0.196074
    9        9.981370
   10       10.467504
   11       11.029636
   12       12.765970
 
 -0.2500000E+00  0.8333333E-01  0.1250000E+00  0.6944444E-02
    1      -14.158747
    2      -13.981290
    3       -2.609981
    4       -2.140974
    5       -2.099981
    6       -1.264957
    7       -0.757719
    8       -0.731886
    9        9.815465
   10       12.219897
   11       12.518860
   12       13.045611
 
 -0.1666667E+00  0.8333333E-01  0.1250000E+00  0.6944444E-02
    1      -14.813479
    2      -14.628075
    3       -3.395748
    4       -2.006121
    5       -0.425230
    6       -0.406065
    7        0.253804
    8        0.267463
    9        9.002948
   10       12.941468
   11       13.033899
   12       13.967478
 
 -0.8333333E-01  0.8333333E-01  0.1250000E+00  0.3472222E-02
    1      -15.142651
    2      -14.953215
    3       -3.793390
    4       -2.383138
    5        0.603881
    6        0.623495
    7        0.936318
    8        0.952293
    9        8.596392
   10       12.663476
   11       12.722998
   12       13.323534
 
  0.1666667E+00  0.1666667E+00  0.1250000E+00  0.3472222E-02
    1      -13.346717
    2      -13.179027
    3       -3.471579
    4       -3.439187
    5       -2.116396
    6       -2.092744
    7       -1.645572
    8       -0.363221
    9       10.496045
   10       10.800085
   11       10.851441
   12       14.202769
 
  0.2500000E+00  0.1666667E+00  0.1250000E+00  0.6944444E-02
    1      -12.230568
    2      -12.076286
    3       -5.216513
    4       -5.153126
    5       -3.183247
    6       -3.139931
    7       -0.347936
    8        0.827451
    9        8.497587
   10        8.929079
   11       12.225691
   12       14.355142
 
  0.3333333E+00  0.1666667E+00  0.1250000E+00  0.6944444E-02
    1      -10.844002
    2      -10.708039
    3       -7.141739
    4       -7.051026
    5       -3.766570
    6       -3.711758
    7        1.168253
    8        2.125347
    9        6.554341
   10        7.084077
   11       13.902270
   12       14.144739
 
  0.4166667E+00  0.1666667E+00  0.1250000E+00  0.6944444E-02
    1       -9.580696
    2       -9.513276
    3       -8.548760
    4       -8.501379
    5       -3.954272
    6       -3.896727
    7        2.246329
    8        2.731739
    9        5.672929
   10        5.929796
   11       14.019254
   12       14.399583
 
  0.5000000E+00  0.1666667E+00  0.1250000E+00  0.6944444E-02
    1      -10.848737
    2      -10.712738
    3       -7.135434
    4       -7.044571
    5       -3.768949
    6       -3.714079
    7        1.164644
    8        2.122565
    9        6.554620
   10        7.088583
   11       13.896843
   12       14.145968
 
 -0.4166667E+00  0.1666667E+00  0.1250000E+00  0.6944444E-02
    1      -12.234442
    2      -12.080153
    3       -5.210934
    4       -5.147379
    5       -3.186288
    6       -3.142876
    7       -0.351454
    8        0.824160
    9        8.495983
   10        8.932987
   11       12.220421
   12       14.361209
 
 -0.3333333E+00  0.1666667E+00  0.1250000E+00  0.6944444E-02
    1      -13.349621
    2      -13.181922
    3       -3.473161
    4       -3.439993
    5       -2.113787
    6       -2.089693
    7       -1.648429
    8       -0.365991
    9       10.490875
   10       10.799978
   11       10.849719
   12       14.222012
 
 -0.2500000E+00  0.1666667E+00  0.1250000E+00  0.6944444E-02
    1      -14.159467
    2      -13.982008
    3       -2.610734
    4       -2.151978
    5       -2.110534
    6       -1.265719
    7       -0.745468
    8       -0.719410
    9        9.814516
   10       12.215800
   11       12.516696
   12       13.067333
 
 -0.1666667E+00  0.1666667E+00  0.1250000E+00  0.3472222E-02
    1      -14.649693
    2      -14.466294
    3       -3.198600
    4       -1.819760
    5       -1.045654
    6       -1.007186
    7        0.141409
    8        0.164624
    9        9.204208
   10       12.583827
   11       12.711218
   12       13.496545
 
  0.2500000E+00  0.2500000E+00  0.1250000E+00  0.3472222E-02
    1      -10.992750
    2      -10.854089
    3       -6.247564
    4       -6.201796
    5       -4.660603
    6       -4.626467
    7        1.056034
    8        2.086545
    9        6.890550
   10        7.300823
   11       13.739956
   12       15.657533
 
  0.3333333E+00  0.2500000E+00  0.1250000E+00  0.6944444E-02
    1       -9.556474
    2       -9.443923
    3       -7.683277
    4       -7.608341
    5       -5.382171
    6       -5.323938
    7        2.562816
    8        3.286089
    9        5.413932
   10        5.787558
   11       15.221026
   12       15.429471
 
  0.4166667E+00  0.2500000E+00  0.1250000E+00  0.6944444E-02
    1       -9.563641
    2       -9.450977
    3       -7.675749
    4       -7.600204
    5       -5.382997
    6       -5.324671
    7        2.558361
    8        3.283531
    9        5.411218
   10        5.795073
   11       15.208831
   12       15.438795
 
  0.5000000E+00  0.2500000E+00  0.1250000E+00  0.6944444E-02
    1      -10.999285
    2      -10.860626
    3       -6.243801
    4       -6.196946
    5       -4.658860
    6       -4.624012
    7        1.050727
    8        2.081354
    9        6.887393
   10        7.307129
   11       13.730990
   12       15.664609
 
 -0.4166667E+00  0.2500000E+00  0.1250000E+00  0.6944444E-02
    1      -12.235662
    2      -12.081378
    3       -5.220932
    4       -5.156936
    5       -3.174147
    6       -3.130469
    7       -0.352629
    8        0.822707
    9        8.491765
   10        8.930984
   11       12.219156
   12       14.392117
 
 -0.3333333E+00  0.2500000E+00  0.1250000E+00  0.6944444E-02
    1      -13.189304
    2      -13.023513
    3       -4.239758
    4       -4.172417
    5       -1.633758
    6       -1.598873
    7       -1.463777
    8       -0.198169
    9        9.974037
   10       10.462899
   11       11.027672
   12       12.794634
 
 -0.2500000E+00  0.2500000E+00  0.1250000E+00  0.3472222E-02
    1      -13.834605
    2      -13.661063
    3       -3.156196
    4       -3.095951
    5       -2.225129
    6       -0.905521
    7       -0.739231
    8       -0.711451
    9       10.206127
   10       11.312250
   11       11.737374
   12       12.278023
 
  0.3333333E+00  0.3333333E+00  0.1250000E+00  0.3472222E-02
    1       -8.348256
    2       -8.289247
    3       -8.287336
    4       -8.230061
    5       -6.243584
    6       -6.242979
    7        3.833011
    8        4.267166
    9        4.273528
   10        4.771616
   11       15.087012
   12       15.104060
 
  0.4166667E+00  0.3333333E+00  0.1250000E+00  0.6944444E-02
    1       -9.566309
    2       -9.453995
    3       -7.681449
    4       -7.605945
    5       -5.373863
    6       -5.315193
    7        2.557386
    8        3.277503
    9        5.412207
   10        5.794529
   11       15.208641
   12       15.444155
 
  0.5000000E+00  0.3333333E+00  0.1250000E+00  0.6944444E-02
    1      -10.851909
    2      -10.716003
    3       -7.145317
    4       -7.054367
    5       -3.753783
    6       -3.698892
    7        1.162192
    8        2.117802
    9        6.550611
   10        7.084829
   11       13.898169
   12       14.179684
 
 -0.4166667E+00  0.3333333E+00  0.1250000E+00  0.6944444E-02
    1      -11.922035
    2      -11.771720
    3       -6.373673
    4       -6.283823
    5       -2.269305
    6       -2.230310
    7       -0.023944
    8        1.090363
    9        7.697279
   10        8.346140
   11       12.411488
   12       12.572790
 
 -0.3333333E+00  0.3333333E+00  0.1250000E+00  0.3472222E-02
    1      -12.709717
    2      -12.549680
    3       -5.370458
    4       -5.288407
    5       -1.472640
    6       -1.442246
    7       -0.914730
    8        0.297781
    9        8.892782
   10        9.528500
   11       11.555118
   12       11.944099
 
  0.4166667E+00  0.4166667E+00  0.1250000E+00  0.3472222E-02
    1       -9.590496
    2       -9.524625
    3       -8.550201
    4       -8.503860
    5       -3.939537
    6       -3.881983
    7        2.244337
    8        2.718529
    9        5.675677
   10        5.924853
   11       14.056543
   12       14.437312
 
  0.5000000E+00  0.4166667E+00  0.1250000E+00  0.6944444E-02
    1      -10.432023
    2      -10.308664
    3       -8.317303
    4       -8.217558
    5       -2.597883
    6       -2.557247
    7        1.442744
    8        2.158883
    9        6.006544
   10        6.580814
   11       12.304110
   12       12.576139
 
 -0.4166667E+00  0.4166667E+00  0.1250000E+00  0.3472222E-02
    1      -11.306089
    2      -11.164380
    3       -7.478794
    4       -7.378013
    5       -1.945272
    6       -1.913607
    7        0.603182
    8        1.575820
    9        6.737775
   10        7.451412
   11       11.659237
   12       11.899803
 
  0.5000000E+00  0.5000000E+00  0.1250000E+00  0.1736111E-02
    1      -10.014752
    2       -9.945868
    3       -8.952351
    4       -8.899650
    5       -2.107508
    6       -2.075434
    7        1.644871
    8        2.128413
    9        5.788251
   10        6.299421
   11       11.571990
   12       11.829111
 
  0.0000000E+00  0.0000000E+00  0.2500000E+00  0.1736111E-02
    1      -15.285959
    2      -15.139478
    3       -3.847572
    4       -2.766705
    5        1.261833
    6        1.269754
    7        1.278470
    8        1.286150
    9        8.866867
   10       12.612364
   11       12.626264
   12       12.635317
 
  0.8333333E-01 -0.6938894E-17  0.2500000E+00  0.6944444E-02
    1      -15.121021
    2      -14.976080
    3       -3.648474
    4       -2.575072
    5        0.619110
    6        0.633996
    7        0.925128
    8        0.937432
    9        9.066100
   10       12.604136
   11       12.712378
   12       12.840253
 
  0.1666667E+00 -0.1387779E-16  0.2500000E+00  0.6944444E-02
    1      -14.627998
    2      -14.487668
    3       -3.055799
    4       -2.006076
    5       -1.027509
    6       -0.998250
    7        0.129286
    8        0.147127
    9        9.663253
   10       12.547942
   11       12.678405
   12       13.285078
 
  0.2500000E+00  0.0000000E+00  0.2500000E+00  0.6944444E-02
    1      -13.812769
    2      -13.679982
    3       -3.136338
    4       -3.090402
    5       -2.086407
    6       -1.081256
    7       -0.752445
    8       -0.731151
    9       10.619168
   10       11.392787
   11       11.675042
   12       12.263426
 
  0.3333333E+00 -0.2775558E-16  0.2500000E+00  0.6944444E-02
    1      -12.687637
    2      -12.565183
    3       -5.349966
    4       -5.287235
    5       -1.486816
    6       -1.463552
    7       -0.783931
    8        0.140800
    9        8.957902
   10        9.446104
   11       11.817047
   12       11.955995
 