32   
4    

1    
  0.0033107472635549  -0.0000012881476616   0.0094360452996761
  -0.2081492000    0.0097625500   -0.1328924600
   0.0331651900    0.0089047400   -0.0041201800
  -0.0018008900   -0.0113221200   -0.0040468900
  -0.0019064100    0.0292140000   -0.0042802100
  -0.0202381000    0.0080589200    0.0031541500
  -0.0202170500    0.0080597700    0.0031668000
  -0.0202250200    0.0080542800    0.0031668000
  -0.0202244200    0.0080628800    0.0031669400
   0.0167181400   -0.0119668000   -0.0032070300
   0.0165942900   -0.0120430800   -0.0032472400
   0.0167210900   -0.0118974900   -0.0032246300
   0.0165933000   -0.0119827300   -0.0029652600
   0.0154983100   -0.0061428600   -0.0032837500
   0.0155987900   -0.0062093500   -0.0032474400
   0.0156023800   -0.0062677700   -0.0032659600
   0.0154756000   -0.0062104600   -0.0028658600
   0.0012596800   -0.0077848800    0.0118941100
   0.0274633500   -0.0084699600    0.0476972600
   0.0713016200    0.0174286100    0.0480652800
   0.0713414800   -0.0331351700    0.0472533200
   0.0185738500   -0.0072587200   -0.0004406500
   0.0185736400   -0.0072588400   -0.0004330000
   0.0185760800   -0.0072573300   -0.0004351900
   0.0185750400   -0.0072598700   -0.0004279800
  -0.0156562300    0.0111622300    0.0007110600
  -0.0152880700    0.0112299900    0.0007228400
  -0.0155313600    0.0108895900    0.0007294200
  -0.0154043100    0.0110905700    0.0002525400
  -0.0131133800    0.0050242200    0.0007267800
  -0.0133751400    0.0050971900    0.0007052100
  -0.0133110300    0.0052892000    0.0007075400
  -0.0131912200    0.0051386900    0.0002636800

1    
 -0.0033107472635549   0.0000012881476616  -0.0094360452996761
   0.1792020500    0.0089079500    0.1330693100
  -0.0621260900    0.0080729800    0.0043122400
  -0.0270529100    0.0283207900    0.0043827100
  -0.0271614400   -0.0122170900    0.0043283700
  -0.0103977200    0.0091170500   -0.0029776500
  -0.0104179400    0.0091171100   -0.0029926400
  -0.0104105200    0.0091207400   -0.0029926400
  -0.0104102900    0.0091122400   -0.0029928400
   0.0162635100   -0.0129458800    0.0030793300
   0.0163687900   -0.0128729500    0.0031148200
   0.0162553900   -0.0130021700    0.0030949100
   0.0163756800   -0.0129309900    0.0026970400
   0.0144511500   -0.0052411200    0.0030463600
   0.0143398600   -0.0051772900    0.0030051300
   0.0143406100   -0.0051014900    0.0030268200
   0.0144478500   -0.0051520400    0.0027572100
   0.0242801300   -0.0072963100   -0.0119223500
  -0.0019260300   -0.0077667200   -0.0477280000
  -0.0459763900   -0.0326725400   -0.0473473900
  -0.0455868500    0.0178863100   -0.0480284900
   0.0084937800   -0.0078992100    0.0004290700
   0.0084938000   -0.0078999500    0.0004216600
   0.0084929400   -0.0078999900    0.0004196600
   0.0084915600   -0.0078979300    0.0004199800
  -0.0150693200    0.0119762600   -0.0006793700
  -0.0153380500    0.0119109400   -0.0006995100
  -0.0151447700    0.0121663100   -0.0006968500
  -0.0152694300    0.0120205300   -0.0002368900
  -0.0121761500    0.0041997800   -0.0007268900
  -0.0118268800    0.0041304000   -0.0006780900
  -0.0119415100    0.0038520600   -0.0006721700
  -0.0120647800    0.0040622100   -0.0002328500

17   
  0.0033107472635549  -0.0000012881476616   0.0094360452996761
  -0.0275983600    0.0083953400    0.0095652800
  -0.0013904000    0.0088700200    0.0453720200
   0.0426522800    0.0337543400    0.0449943300
   0.0422798200   -0.0167958100    0.0456647800
  -0.0099641700    0.0092065500   -0.0027786300
  -0.0099642800    0.0092074200   -0.0027710000
  -0.0099629700    0.0092078600   -0.0027763000
  -0.0099623400    0.0092053700   -0.0027624100
   0.0178095100   -0.0140626400    0.0030268600
   0.0178915800   -0.0140294500    0.0031123800
   0.0178258700   -0.0140645900    0.0030701700
   0.0179105500   -0.0140481200    0.0026085700
   0.0139384200   -0.0045923700    0.0030831600
   0.0138688100   -0.0044775600    0.0029658500
   0.0138082500   -0.0045279000    0.0030139100
   0.0139653100   -0.0045425600    0.0025653000
  -0.1789580400   -0.0082819700   -0.1354456300
   0.0622333900   -0.0074672400   -0.0072034600
   0.0275120900   -0.0275068200   -0.0072728700
   0.0276234300    0.0126402000   -0.0072272500
   0.0078117200   -0.0078951300    0.0004716800
   0.0078112100   -0.0078946100    0.0003530300
   0.0078123500   -0.0078947300    0.0003530700
   0.0078121300   -0.0078964200    0.0003541600
  -0.0169446300    0.0131275800   -0.0002574300
  -0.0166608600    0.0131318100   -0.0002178100
  -0.0168032900    0.0128983700   -0.0002702500
  -0.0167738600    0.0130392900   -0.0004086400
  -0.0112504800    0.0032355100   -0.0001637200
  -0.0115327100    0.0032419700   -0.0003167100
  -0.0113939400    0.0034805900   -0.0002788200
  -0.0114063900    0.0033356700   -0.0004236100

17   
 -0.0033107472635549   0.0000012881476616  -0.0094360452996761
  -0.0008557100    0.0088231900   -0.0095183500
  -0.0270642700    0.0094955200   -0.0453182000
  -0.0709069400   -0.0163900100   -0.0456834300
  -0.0709267500    0.0341605400   -0.0448851500
  -0.0225845400    0.0081854200    0.0028210300
  -0.0225841000    0.0081853400    0.0028135800
  -0.0225855200    0.0081845300    0.0028078300
  -0.0225868900    0.0081873600    0.0028161500
   0.0188032200   -0.0134193700   -0.0030475400
   0.0187305700   -0.0134448600   -0.0031346500
   0.0187852200   -0.0134064300   -0.0030818200
   0.0187034500   -0.0134275300   -0.0026342400
   0.0158164400   -0.0060482000   -0.0031483600
   0.0158872600   -0.0061867400   -0.0030575500
   0.0159671300   -0.0061254000   -0.0031014700
   0.0158033100   -0.0061134300   -0.0026381300
   0.2038789900   -0.0084418400    0.1354078300
  -0.0372969700   -0.0075913300    0.0071993300
  -0.0026930100    0.0124330700    0.0071271800
  -0.0025866000   -0.0277001200    0.0073710400
   0.0210920100   -0.0074329200   -0.0004618400
   0.0210912700   -0.0074321700   -0.0003407500
   0.0210905100   -0.0074337200   -0.0003408500
   0.0210905700   -0.0074325600   -0.0003416400
  -0.0174023000    0.0124756400    0.0002623800
  -0.0176778500    0.0124767100    0.0002289100
  -0.0175440500    0.0127137600    0.0002671600
  -0.0175729800    0.0125682200    0.0004063700
  -0.0136255200    0.0051327600    0.0001574100
  -0.0133352000    0.0051014100    0.0003334000
  -0.0134568300    0.0048802500    0.0002812100
  -0.0134539200    0.0050229300    0.0004331300
