Automatically generated mesh
     215
Reciprocal lattice
    0.00000000000000    0.00000000000000    0.00000000000000             1
    0.08333333333333   -0.00000000000000    0.00000000000000             4
    0.16666666666667   -0.00000000000000    0.00000000000000             4
    0.25000000000000    0.00000000000000    0.00000000000000             4
    0.33333333333333   -0.00000000000000    0.00000000000000             4
    0.41666666666667    0.00000000000000    0.00000000000000             4
    0.50000000000000    0.00000000000000    0.00000000000000             2
    0.08333333333333    0.08333333333333    0.00000000000000             2
    0.16666666666667    0.08333333333333    0.00000000000000             4
    0.25000000000000    0.08333333333333    0.00000000000000             4
    0.33333333333333    0.08333333333333    0.00000000000000             4
    0.41666666666667    0.08333333333333    0.00000000000000             4
    0.50000000000000    0.08333333333333    0.00000000000000             4
   -0.41666666666667    0.08333333333333    0.00000000000000             4
   -0.33333333333333    0.08333333333333    0.00000000000000             4
   -0.25000000000000    0.08333333333333    0.00000000000000             4
   -0.16666666666667    0.08333333333333    0.00000000000000             4
   -0.08333333333333    0.08333333333333    0.00000000000000             2
    0.16666666666667    0.16666666666667    0.00000000000000             2
    0.25000000000000    0.16666666666667    0.00000000000000             4
    0.33333333333333    0.16666666666667    0.00000000000000             4
    0.41666666666667    0.16666666666667    0.00000000000000             4
    0.50000000000000    0.16666666666667    0.00000000000000             4
   -0.41666666666667    0.16666666666667    0.00000000000000             4
   -0.33333333333333    0.16666666666667    0.00000000000000             4
   -0.25000000000000    0.16666666666667    0.00000000000000             4
   -0.16666666666667    0.16666666666667    0.00000000000000             2
    0.25000000000000    0.25000000000000    0.00000000000000             2
    0.33333333333333    0.25000000000000    0.00000000000000             4
    0.41666666666667    0.25000000000000    0.00000000000000             4
    0.50000000000000    0.25000000000000    0.00000000000000             4
   -0.41666666666667    0.25000000000000    0.00000000000000             4
   -0.33333333333333    0.25000000000000    0.00000000000000             4
   -0.25000000000000    0.25000000000000    0.00000000000000             2
    0.33333333333333    0.33333333333333    0.00000000000000             2
    0.41666666666667    0.33333333333333    0.00000000000000             4
    0.50000000000000    0.33333333333333    0.00000000000000             4
   -0.41666666666667    0.33333333333333    0.00000000000000             4
   -0.33333333333333    0.33333333333333    0.00000000000000             2
    0.41666666666667    0.41666666666667    0.00000000000000             2
    0.50000000000000    0.41666666666667    0.00000000000000             4
   -0.41666666666667    0.41666666666667    0.00000000000000             2
    0.50000000000000    0.50000000000000    0.00000000000000             1
    0.00000000000000    0.00000000000000    0.12500000000000             2
    0.08333333333333   -0.00000000000000    0.12500000000000             8
    0.16666666666667   -0.00000000000000    0.12500000000000             8
    0.25000000000000    0.00000000000000    0.12500000000000             8
    0.33333333333333   -0.00000000000000    0.12500000000000             8
    0.41666666666667    0.00000000000000    0.12500000000000             8
    0.50000000000000    0.00000000000000    0.12500000000000             4
    0.08333333333333    0.08333333333333    0.12500000000000             4
    0.16666666666667    0.08333333333333    0.12500000000000             8
    0.25000000000000    0.08333333333333    0.12500000000000             8
    0.33333333333333    0.08333333333333    0.12500000000000             8
    0.41666666666667    0.08333333333333    0.12500000000000             8
    0.50000000000000    0.08333333333333    0.12500000000000             8
   -0.41666666666667    0.08333333333333    0.12500000000000             8
   -0.33333333333333    0.08333333333333    0.12500000000000             8
   -0.25000000000000    0.08333333333333    0.12500000000000             8
   -0.16666666666667    0.08333333333333    0.12500000000000             8
   -0.08333333333333    0.08333333333333    0.12500000000000             4
    0.16666666666667    0.16666666666667    0.12500000000000             4
    0.25000000000000    0.16666666666667    0.12500000000000             8
    0.33333333333333    0.16666666666667    0.12500000000000             8
    0.41666666666667    0.16666666666667    0.12500000000000             8
    0.50000000000000    0.16666666666667    0.12500000000000             8
   -0.41666666666667    0.16666666666667    0.12500000000000             8
   -0.33333333333333    0.16666666666667    0.12500000000000             8
   -0.25000000000000    0.16666666666667    0.12500000000000             8
   -0.16666666666667    0.16666666666667    0.12500000000000             4
    0.25000000000000    0.25000000000000    0.12500000000000             4
    0.33333333333333    0.25000000000000    0.12500000000000             8
    0.41666666666667    0.25000000000000    0.12500000000000             8
    0.50000000000000    0.25000000000000    0.12500000000000             8
   -0.41666666666667    0.25000000000000    0.12500000000000             8
   -0.33333333333333    0.25000000000000    0.12500000000000             8
   -0.25000000000000    0.25000000000000    0.12500000000000             4
    0.33333333333333    0.33333333333333    0.12500000000000             4
    0.41666666666667    0.33333333333333    0.12500000000000             8
    0.50000000000000    0.33333333333333    0.12500000000000             8
   -0.41666666666667    0.33333333333333    0.12500000000000             8
   -0.33333333333333    0.33333333333333    0.12500000000000             4
    0.41666666666667    0.41666666666667    0.12500000000000             4
    0.50000000000000    0.41666666666667    0.12500000000000             8
   -0.41666666666667    0.41666666666667    0.12500000000000             4
    0.50000000000000    0.50000000000000    0.12500000000000             2
    0.00000000000000    0.00000000000000    0.25000000000000             2
    0.08333333333333   -0.00000000000000    0.25000000000000             8
    0.16666666666667   -0.00000000000000    0.25000000000000             8
    0.25000000000000    0.00000000000000    0.25000000000000             8
    0.33333333333333   -0.00000000000000    0.25000000000000             8
    0.41666666666667    0.00000000000000    0.25000000000000             8
    0.50000000000000    0.00000000000000    0.25000000000000             4
    0.08333333333333    0.08333333333333    0.25000000000000             4
    0.16666666666667    0.08333333333333    0.25000000000000             8
    0.25000000000000    0.08333333333333    0.25000000000000             8
    0.33333333333333    0.08333333333333    0.25000000000000             8
    0.41666666666667    0.08333333333333    0.25000000000000             8
    0.50000000000000    0.08333333333333    0.25000000000000             8
   -0.41666666666667    0.08333333333333    0.25000000000000             8
   -0.33333333333333    0.08333333333333    0.25000000000000             8
   -0.25000000000000    0.08333333333333    0.25000000000000             8
   -0.16666666666667    0.08333333333333    0.25000000000000             8
   -0.08333333333333    0.08333333333333    0.25000000000000             4
    0.16666666666667    0.16666666666667    0.25000000000000             4
    0.25000000000000    0.16666666666667    0.25000000000000             8
    0.33333333333333    0.16666666666667    0.25000000000000             8
    0.41666666666667    0.16666666666667    0.25000000000000             8
    0.50000000000000    0.16666666666667    0.25000000000000             8
   -0.41666666666667    0.16666666666667    0.25000000000000             8
   -0.33333333333333    0.16666666666667    0.25000000000000             8
   -0.25000000000000    0.16666666666667    0.25000000000000             8
   -0.16666666666667    0.16666666666667    0.25000000000000             4
    0.25000000000000    0.25000000000000    0.25000000000000             4
    0.33333333333333    0.25000000000000    0.25000000000000             8
    0.41666666666667    0.25000000000000    0.25000000000000             8
    0.50000000000000    0.25000000000000    0.25000000000000             8
   -0.41666666666667    0.25000000000000    0.25000000000000             8
   -0.33333333333333    0.25000000000000    0.25000000000000             8
   -0.25000000000000    0.25000000000000    0.25000000000000             4
    0.33333333333333    0.33333333333333    0.25000000000000             4
    0.41666666666667    0.33333333333333    0.25000000000000             8
    0.50000000000000    0.33333333333333    0.25000000000000             8
   -0.41666666666667    0.33333333333333    0.25000000000000             8
   -0.33333333333333    0.33333333333333    0.25000000000000             4
    0.41666666666667    0.41666666666667    0.25000000000000             4
    0.50000000000000    0.41666666666667    0.25000000000000             8
   -0.41666666666667    0.41666666666667    0.25000000000000             4
    0.50000000000000    0.50000000000000    0.25000000000000             2
    0.00000000000000    0.00000000000000    0.37500000000000             2
    0.08333333333333   -0.00000000000000    0.37500000000000             8
    0.16666666666667   -0.00000000000000    0.37500000000000             8
    0.25000000000000    0.00000000000000    0.37500000000000             8
    0.33333333333333   -0.00000000000000    0.37500000000000             8
    0.41666666666667    0.00000000000000    0.37500000000000             8
    0.50000000000000    0.00000000000000    0.37500000000000             4
    0.08333333333333    0.08333333333333    0.37500000000000             4
    0.16666666666667    0.08333333333333    0.37500000000000             8
    0.25000000000000    0.08333333333333    0.37500000000000             8
    0.33333333333333    0.08333333333333    0.37500000000000             8
    0.41666666666667    0.08333333333333    0.37500000000000             8
    0.50000000000000    0.08333333333333    0.37500000000000             8
   -0.41666666666667    0.08333333333333    0.37500000000000             8
   -0.33333333333333    0.08333333333333    0.37500000000000             8
   -0.25000000000000    0.08333333333333    0.37500000000000             8
   -0.16666666666667    0.08333333333333    0.37500000000000             8
   -0.08333333333333    0.08333333333333    0.37500000000000             4
    0.16666666666667    0.16666666666667    0.37500000000000             4
    0.25000000000000    0.16666666666667    0.37500000000000             8
    0.33333333333333    0.16666666666667    0.37500000000000             8
    0.41666666666667    0.16666666666667    0.37500000000000             8
    0.50000000000000    0.16666666666667    0.37500000000000             8
   -0.41666666666667    0.16666666666667    0.37500000000000             8
   -0.33333333333333    0.16666666666667    0.37500000000000             8
   -0.25000000000000    0.16666666666667    0.37500000000000             8
   -0.16666666666667    0.16666666666667    0.37500000000000             4
    0.25000000000000    0.25000000000000    0.37500000000000             4
    0.33333333333333    0.25000000000000    0.37500000000000             8
    0.41666666666667    0.25000000000000    0.37500000000000             8
    0.50000000000000    0.25000000000000    0.37500000000000             8
   -0.41666666666667    0.25000000000000    0.37500000000000             8
   -0.33333333333333    0.25000000000000    0.37500000000000             8
   -0.25000000000000    0.25000000000000    0.37500000000000             4
    0.33333333333333    0.33333333333333    0.37500000000000             4
    0.41666666666667    0.33333333333333    0.37500000000000             8
    0.50000000000000    0.33333333333333    0.37500000000000             8
   -0.41666666666667    0.33333333333333    0.37500000000000             8
   -0.33333333333333    0.33333333333333    0.37500000000000             4
    0.41666666666667    0.41666666666667    0.37500000000000             4
    0.50000000000000    0.41666666666667    0.37500000000000             8
   -0.41666666666667    0.41666666666667    0.37500000000000             4
    0.50000000000000    0.50000000000000    0.37500000000000             2
    0.00000000000000    0.00000000000000    0.50000000000000             1
    0.08333333333333   -0.00000000000000    0.50000000000000             4
    0.16666666666667   -0.00000000000000    0.50000000000000             4
    0.25000000000000    0.00000000000000    0.50000000000000             4
    0.33333333333333   -0.00000000000000    0.50000000000000             4
    0.41666666666667    0.00000000000000    0.50000000000000             4
    0.50000000000000    0.00000000000000    0.50000000000000             2
    0.08333333333333    0.08333333333333    0.50000000000000             2
    0.16666666666667    0.08333333333333    0.50000000000000             4
    0.25000000000000    0.08333333333333    0.50000000000000             4
    0.33333333333333    0.08333333333333    0.50000000000000             4
    0.41666666666667    0.08333333333333    0.50000000000000             4
    0.50000000000000    0.08333333333333    0.50000000000000             4
   -0.41666666666667    0.08333333333333    0.50000000000000             4
   -0.33333333333333    0.08333333333333    0.50000000000000             4
   -0.25000000000000    0.08333333333333    0.50000000000000             4
   -0.16666666666667    0.08333333333333    0.50000000000000             4
   -0.08333333333333    0.08333333333333    0.50000000000000             2
    0.16666666666667    0.16666666666667    0.50000000000000             2
    0.25000000000000    0.16666666666667    0.50000000000000             4
    0.33333333333333    0.16666666666667    0.50000000000000             4
    0.41666666666667    0.16666666666667    0.50000000000000             4
    0.50000000000000    0.16666666666667    0.50000000000000             4
   -0.41666666666667    0.16666666666667    0.50000000000000             4
   -0.33333333333333    0.16666666666667    0.50000000000000             4
   -0.25000000000000    0.16666666666667    0.50000000000000             4
   -0.16666666666667    0.16666666666667    0.50000000000000             2
    0.25000000000000    0.25000000000000    0.50000000000000             2
    0.33333333333333    0.25000000000000    0.50000000000000             4
    0.41666666666667    0.25000000000000    0.50000000000000             4
    0.50000000000000    0.25000000000000    0.50000000000000             4
   -0.41666666666667    0.25000000000000    0.50000000000000             4
   -0.33333333333333    0.25000000000000    0.50000000000000             4
   -0.25000000000000    0.25000000000000    0.50000000000000             2
    0.33333333333333    0.33333333333333    0.50000000000000             2
    0.41666666666667    0.33333333333333    0.50000000000000             4
    0.50000000000000    0.33333333333333    0.50000000000000             4
   -0.41666666666667    0.33333333333333    0.50000000000000             4
   -0.33333333333333    0.33333333333333    0.50000000000000             2
    0.41666666666667    0.41666666666667    0.50000000000000             2
    0.50000000000000    0.41666666666667    0.50000000000000             4
   -0.41666666666667    0.41666666666667    0.50000000000000             2
    0.50000000000000    0.50000000000000    0.50000000000000             1
Tetrahedra
      1728    0.00014467592593
         4         2         2         8        45
         4         1         2         2        45
         4         1         2        44        45
         4         2         8        45        51
         4         2        45        45        51
         4         2        44        45        45
         4         3         8         9        51
         4         2         3         8        51
         4         2         3        45        51
         4         3         9        51        52
         4         3        46        51        52
         4         3        45        46        51
         4         4         9        10        52
         4         3         4         9        52
         4         3         4        46        52
         4         4        10        52        53
         4         4        47        52        53
         4         4        46        47        52
         4         5        10        11        53
         4         4         5        10        53
         4         4         5        47        53
         4         5        11        53        54
         4         5        48        53        54
         4         5        47        48        53
         4         6        11        12        54
         4         5         6        11        54
         4         5         6        48        54
         4         6        12        54        55
         4         6        49        54        55
         4         6        48        49        54
         4         7        12        13        55
         4         6         7        12        55
         4         6         7        49        55
         4         7        13        55        56
         4         7        50        55        56
         4         7        49        50        55
         4         6        13        14        56
         4         6         7        13        56
         4         6         7        50        56
         4         6        14        56        57
         4         6        49        56        57
         4         6        49        50        56
         4         5        14        15        57
         4         5         6        14        57
         4         5         6        49        57
         4         5        15        57        58
         4         5        48        57        58
         4         5        48        49        57
         4         4        15        16        58
         4         4         5        15        58
         4         4         5        48        58
         4         4        16        58        59
         4         4        47        58        59
         4         4        47        48        58
         4         3        16        17        59
         4         3         4        16        59
         4         3         4        47        59
         4         3        17        59        60
         4         3        46        59        60
         4         3        46        47        59
         4         2        17        18        60
         4         2         3        17        60
         4         2         3        46        60
         4         2        18        60        61
         4         2        45        60        61
         4         2        45        46        60
         4         1         2        18        61
         4         1         2        45        61
         4         1        44        45        61
         4         3         8         9        46
         4         2         3         8        46
         4         2         8        45        46
         4         8         9        46        52
         4         8        46        51        52
         4         8        45        46        51
         4         9         9        19        52
         4         8         9         9        52
         4         8         9        51        52
         4         9        19        52        62
         4         9        52        52        62
         4         9        51        52        52
         4        10        19        20        62
         4         9        10        19        62
         4         9        10        52        62
         4        10        20        62        63
         4        10        53        62        63
         4        10        52        53        62
         4        11        20        21        63
         4        10        11        20        63
         4        10        11        53        63
         4        11        21        63        64
         4        11        54        63        64
         4        11        53        54        63
         4        12        21        22        64
         4        11        12        21        64
         4        11        12        54        64
         4        12        22        64        65
         4        12        55        64        65
         4        12        54        55        64
         4        13        22        23        65
         4        12        13        22        65
         4        12        13        55        65
         4        13        23        65        66
         4        13        56        65        66
         4        13        55        56        65
         4        14        23        24        66
         4        13        14        23        66
         4        13        14        56        66
         4        14        24        66        67
         4        14        57        66        67
         4        14        56        57        66
         4        15        24        25        67
         4        14        15        24        67
         4        14        15        57        67
         4        15        25        67        68
         4        15        58        67        68
         4        15        57        58        67
         4        16        25        26        68
         4        15        16        25        68
         4        15        16        58        68
         4        16        26        68        69
         4        16        59        68        69
         4        16        58        59        68
         4        17        26        27        69
         4        16        17        26        69
         4        16        17        59        69
         4        17        27        69        70
         4        17        60        69        70
         4        17        59        60        69
         4        17        18        27        70
         4        17        18        60        70
         4        18        60        61        70
         4         4         9        10        47
         4         3         4         9        47
         4         3         9        46        47
         4         9        10        47        53
         4         9        47        52        53
         4         9        46        47        52
         4        10        19        20        53
         4         9        10        19        53
         4         9        19        52        53
         4        19        20        53        63
         4        19        53        62        63
         4        19        52        53        62
         4        20        20        28        63
         4        19        20        20        63
         4        19        20        62        63
         4        20        28        63        71
         4        20        63        63        71
         4        20        62        63        63
         4        21        28        29        71
         4        20        21        28        71
         4        20        21        63        71
         4        21        29        71        72
         4        21        64        71        72
         4        21        63        64        71
         4        22        29        30        72
         4        21        22        29        72
         4        21        22        64        72
         4        22        30        72        73
         4        22        65        72        73
         4        22        64        65        72
         4        23        30        31        73
         4        22        23        30        73
         4        22        23        65        73
         4        23        31        73        74
         4        23        66        73        74
         4        23        65        66        73
         4        24        31        32        74
         4        23        24        31        74
         4        23        24        66        74
         4        24        32        74        75
         4        24        67        74        75
         4        24        66        67        74
         4        25        32        33        75
         4        24        25        32        75
         4        24        25        67        75
         4        25        33        75        76
         4        25        68        75        76
         4        25        67        68        75
         4        26        33        34        76
         4        25        26        33        76
         4        25        26        68        76
         4        26        34        76        77
         4        26        69        76        77
         4        26        68        69        76
         4        26        27        34        77
         4        26        27        69        77
         4        27        69        70        77
         4         5        10        11        48
         4         4         5        10        48
         4         4        10        47        48
         4        10        11        48        54
         4        10        48        53        54
         4        10        47        48        53
         4        11        20        21        54
         4        10        11        20        54
         4        10        20        53        54
         4        20        21        54        64
         4        20        54        63        64
         4        20        53        54        63
         4        21        28        29        64
         4        20        21        28        64
         4        20        28        63        64
         4        28        29        64        72
         4        28        64        71        72
         4        28        63        64        71
         4        29        29        35        72
         4        28        29        29        72
         4        28        29        71        72
         4        29        35        72        78
         4        29        72        72        78
         4        29        71        72        72
         4        30        35        36        78
         4        29        30        35        78
         4        29        30        72        78
         4        30        36        78        79
         4        30        73        78        79
         4        30        72        73        78
         4        31        36        37        79
         4        30        31        36        79
         4        30        31        73        79
         4        31        37        79        80
         4        31        74        79        80
         4        31        73        74        79
         4        32        37        38        80
         4        31        32        37        80
         4        31        32        74        80
         4        32        38        80        81
         4        32        75        80        81
         4        32        74        75        80
         4        33        38        39        81
         4        32        33        38        81
         4        32        33        75        81
         4        33        39        81        82
         4        33        76        81        82
         4        33        75        76        81
         4        33        34        39        82
         4        33        34        76        82
         4        34        76        77        82
         4         6        11        12        49
         4         5         6        11        49
         4         5        11        48        49
         4        11        12        49        55
         4        11        49        54        55
         4        11        48        49        54
         4        12        21        22        55
         4        11        12        21        55
         4        11        21        54        55
         4        21        22        55        65
         4        21        55        64        65
         4        21        54        55        64
         4        22        29        30        65
         4        21        22        29        65
         4        21        29        64        65
         4        29        30        65        73
         4        29        65        72        73
         4        29        64        65        72
         4        30        35        36        73
         4        29        30        35        73
         4        29        35        72        73
         4        35        36        73        79
         4        35        73        78        79
         4        35        72        73        78
         4        36        36        40        79
         4        35        36        36        79
         4        35        36        78        79
         4        36        40        79        83
         4        36        79        79        83
         4        36        78        79        79