 running on    6 total cores
 distrk:  each k-point on    6 cores,    1 groups
 distr:  one band on    3 cores,    2 groups
 using from now: INCAR     
 vasp.5.3.5 31Mar14 (build Nov 04 2014 22:34:45) complex                        
  
 POSCAR found type information on POSCAR  C 
 POSCAR found :  1 types and       4 ions
 scaLAPACK will be used
 LDA part: xc-table for Pade appr. of Perdew
 POSCAR, INCAR and KPOINTS ok, starting setup
 WARNING: small aliasing (wrap around) errors must be expected
 FFT: planning ...
 WAVECAR not read
 WARNING: random wavefunctions but no delay for mixing, default for NELMDL
 entering main loop
       N       E                     dE             d eps       ncg     rms          rms(c)
DAV:   1     0.747313104931E+02    0.74731E+02   -0.10415E+04  5160   0.172E+03
DAV:   2    -0.338970199913E+02   -0.10863E+03   -0.10012E+03  7320   0.270E+02
DAV:   3    -0.392120391695E+02   -0.53150E+01   -0.52666E+01  6512   0.604E+01
DAV:   4    -0.392857541551E+02   -0.73715E-01   -0.73543E-01  6356   0.810E+00
DAV:   5    -0.392873989252E+02   -0.16448E-02   -0.16437E-02  6488   0.118E+00    0.781E+00
DAV:   6    -0.374602459815E+02    0.18272E+01   -0.18027E+00  5976   0.936E+00    0.410E+00
DAV:   7    -0.368725761508E+02    0.58767E+00   -0.19102E+00  6128   0.972E+00    0.690E-01
DAV:   8    -0.368820679738E+02   -0.94918E-02   -0.54068E-02  5900   0.162E+00    0.923E-02
DAV:   9    -0.368822716429E+02   -0.20367E-03   -0.13811E-03  6500   0.310E-01    0.402E-02
DAV:  10    -0.368824441820E+02   -0.17254E-03   -0.20777E-04  6200   0.127E-01    0.616E-03
DAV:  11    -0.368824456990E+02   -0.15169E-05   -0.39310E-06  6744   0.171E-02    0.185E-03
DAV:  12    -0.368824461168E+02   -0.41785E-06   -0.35645E-07  6336   0.535E-03    0.922E-04
DAV:  13    -0.368824462598E+02   -0.14296E-06   -0.29216E-07  6312   0.461E-03    0.143E-04
DAV:  14    -0.368824462426E+02    0.17145E-07   -0.25651E-09  4548   0.513E-04    0.644E-05
DAV:  15    -0.368824462425E+02    0.98453E-10   -0.60650E-10  4332   0.277E-04
   1 F= -.37473756E+02 E0= -.37473756E+02  d E =-.374738E+02
 curvature:   0.00 expect dE= 0.000E+00 dE for cont linesearch  0.000E+00
 trial: gam= 0.00000 g(F)=  0.971E-04 g(S)=  0.000E+00 ort = 0.000E+00 (trialstep = 0.100E+01)
 search vector abs. value=  0.971E-04
 reached required accuracy - stopping structural energy minimisation
