mesh: [     9,     9,     4 ]
nqpoint: 50     
reciprocal_lattice:
- [   0.40553429,   0.23434576,   0.00000000 ] # a*
- [   0.00018224,   0.46837588,   0.00000000 ] # b*
- [   0.00000000,   0.00000000,   0.14225448 ] # c*
natom:   4      
lattice:
- [     2.466437248995937,    -0.000959642981403,     0.000000000000000 ] # a
- [    -1.234049699648306,     2.135517492938035,     0.000000000000000 ] # b
- [     0.000000000000000,     0.000000000000000,     7.029655771834440 ] # c
points:
- symbol: C  # 1
  coordinates: [  0.999346608899160,  0.000653437440448,  0.250000000000000 ]
  mass: 12.010700
- symbol: C  # 2
  coordinates: [  0.000653437440448,  0.999346608899160,  0.750000000000000 ]
  mass: 12.010700
- symbol: C  # 3
  coordinates: [  0.332584924946424,  0.667415057713967,  0.250000000000000 ]
  mass: 12.010700
- symbol: C  # 4
  coordinates: [  0.667415057713967,  0.332584924946424,  0.750000000000000 ]
  mass: 12.010700
phonon:
- q-position: [    0.0000000,    0.0000000,    0.1250000 ]
  weight: 2    
  band:
  - # 1
    frequency:    -2.2314610597
  - # 2
    frequency:    -1.1234157261
  - # 3
    frequency:    -0.6913743758
  - # 4
    frequency:    -0.5858869368
  - # 5
    frequency:     0.3620245773
  - # 6
    frequency:     0.6386282897
  - # 7
    frequency:    24.0465747312
  - # 8
    frequency:    26.1766832397
  - # 9
    frequency:    39.6385439197
  - # 10
    frequency:    40.0849348497
  - # 11
    frequency:    40.7238337515
  - # 12
    frequency:    41.0519274887

- q-position: [    0.1111111,    0.0000000,    0.1250000 ]
  weight: 8    
  band:
  - # 1
    frequency:     3.5893992568
  - # 2
    frequency:     4.5619036582
  - # 3
    frequency:     6.0024652484
  - # 4
    frequency:     6.1973507653
  - # 5
    frequency:    11.3025992173
  - # 6
    frequency:    11.4883980973
  - # 7
    frequency:    23.6159040191
  - # 8
    frequency:    25.5784095777
  - # 9
    frequency:    39.9887341873
  - # 10
    frequency:    40.7721593107
  - # 11
    frequency:    41.0873222016
  - # 12
    frequency:    41.5142129287

- q-position: [    0.2222222,    0.0000000,    0.1250000 ]
  weight: 8    
  band:
  - # 1
    frequency:     7.4348167076
  - # 2
    frequency:     8.3342367522
  - # 3
    frequency:    11.6712895228
  - # 4
    frequency:    11.8344753406
  - # 5
    frequency:    22.0625221538
  - # 6
    frequency:    22.2085975601
  - # 7
    frequency:    22.4183210472
  - # 8
    frequency:    23.9149681743
  - # 9
    frequency:    40.6858534117
  - # 10
    frequency:    41.4791716288
  - # 11
    frequency:    42.2967509842
  - # 12
    frequency:    42.8180143321

- q-position: [    0.3333333,    0.0000000,    0.1250000 ]
  weight: 8    
  band:
  - # 1
    frequency:    10.8563027894
  - # 2
    frequency:    11.5692902806
  - # 3
    frequency:    16.0562475993
  - # 4
    frequency:    16.1498964099
  - # 5
    frequency:    20.7245763674
  - # 6
    frequency:    21.5692310608
  - # 7
    frequency:    31.1676913166
  - # 8
    frequency:    31.2876995790
  - # 9
    frequency:    41.3762378090
  - # 10
    frequency:    41.7921403127
  - # 11
    frequency:    43.1299765086
  - # 12
    frequency:    43.4180635321

- q-position: [    0.4444444,    0.0000000,    0.1250000 ]
  weight: 8    
  band:
  - # 1
    frequency:    13.5197206323
  - # 2
    frequency:    13.8527590842
  - # 3
    frequency:    18.4994603477
  - # 4
    frequency:    18.5212332562
  - # 5
    frequency:    19.0918199771
  - # 6
    frequency:    19.3082753430
  - # 7
    frequency:    37.9370471720
  - # 8
    frequency:    38.0024148358
  - # 9
    frequency:    41.7922179164
  - # 10
    frequency:    41.9106603028
  - # 11
    frequency:    41.9437056402
  - # 12
    frequency:    42.0427948158

- q-position: [    0.1111111,    0.1111111,    0.1250000 ]
  weight: 4    
  band:
  - # 1
    frequency:     7.0989736140
  - # 2
    frequency:     7.2070227645
  - # 3
    frequency:    10.3331682767
  - # 4
    frequency:    10.6951251277
  - # 5
    frequency:    18.8303329664
  - # 6
    frequency:    18.9593291839
  - # 7
    frequency:    22.7546883264
  - # 8
    frequency:    24.3521416900
  - # 9
    frequency:    40.6441468186
  - # 10
    frequency:    41.6680029329
  - # 11
    frequency:    41.9413266033
  - # 12
    frequency:    42.3719120843

- q-position: [    0.2222222,    0.1111111,    0.1250000 ]
  weight: 8    
  band:
  - # 1
    frequency:    10.2416647770
  - # 2
    frequency:    10.5519424640
  - # 3
    frequency:    15.6400559874
  - # 4
    frequency:    15.9803486227
  - # 5
    frequency:    21.2530971259
  - # 6
    frequency:    22.2613812405
  - # 7
    frequency:    27.1669063987
  - # 8
    frequency:    27.2766954883
  - # 9
    frequency:    41.5909057039
  - # 10
    frequency:    42.1898775770
  - # 11
    frequency:    42.9720458606
  - # 12
    frequency:    43.2707585682

- q-position: [    0.3333333,    0.1111111,    0.1250000 ]
  weight: 8    
  band:
  - # 1
    frequency:    13.0580226323
  - # 2
    frequency:    13.2738533674
  - # 3
    frequency:    19.4812272629
  - # 4
    frequency:    19.5356997978
  - # 5
    frequency:    19.7913558072
  - # 6
    frequency:    19.8428487089
  - # 7
    frequency:    34.3466917905
  - # 8
    frequency:    34.4429004086
  - # 9
    frequency:    42.0363170327
  - # 10
    frequency:    42.1983537191
  - # 11
    frequency:    42.8687250198
  - # 12
    frequency:    43.0998060156

- q-position: [   -0.5555556,    0.1111111,    0.1250000 ]
  weight: 8    
  band:
  - # 1
    frequency:    14.2355138893
  - # 2
    frequency:    14.5831683058
  - # 3
    frequency:    18.5154664306
  - # 4
    frequency:    18.5679400072
  - # 5
    frequency:    21.1487207791
  - # 6
    frequency:    21.3941476175
  - # 7
    frequency:    39.4056866013
  - # 8
    frequency:    39.4314809719
  - # 9
    frequency:    39.8535519421
  - # 10
    frequency:    39.9227620610
  - # 11
    frequency:    42.7013335898
  - # 12
    frequency:    42.7357401163

- q-position: [   -0.4444444,    0.1111111,    0.1250000 ]
  weight: 8    
  band:
  - # 1
    frequency:    12.2531017565
  - # 2
    frequency:    13.0764010063
  - # 3
    frequency:    19.7170127661
  - # 4
    frequency:    20.1435392080
  - # 5
    frequency:    20.2585330559
  - # 6
    frequency:    20.4096830529
  - # 7
    frequency:    34.7141000741
  - # 8
    frequency:    34.8347168019
  - # 9
    frequency:    41.6770964787
  - # 10
    frequency:    41.9132402658
  - # 11
    frequency:    42.6297132602
  - # 12
    frequency:    42.7668455968

- q-position: [   -0.3333333,    0.1111111,    0.1250000 ]
  weight: 8    
  band:
  - # 1
    frequency:     9.1616818801
  - # 2
    frequency:    10.3480610048
  - # 3
    frequency:    16.6362926813
  - # 4
    frequency:    16.9257501923
  - # 5
    frequency:    21.4463689701
  - # 6
    frequency:    22.6511312143
  - # 7
    frequency:    27.5551945311
  - # 8
    frequency:    27.7335067432
  - # 9
    frequency:    41.2738687192
  - # 10
    frequency:    41.7705012977
  - # 11
    frequency:    42.6103927584
  - # 12
    frequency:    43.0429518139

- q-position: [   -0.2222222,    0.1111111,    0.1250000 ]
  weight: 8    
  band:
  - # 1
    frequency:     5.6598029273
  - # 2
    frequency:     7.2548884811
  - # 3
    frequency:    11.2285107244
  - # 4
    frequency:    11.5550361654
  - # 5
    frequency:    19.3085607629
  - # 6
    frequency:    19.5627133827
  - # 7
    frequency:    22.8714320666
  - # 8
    frequency:    24.6140168668
  - # 9
    frequency:    40.5809754064
  - # 10
    frequency:    41.2524878159
  - # 11
    frequency:    41.4898646366
  - # 12
    frequency:    42.3148574483

- q-position: [   -0.1111111,    0.1111111,    0.1250000 ]
  weight: 4    
  band:
  - # 1
    frequency:     2.4633772260
  - # 2
    frequency:     4.6135069769
  - # 3
    frequency:     5.9341973560
  - # 4
    frequency:     6.4077049195
  - # 5
    frequency:    11.8104060168
  - # 6
    frequency:    12.1282434125
  - # 7
    frequency:    23.6545028517
  - # 8
    frequency:    25.6702588380
  - # 9
    frequency:    40.2766350268
  - # 10
    frequency:    40.2960460497
  - # 11
    frequency:    40.8846122443
  - # 12
    frequency:    41.5451165729

- q-position: [    0.2222222,    0.2222222,    0.1250000 ]
  weight: 4    
  band:
  - # 1
    frequency:    12.9227834353
  - # 2
    frequency:    13.0350525808
  - # 3
    frequency:    19.6204465498
  - # 4
    frequency:    20.0308071214
  - # 5
    frequency:    21.4114574313
  - # 6
    frequency:    21.7999386392
  - # 7
    frequency:    31.9110727420
  - # 8
    frequency:    31.9941045146
  - # 9
    frequency:    42.5037575466
  - # 10
    frequency:    42.6048884964
  - # 11
    frequency:    42.8508323444
  - # 12
    frequency:    43.1680060795

- q-position: [    0.3333333,    0.2222222,    0.1250000 ]
  weight: 8    
  band:
  - # 1
    frequency:    14.9528586254
  - # 2
    frequency:    15.1323083908
  - # 3
    frequency:    17.8999166899
  - # 4
    frequency:    18.0000821263
  - # 5
    frequency:    25.4487782840
  - # 6
    frequency:    25.7565237586
  - # 7
    frequency:    36.1709934328
  - # 8
    frequency:    36.2345149178
  - # 9
    frequency:    40.3292812888
  - # 10
    frequency:    40.3487477604
  - # 11
    frequency:    43.6473179690
  - # 12
    frequency:    43.7391036709

- q-position: [   -0.5555556,    0.2222222,    0.1250000 ]
  weight: 8    
  band:
  - # 1
    frequency:    14.1630279670
  - # 2
    frequency:    14.8135501762
  - # 3
    frequency:    18.3245483182
  - # 4
    frequency:    18.4802045270
  - # 5
    frequency:    25.9438378347
  - # 6
    frequency:    26.2129031286
  - # 7
    frequency:    36.5097397640
  - # 8
    frequency:    36.6176847961
  - # 9
    frequency:    39.8390927675
  - # 10
    frequency:    39.8861959763
  - # 11
    frequency:    43.5138719424
  - # 12
    frequency:    43.5643385383

- q-position: [   -0.4444444,    0.2222222,    0.1250000 ]
  weight: 8    
  band:
  - # 1
    frequency:    11.6847935990
  - # 2
    frequency:    12.6461757139
  - # 3
    frequency:    19.9603378171
  - # 4
    frequency:    20.7155315384
  - # 5
    frequency:    22.4872006077
  - # 6
    frequency:    22.7168014143
  - # 7
    frequency:    32.3370000963
  - # 8
    frequency:    32.5656817684
  - # 9
    frequency:    41.8535607607
  - # 10
    frequency:    42.1380215859
  - # 11
    frequency:    42.5588844758
  - # 12
    frequency:    42.7370310736

- q-position: [   -0.3333333,    0.2222222,    0.1250000 ]
  weight: 8    
  band:
  - # 1
    frequency:     8.9156564658
  - # 2
    frequency:    10.2066044572
  - # 3
    frequency:    16.5244483685
  - # 4
    frequency:    16.7570955793
  - # 5
    frequency:    21.4760359465
  - # 6
    frequency:    22.7953680541
  - # 7
    frequency:    27.8488996505
  - # 8
    frequency:    28.1543501540
  - # 9
    frequency:    41.4380569508
  - # 10
    frequency:    41.7864816835
  - # 11
    frequency:    42.2439136792
  - # 12
    frequency:    42.8522840087

- q-position: [   -0.2222222,    0.2222222,    0.1250000 ]
  weight: 4    
  band:
  - # 1
    frequency:     6.4261664443
  - # 2
    frequency:     8.0786981095
  - # 3
    frequency:    11.7921204007
  - # 4
    frequency:    12.0863815751
  - # 5
    frequency:    22.5247982100
  - # 6
    frequency:    22.7472346701
  - # 7
    frequency:    23.0858709237
  - # 8
    frequency:    24.2061526935
  - # 9
    frequency:    40.8186085183
  - # 10
    frequency:    41.2727928289
  - # 11
    frequency:    41.6526260497
  - # 12
    frequency:    42.5613194838

- q-position: [   -0.6666667,    0.3333333,    0.1250000 ]
  weight: 4    
  band:
  - # 1
    frequency:    15.9885835188
  - # 2
    frequency:    16.2541062639
  - # 3
    frequency:    16.8018133039
  - # 4
    frequency:    16.9154812702
  - # 5
    frequency:    29.3402680441
  - # 6
    frequency:    29.5061319963
  - # 7
    frequency:    37.4420223876
  - # 8
    frequency:    37.4758072266
  - # 9
    frequency:    37.4800652365
  - # 10
    frequency:    37.6000262527
  - # 11
    frequency:    44.1165131370
  - # 12
    frequency:    44.1210478680

- q-position: [   -0.5555556,    0.3333333,    0.1250000 ]
  weight: 8    
  band:
  - # 1
    frequency:    14.2226401593
  - # 2
    frequency:    14.7214612928
  - # 3
    frequency:    18.3103502773
  - # 4
    frequency:    18.5366773957
  - # 5
    frequency:    26.1612002520
  - # 6
    frequency:    26.2556009933
  - # 7
    frequency:    36.3264476215
  - # 8
    frequency:    36.5113495649
  - # 9
    frequency:    39.8826924428
  - # 10
    frequency:    39.9342187440
  - # 11
    frequency:    43.5012125678
  - # 12
    frequency:    43.5516736903

- q-position: [   -0.4444444,    0.3333333,    0.1250000 ]
  weight: 8    
  band:
  - # 1
    frequency:    12.2455305576
  - # 2
    frequency:    12.9422994925
  - # 3
    frequency:    19.6822419893
  - # 4
    frequency:    20.1181509247
  - # 5
    frequency:    20.2343365631
  - # 6
    frequency:    20.4080565687
  - # 7
    frequency:    34.8321566116
  - # 8
    frequency:    35.0835678288
  - # 9
    frequency:    41.7303745313
  - # 10
    frequency:    41.9383786399
  - # 11
    frequency:    42.4317516918
  - # 12
    frequency:    42.6285926285

- q-position: [   -0.3333333,    0.3333333,    0.1250000 ]
  weight: 4    
  band:
  - # 1
    frequency:    10.2365704142
  - # 2
    frequency:    11.2491420603
  - # 3
    frequency:    16.1340583688
  - # 4
    frequency:    16.3113432540
  - # 5
    frequency:    20.8249103372
  - # 6
    frequency:    21.9691338322
  - # 7
    frequency:    31.7104697871
  - # 8
    frequency:    32.0130990485
  - # 9
    frequency:    41.3972355923
  - # 10
    frequency:    41.6726988987
  - # 11
    frequency:    42.5380309354
  - # 12
    frequency:    43.0210796110

- q-position: [   -0.5555556,    0.4444444,    0.1250000 ]
  weight: 4    
  band:
  - # 1
    frequency:    14.2244214709
  - # 2
    frequency:    14.4560286606
  - # 3
    frequency:    18.5865636366
  - # 4
    frequency:    18.6416548492
  - # 5
    frequency:    21.4036696678
  - # 6
    frequency:    21.4254359080
  - # 7
    frequency:    39.4172082637
  - # 8
    frequency:    39.4697575262
  - # 9
    frequency:    39.7767732260
  - # 10
    frequency:    39.8288714821
  - # 11
    frequency:    42.6612650478
  - # 12
    frequency:    42.6735300946

- q-position: [   -0.4444444,    0.4444444,    0.1250000 ]
  weight: 4    
  band:
  - # 1
    frequency:    13.4212138734
  - # 2
    frequency:    13.7491043718
  - # 3
    frequency:    18.4941925895
  - # 4
    frequency:    18.5535638325
  - # 5
    frequency:    19.0753272674
  - # 6
    frequency:    19.5066733312
  - # 7
    frequency:    38.1134944237
  - # 8
    frequency:    38.2741610787
  - # 9
    frequency:    41.7000101470
  - # 10
    frequency:    41.7913120864
  - # 11
    frequency:    41.8121770202
  - # 12
    frequency:    41.8817836079

- q-position: [    0.0000000,    0.0000000,    0.3750000 ]
  weight: 2    
  band:
  - # 1
    frequency:    -2.6540336577
  - # 2
    frequency:    -2.4605948820
  - # 3
    frequency:    -2.4029791110
  - # 4
    frequency:    -1.9498565882
  - # 5
    frequency:     1.6222567007
  - # 6
    frequency:     1.8953739776
  - # 7
    frequency:    25.4601720589
  - # 8
    frequency:    26.3364546220
  - # 9
    frequency:    34.2979056666
  - # 10
    frequency:    34.6098169893
  - # 11
    frequency:    34.9943479545
  - # 12
    frequency:    35.6543841995

- q-position: [    0.1111111,    0.0000000,    0.3750000 ]
  weight: 8    
  band:
  - # 1
    frequency:     4.1625240090
  - # 2
    frequency:     4.5539107223
  - # 3
    frequency:     5.8867613834
  - # 4
    frequency:     5.9521533985
  - # 5
    frequency:    11.1136779506
  - # 6
    frequency:    11.1972215763
  - # 7
    frequency:    24.9102301018
  - # 8
    frequency:    25.7177669328
  - # 9
    frequency:    35.5932389326
  - # 10
    frequency:    35.9243541287
  - # 11
    frequency:    36.1996330502
  - # 12
    frequency:    36.7159221199

- q-position: [    0.2222222,    0.0000000,    0.3750000 ]
  weight: 8    
  band:
  - # 1
    frequency:     7.7475711521
  - # 2
    frequency:     8.1176273735
  - # 3
    frequency:    11.8320699988
  - # 4
    frequency:    11.8804658385
  - # 5
    frequency:    22.0356620939
  - # 6
    frequency:    22.1002111558
  - # 7
    frequency:    23.3855493302
  - # 8
    frequency:    24.0019110984
  - # 9
    frequency:    37.8981323093
  - # 10
    frequency:    38.2170034224
  - # 11
    frequency:    39.3921068689
  - # 12
    frequency:    39.6500629603

- q-position: [    0.3333333,    0.0000000,    0.3750000 ]
  weight: 8    
  band:
  - # 1
    frequency:    11.0343078410
  - # 2
    frequency:    11.3269260426
  - # 3
    frequency:    16.1897408957
  - # 4
    frequency:    16.2177645312
  - # 5
    frequency:    21.2483958156
  - # 6
    frequency:    21.5970501984
  - # 7
    frequency:    31.3517862446
  - # 8
    frequency:    31.4029328116
  - # 9
    frequency:    40.2330311896
  - # 10
    frequency:    40.4011252284
  - # 11
    frequency:    41.8313292956
  - # 12
    frequency:    41.9591760114

- q-position: [    0.4444444,    0.0000000,    0.3750000 ]
  weight: 8    
  band:
  - # 1
    frequency:    13.6058398936
  - # 2
    frequency:    13.7433399277
  - # 3
    frequency:    18.5221307382
  - # 4
    frequency:    18.5302764420
  - # 5
    frequency:    19.2053444979
  - # 6
    frequency:    19.2954204082
  - # 7
    frequency:    38.1111041731
  - # 8
    frequency:    38.1383354864
  - # 9
    frequency:    41.6637035733
  - # 10
    frequency:    41.6831688180
  - # 11
    frequency:    41.7073214566
  - # 12
    frequency:    41.7315366371

- q-position: [    0.1111111,    0.1111111,    0.3750000 ]
  weight: 4    
  band:
  - # 1
    frequency:     7.2342368250
  - # 2
    frequency:     7.3176784152
  - # 3
    frequency:    10.0060773297
  - # 4
    frequency:    10.1749536178
  - # 5
    frequency:    18.6351976207
  - # 6
    frequency:    18.6998686852
  - # 7
    frequency:    23.7973648832
  - # 8
    frequency:    24.4552349670
  - # 9
    frequency:    37.7692106767
  - # 10
    frequency:    38.2200712482
  - # 11
    frequency:    38.3851572480
  - # 12
    frequency:    38.5805784237

- q-position: [    0.2222222,    0.1111111,    0.3750000 ]
  weight: 8    
  band:
  - # 1
    frequency:    10.3659736929
  - # 2
    frequency:    10.4963178858
  - # 3
    frequency:    15.5346988588
  - # 4
    frequency:    15.6781351186
  - # 5
    frequency:    21.8884129955
  - # 6
    frequency:    22.3040728687
  - # 7
    frequency:    27.0403533744
  - # 8
    frequency:    27.0930658276
  - # 9
    frequency:    40.1663426417
  - # 10
    frequency:    40.4068757798
  - # 11
    frequency:    41.2332908084
  - # 12
    frequency:    41.3728420676

- q-position: [    0.3333333,    0.1111111,    0.3750000 ]
  weight: 8    
  band:
  - # 1
    frequency:    13.1260255043
  - # 2
    frequency:    13.2148142798
  - # 3
    frequency:    19.5265408636
  - # 4
    frequency:    19.6335533012
  - # 5
    frequency:    19.6863172438
  - # 6
    frequency:    19.8315886515
  - # 7
    frequency:    34.3729406034
  - # 8
    frequency:    34.4146161145
  - # 9
    frequency:    41.7035462505
  - # 10
    frequency:    41.7646970589
  - # 11
    frequency:    42.5497651550
  - # 12
    frequency:    42.6489875281

- q-position: [   -0.5555556,    0.1111111,    0.3750000 ]
  weight: 8    
  band:
  - # 1
    frequency:    14.3193545048
  - # 2
    frequency:    14.4644367527
  - # 3
    frequency:    18.5210375959
  - # 4
    frequency:    18.5438109933
  - # 5
    frequency:    21.3412509458
  - # 6
    frequency:    21.4424087222
  - # 7
    frequency:    39.3325750255
  - # 8
    frequency:    39.3415593572
  - # 9
    frequency:    40.1070093777
  - # 10
    frequency:    40.1333668592
  - # 11
    frequency:    42.7822611824
  - # 12
    frequency:    42.7969316325

- q-position: [   -0.4444444,    0.1111111,    0.3750000 ]
  weight: 8    
  band:
  - # 1
    frequency:    12.3864337856
  - # 2
    frequency:    12.7273155236
  - # 3
    frequency:    20.0408234094
  - # 4
    frequency:    20.2651518813
  - # 5
    frequency:    20.6989652062
  - # 6
    frequency:    20.8078745498
  - # 7
    frequency:    35.0746912533
  - # 8
    frequency:    35.1214765228
  - # 9
    frequency:    41.1302305158
  - # 10
    frequency:    41.2296450710
  - # 11
    frequency:    41.9695093898
  - # 12
    frequency:    42.0253723454

- q-position: [   -0.3333333,    0.1111111,    0.3750000 ]
  weight: 8    
  band:
  - # 1
    frequency:     9.4145381027
  - # 2
    frequency:     9.9074106166
  - # 3
    frequency:    17.4858038841
  - # 4
    frequency:    17.5975810776
  - # 5
    frequency:    22.2000621506
  - # 6
    frequency:    22.6961423738
  - # 7
    frequency:    27.7213799470
  - # 8
    frequency:    27.7920414733
  - # 9
    frequency:    39.3800490114
  - # 10
    frequency:    39.5855231854
  - # 11
    frequency:    40.7315718829
  - # 12
    frequency:    40.9226718838

- q-position: [   -0.2222222,    0.1111111,    0.3750000 ]
  weight: 8    
  band:
  - # 1
    frequency:     6.1537759011
  - # 2
    frequency:     6.8125017402
  - # 3
    frequency:    11.8137245196
  - # 4
    frequency:    11.9357260285
  - # 5
    frequency:    19.5126160530
  - # 6
    frequency:    19.6113665332
  - # 7
    frequency:    23.9954849084
  - # 8
    frequency:    24.7123002107
  - # 9
    frequency:    36.9679404357
  - # 10
    frequency:    37.2439891613
  - # 11
    frequency:    38.1851984673
  - # 12
    frequency:    38.5792587410

- q-position: [   -0.1111111,    0.1111111,    0.3750000 ]
  weight: 4    
  band:
  - # 1
    frequency:     3.4612907459
  - # 2
    frequency:     4.2811956127
  - # 3
    frequency:     5.9276491638
  - # 4
    frequency:     6.1343759684
  - # 5
    frequency:    12.1478981975
  - # 6
    frequency:    12.2643327719
  - # 7
    frequency:    24.9777333109
  - # 8
    frequency:    25.8068289626
  - # 9
    frequency:    35.2745985752
  - # 10
    frequency:    35.5536511781
  - # 11
    frequency:    36.1415557429
  - # 12
    frequency:    36.7245562512

- q-position: [    0.2222222,    0.2222222,    0.3750000 ]
  weight: 4    
  band:
  - # 1
    frequency:    12.9680594093
  - # 2
    frequency:    13.0147147690
  - # 3
    frequency:    19.8481734438
  - # 4
    frequency:    20.0173841721
  - # 5
    frequency:    21.4583162681
  - # 6
    frequency:    21.6199118731
  - # 7
    frequency:    31.8266041559
  - # 8
    frequency:    31.8634948498
  - # 9
    frequency:    42.0303640929
  - # 10
    frequency:    42.0747685097
  - # 11
    frequency:    42.5584704061
  - # 12
    frequency:    42.6911398652

- q-position: [    0.3333333,    0.2222222,    0.3750000 ]
  weight: 8    
  band:
  - # 1
    frequency:    15.0053632434
  - # 2
    frequency:    15.0823644944
  - # 3
    frequency:    17.8601088894
  - # 4
    frequency:    17.9002238725
  - # 5
    frequency:    25.6404515183
  - # 6
    frequency:    25.7676264908
  - # 7
    frequency:    36.2642782838
  - # 8
    frequency:    36.2890794714
  - # 9
    frequency:    40.6683426502
  - # 10
    frequency:    40.6751296246
  - # 11
    frequency:    43.8755807403
  - # 12
    frequency:    43.9144122040

- q-position: [   -0.5555556,    0.2222222,    0.3750000 ]
  weight: 8    
  band:
  - # 1
    frequency:    14.2181328953
  - # 2
    frequency:    14.4912273039
  - # 3
    frequency:    18.4096220784
  - # 4
    frequency:    18.4753990430
  - # 5
    frequency:    26.5559395125
  - # 6
    frequency:    26.6674341784
  - # 7
    frequency:    36.9539535596
  - # 8
    frequency:    36.9918304600
  - # 9
    frequency:    39.7262479961
  - # 10
    frequency:    39.7473580277
  - # 11
    frequency:    43.6081088489
  - # 12
    frequency:    43.6308380662

- q-position: [   -0.4444444,    0.2222222,    0.3750000 ]
  weight: 8    
  band:
  - # 1
    frequency:    11.7947639102
  - # 2
    frequency:    12.1981290566
  - # 3
    frequency:    20.4018892604
  - # 4
    frequency:    20.7124111276
  - # 5
    frequency:    23.4484613880
  - # 6
    frequency:    23.5386719505
  - # 7
    frequency:    32.6084310690
  - # 8
    frequency:    32.7009662805
  - # 9
    frequency:    40.9942100120
  - # 10
    frequency:    41.1137011988
  - # 11
    frequency:    41.8861185848
  - # 12
    frequency:    41.9606727676

- q-position: [   -0.3333333,    0.2222222,    0.3750000 ]
  weight: 8    
  band:
  - # 1
    frequency:     9.1485045409
  - # 2
    frequency:     9.6937491734
  - # 3
    frequency:    17.0553576967
  - # 4
    frequency:    17.1440214170
  - # 5
    frequency:    22.2831777935
  - # 6
    frequency:    22.8255197617
  - # 7
    frequency:    28.4105311230
  - # 8
    frequency:    28.5334895703
  - # 9
    frequency:    39.4858206535
  - # 10
    frequency:    39.6391046959
  - # 11
    frequency:    40.3016910933
  - # 12
    frequency:    40.5579450645

- q-position: [   -0.2222222,    0.2222222,    0.3750000 ]
  weight: 4    
  band:
  - # 1
    frequency:     6.8413659950
  - # 2
    frequency:     7.5358542342
  - # 3
    frequency:    11.8421164591
  - # 4
    frequency:    11.9651273599
  - # 5
    frequency:    23.4967489777
  - # 6
    frequency:    23.5998482461
  - # 7
    frequency:    23.6420133525
  - # 8
    frequency:    24.2821258144
  - # 9
    frequency:    37.6211801732
  - # 10
    frequency:    37.8234762762
  - # 11
    frequency:    38.7322311281
  - # 12
    frequency:    39.1355037939

- q-position: [   -0.6666667,    0.3333333,    0.3750000 ]
  weight: 4    
  band:
  - # 1
    frequency:    15.9434264326
  - # 2
    frequency:    16.0858180616
  - # 3
    frequency:    16.8065739420
  - # 4
    frequency:    16.8236092119
  - # 5
    frequency:    29.7943517320
  - # 6
    frequency:    29.8658569365
  - # 7
    frequency:    37.7174106638
  - # 8
    frequency:    37.7288984766
  - # 9
    frequency:    37.9543252728
  - # 10
    frequency:    37.9979591177
  - # 11
    frequency:    44.4228051114
  - # 12
    frequency:    44.4248028832

- q-position: [   -0.5555556,    0.3333333,    0.3750000 ]
  weight: 8    
  band:
  - # 1
    frequency:    14.2320971189
  - # 2
    frequency:    14.4433642248
  - # 3
    frequency:    18.4174037990
  - # 4
    frequency:    18.5092754479
  - # 5
    frequency:    26.9025956890
  - # 6
    frequency:    26.9403666625
  - # 7
    frequency:    36.6086479092
  - # 8
    frequency:    36.6825511193
  - # 9
    frequency:    39.8290706062
  - # 10
    frequency:    39.8500027344
  - # 11
    frequency:    43.5863371725
  - # 12
    frequency:    43.6091059480

- q-position: [   -0.4444444,    0.3333333,    0.3750000 ]
  weight: 8    
  band:
  - # 1
    frequency:    12.3150029396
  - # 2
    frequency:    12.6111870640
  - # 3
    frequency:    20.0755458173
  - # 4
    frequency:    20.3731551477
  - # 5
    frequency:    20.4975749212
  - # 6
    frequency:    20.5426687334
  - # 7
    frequency:    35.3650443103
  - # 8
    frequency:    35.4675912003
  - # 9
    frequency:    41.0991842360
  - # 10
    frequency:    41.1956960750
  - # 11
    frequency:    41.8124197549
  - # 12
    frequency:    41.8849140307

- q-position: [   -0.3333333,    0.3333333,    0.3750000 ]
  weight: 4    
  band:
  - # 1
    frequency:    10.3834621628
  - # 2
    frequency:    10.8151996845
  - # 3
    frequency:    16.1836630197
  - # 4
    frequency:    16.2568184058
  - # 5
    frequency:    21.4937814115
  - # 6
    frequency:    21.9638738411
  - # 7
    frequency:    32.5133986623
  - # 8
    frequency:    32.6340585333
  - # 9
    frequency:    40.1076271117
  - # 10
    frequency:    40.2242337546
  - # 11
    frequency:    40.9769123304
  - # 12
    frequency:    41.1837565201

- q-position: [   -0.5555556,    0.4444444,    0.3750000 ]
  weight: 4    
  band:
  - # 1
    frequency:    14.2590046407
  - # 2
    frequency:    14.3556298561
  - # 3
    frequency:    18.6050004637
  - # 4
    frequency:    18.6281781979
  - # 5
    frequency:    21.7002858092
  - # 6
    frequency:    21.7092015548
  - # 7
    frequency:    39.4357106107
  - # 8
    frequency:    39.4566903734
  - # 9
    frequency:    39.8867258887
  - # 10
    frequency:    39.9069823285
  - # 11
    frequency:    42.7010468510
  - # 12
    frequency:    42.7065967698

- q-position: [   -0.4444444,    0.4444444,    0.3750000 ]
  weight: 4    
  band:
  - # 1
    frequency:    13.4740890869
  - # 2
    frequency:    13.6140240133
  - # 3
    frequency:    18.5121983359
  - # 4
    frequency:    18.5366923259
  - # 5
    frequency:    19.2738948756
  - # 6
    frequency:    19.4508970748
  - # 7
    frequency:    38.5074813426
  - # 8
    frequency:    38.5734451841
  - # 9
    frequency:    41.2701017680
  - # 10
    frequency:    41.3163805586
  - # 11
    frequency:    41.6550522623
  - # 12
    frequency:    41.6925866474

