# Thermal properties / unit cell (natom)

unit:
  temperature:   K
  free_energy:   kJ/mol
  entropy:       J/K/mol
  heat_capacity: J/K/mol

natom:     4
num_modes: 3888
num_integrated_modes: 3872

zero_point_energy:      64.8012039
high_T_entropy:        230.5696358

thermal_properties:
- temperature:         0.0000000
  free_energy:        64.8012039
  entropy:             0.0000000
  heat_capacity:       0.0000000
  energy:             64.8012039

- temperature:        10.0000000
  free_energy:        64.8010797
  entropy:             0.0393825
  heat_capacity:       0.0667806
  energy:             64.8014736

- temperature:        20.0000000
  free_energy:        64.8003565
  entropy:             0.1053375
  heat_capacity:       0.1354718
  energy:             64.8024632

- temperature:        30.0000000
  free_energy:        64.7989379
  entropy:             0.1819358
  heat_capacity:       0.2670413
  energy:             64.8043960

- temperature:        40.0000000
  free_energy:        64.7966140
  entropy:             0.2894182
  heat_capacity:       0.5130797
  energy:             64.8081907

- temperature:        50.0000000
  free_energy:        64.7929992
  entropy:             0.4417588
  heat_capacity:       0.8875713
  energy:             64.8150871

- temperature:        60.0000000
  free_energy:        64.7876054
  entropy:             0.6460214
  heat_capacity:       1.3895832
  energy:             64.8263667

- temperature:        70.0000000
  free_energy:        64.7798932
  entropy:             0.9059254
  heat_capacity:       2.0203802
  energy:             64.8433080

- temperature:        80.0000000
  free_energy:        64.7692930
  entropy:             1.2239821
  heat_capacity:       2.7822253
  energy:             64.8672115

- temperature:        90.0000000
  free_energy:        64.7552139
  entropy:             1.6019150
  heat_capacity:       3.6740218
  energy:             64.8993862

- temperature:       100.0000000
  free_energy:        64.7370523
  entropy:             2.0405371
  heat_capacity:       4.6898735
  energy:             64.9411060

- temperature:       110.0000000
  free_energy:        64.7142013
  entropy:             2.5396597
  heat_capacity:       5.8196983
  energy:             64.9935639

- temperature:       120.0000000
  free_energy:        64.6860611
  entropy:             3.0981297
  heat_capacity:       7.0505024
  energy:             65.0578367

- temperature:       130.0000000
  free_energy:        64.6520475
  entropy:             3.7139578
  heat_capacity:       8.3677041
  energy:             65.1348620

- temperature:       140.0000000
  free_energy:        64.6115996
  entropy:             4.3844940
  heat_capacity:       9.7563113
  energy:             65.2254287

- temperature:       150.0000000
  free_energy:        64.5641856
  entropy:             5.1066154
  heat_capacity:      11.2018709
  energy:             65.3301779

- temperature:       160.0000000
  free_energy:        64.5093067
  entropy:             5.8769063
  heat_capacity:      12.6911454
  energy:             65.4496117

- temperature:       170.0000000
  free_energy:        64.4464988
  entropy:             6.6918167
  heat_capacity:      14.2125121
  energy:             65.5841076

- temperature:       180.0000000
  free_energy:        64.3753335
  entropy:             7.5477910
  heat_capacity:      15.7561156
  energy:             65.7339359

- temperature:       190.0000000
  free_energy:        64.2954176
  entropy:             8.4413640
  heat_capacity:      17.3138316
  energy:             65.8992768

- temperature:       200.0000000
  free_energy:        64.2063919
  entropy:             9.3692280
  heat_capacity:      18.8791039
  energy:             66.0802375

- temperature:       210.0000000
  free_energy:        64.1079292
  entropy:            10.3282732
  heat_capacity:      20.4467146
  energy:             66.2768665

- temperature:       220.0000000
  free_energy:        63.9997322
  entropy:            11.3156071
  heat_capacity:      22.0125325
  energy:             66.4891657

- temperature:       230.0000000
  free_energy:        63.8815316
  entropy:            12.3285589
  heat_capacity:      23.5732725
  energy:             66.7171002

- temperature:       240.0000000
  free_energy:        63.7530838
  entropy:            13.3646732
  heat_capacity:      25.1262837
  energy:             66.9606054

- temperature:       250.0000000
  free_energy:        63.6141685
  entropy:            14.4216970
  heat_capacity:      26.6693752
  energy:             67.2195928

- temperature:       260.0000000
  free_energy:        63.4645871
  entropy:            15.4975634
  heat_capacity:      28.2006808
  energy:             67.4939536

- temperature:       270.0000000
  free_energy:        63.3041608
  entropy:            16.5903735
  heat_capacity:      29.7185598
  energy:             67.7835616

- temperature:       280.0000000
  free_energy:        63.1327290
  entropy:            17.6983788
  heat_capacity:      31.2215283
  energy:             68.0882751

- temperature:       290.0000000
  free_energy:        62.9501479
  entropy:            18.8199653
  heat_capacity:      32.7082150
  energy:             68.4079379

- temperature:       300.0000000
  free_energy:        62.7562894
  entropy:            19.9536380
  heat_capacity:      34.1773354
  energy:             68.7423808

- temperature:       310.0000000
  free_energy:        62.5510395
  entropy:            21.0980080
  heat_capacity:      35.6276796
  energy:             69.0914220

- temperature:       320.0000000
  free_energy:        62.3342979
  entropy:            22.2517815
  heat_capacity:      37.0581089
  energy:             69.4548680

- temperature:       330.0000000
  free_energy:        62.1059766
  entropy:            23.4137504
  heat_capacity:      38.4675576
  energy:             69.8325142

- temperature:       340.0000000
  free_energy:        61.8659994
  entropy:            24.5827840
  heat_capacity:      39.8550381
  energy:             70.2241459

- temperature:       350.0000000
  free_energy:        61.6143009
  entropy:            25.7578224
  heat_capacity:      41.2196461
  energy:             70.6295387

- temperature:       360.0000000
  free_energy:        61.3508262
  entropy:            26.9378713
  heat_capacity:      42.5605667
  energy:             71.0484599

- temperature:       370.0000000
  free_energy:        61.0755299
  entropy:            28.1219968
  heat_capacity:      43.8770784
  energy:             71.4806687

- temperature:       380.0000000
  free_energy:        60.7883756
  entropy:            29.3093220
  heat_capacity:      45.1685563
  energy:             71.9259180

- temperature:       390.0000000
  free_energy:        60.4893355
  entropy:            30.4990233
  heat_capacity:      46.4344733
  energy:             72.3839546

- temperature:       400.0000000
  free_energy:        60.1783898
  entropy:            31.6903275
  heat_capacity:      47.6744000
  energy:             72.8545208

- temperature:       410.0000000
  free_energy:        59.8555261
  entropy:            32.8825092
  heat_capacity:      48.8880029
  energy:             73.3373549

- temperature:       420.0000000
  free_energy:        59.5207390
  entropy:            34.0748889
  heat_capacity:      50.0750414
  energy:             73.8321923

- temperature:       430.0000000
  free_energy:        59.1740298
  entropy:            35.2668299
  heat_capacity:      51.2353638
  energy:             74.3387666

- temperature:       440.0000000
  free_energy:        58.8154058
  entropy:            36.4577374
  heat_capacity:      52.3689027
  energy:             74.8568103

- temperature:       450.0000000
  free_energy:        58.4448803
  entropy:            37.6470558
  heat_capacity:      53.4756688
  energy:             75.3860554

- temperature:       460.0000000
  free_energy:        58.0624717
  entropy:            38.8342673
  heat_capacity:      54.5557461
  energy:             75.9262347

- temperature:       470.0000000
  free_energy:        57.6682036
  entropy:            40.0188900
  heat_capacity:      55.6092849
  energy:             76.4770819

- temperature:       480.0000000
  free_energy:        57.2621041
  entropy:            41.2004762
  heat_capacity:      56.6364959
  energy:             77.0383326

- temperature:       490.0000000
  free_energy:        56.8442056
  entropy:            42.3786109
  heat_capacity:      57.6376443
  energy:             77.6097249

- temperature:       500.0000000
  free_energy:        56.4145446
  entropy:            43.5529101
  heat_capacity:      58.6130433
  energy:             78.1909997

- temperature:       510.0000000
  free_energy:        55.9731614
  entropy:            44.7230192
  heat_capacity:      59.5630489
  energy:             78.7819011

- temperature:       520.0000000
  free_energy:        55.5200993
  entropy:            45.8886116
  heat_capacity:      60.4880539
  energy:             79.3821773

- temperature:       530.0000000
  free_energy:        55.0554052
  entropy:            47.0493870
  heat_capacity:      61.3884828
  energy:             79.9915803

- temperature:       540.0000000
  free_energy:        54.5791285
  entropy:            48.2050704
  heat_capacity:      62.2647872
  energy:             80.6098666

- temperature:       550.0000000
  free_energy:        54.0913216
  entropy:            49.3554102
  heat_capacity:      63.1174408
  energy:             81.2367972

- temperature:       560.0000000
  free_energy:        53.5920389
  entropy:            50.5001772
  heat_capacity:      63.9469357
  energy:             81.8721382

- temperature:       570.0000000
  free_energy:        53.0813373
  entropy:            51.6391633
  heat_capacity:      64.7537784
  energy:             82.5156604

- temperature:       580.0000000
  free_energy:        52.5592756
  entropy:            52.7721800
  heat_capacity:      65.5384863
  energy:             83.1671400

- temperature:       590.0000000
  free_energy:        52.0259142
  entropy:            53.8990575
  heat_capacity:      66.3015847
  energy:             83.8263581

- temperature:       600.0000000
  free_energy:        51.4813154
  entropy:            55.0196434
  heat_capacity:      67.0436038
  energy:             84.4931014

- temperature:       610.0000000
  free_energy:        50.9255427
  entropy:            56.1338016
  heat_capacity:      67.7650765
  energy:             85.1671617

- temperature:       620.0000000
  free_energy:        50.3586612
  entropy:            57.2414113
  heat_capacity:      68.4665360
  energy:             85.8483362

- temperature:       630.0000000
  free_energy:        49.7807367
  entropy:            58.3423663
  heat_capacity:      69.1485137
  energy:             86.5364275

- temperature:       640.0000000
  free_energy:        49.1918363
  entropy:            59.4365734
  heat_capacity:      69.8115378
  energy:             87.2312433

- temperature:       650.0000000
  free_energy:        48.5920280
  entropy:            60.5239520
  heat_capacity:      70.4561315
  energy:             87.9325968

- temperature:       660.0000000
  free_energy:        47.9813803
  entropy:            61.6044332
  heat_capacity:      71.0828121
  energy:             88.6403062

- temperature:       670.0000000
  free_energy:        47.3599625
  entropy:            62.6779590
  heat_capacity:      71.6920895
  energy:             89.3541950

- temperature:       680.0000000
  free_energy:        46.7278445
  entropy:            63.7444812
  heat_capacity:      72.2844654
  energy:             90.0740917

- temperature:       690.0000000
  free_energy:        46.0850964
  entropy:            64.8039613
  heat_capacity:      72.8604326
  energy:             90.7998296

- temperature:       700.0000000
  free_energy:        45.4317888
  entropy:            65.8563692
  heat_capacity:      73.4204743
  energy:             91.5312472

- temperature:       710.0000000
  free_energy:        44.7679926
  entropy:            66.9016831
  heat_capacity:      73.9650636
  energy:             92.2681876

- temperature:       720.0000000
  free_energy:        44.0937788
  entropy:            67.9398885
  heat_capacity:      74.4946630
  energy:             93.0104986

- temperature:       730.0000000
  free_energy:        43.4092186
  entropy:            68.9709779
  heat_capacity:      75.0097241
  energy:             93.7580324

- temperature:       740.0000000
  free_energy:        42.7143830
  entropy:            69.9949500
  heat_capacity:      75.5106875
  energy:             94.5106460

- temperature:       750.0000000
  free_energy:        42.0093433
  entropy:            71.0118098
  heat_capacity:      75.9979826
  energy:             95.2682006

- temperature:       760.0000000
  free_energy:        41.2941705
  entropy:            72.0215672
  heat_capacity:      76.4720272
  energy:             96.0305615

- temperature:       770.0000000
  free_energy:        40.5689356
  entropy:            73.0242374
  heat_capacity:      76.9332280
  energy:             96.7975983

- temperature:       780.0000000
  free_energy:        39.8337093
  entropy:            74.0198401
  heat_capacity:      77.3819801
  energy:             97.5691846

- temperature:       790.0000000
  free_energy:        39.0885622
  entropy:            75.0083993
  heat_capacity:      77.8186675
  energy:             98.3451977

- temperature:       800.0000000
  free_energy:        38.3335647
  entropy:            75.9899428
  heat_capacity:      78.2436628
  energy:             99.1255190

- temperature:       810.0000000
  free_energy:        37.5687867
  entropy:            76.9645019
  heat_capacity:      78.6573276
  energy:             99.9100332

- temperature:       820.0000000
  free_energy:        36.7942978
  entropy:            77.9321111
  heat_capacity:      79.0600126
  energy:            100.6986289

- temperature:       830.0000000
  free_energy:        36.0101675
  entropy:            78.8928078
  heat_capacity:      79.4520578
  energy:            101.4911980

- temperature:       840.0000000
  free_energy:        35.2164646
  entropy:            79.8466323
  heat_capacity:      79.8337924
  energy:            102.2876357

- temperature:       850.0000000
  free_energy:        34.4132576
  entropy:            80.7936270
  heat_capacity:      80.2055356
  energy:            103.0878405

- temperature:       860.0000000
  free_energy:        33.6006147
  entropy:            81.7338366
  heat_capacity:      80.5675963
  energy:            103.8917142

- temperature:       870.0000000
  free_energy:        32.7786033
  entropy:            82.6673079
  heat_capacity:      80.9202735
  energy:            104.6991612

- temperature:       880.0000000
  free_energy:        31.9472908
  entropy:            83.5940892
  heat_capacity:      81.2638565
  energy:            105.5100893

- temperature:       890.0000000
  free_energy:        31.1067437
  entropy:            84.5142306
  heat_capacity:      81.5986255
  energy:            106.3244089

- temperature:       900.0000000
  free_energy:        30.2570282
  entropy:            85.4277835
  heat_capacity:      81.9248514
  energy:            107.1420333

- temperature:       910.0000000
  free_energy:        29.3982098
  entropy:            86.3348006
  heat_capacity:      82.2427960
  energy:            107.9628784

- temperature:       920.0000000
  free_energy:        28.5303537
  entropy:            87.2353356
  heat_capacity:      82.5527128
  energy:            108.7868625

- temperature:       930.0000000
  free_energy:        27.6535245
  entropy:            88.1294432
  heat_capacity:      82.8548467
  energy:            109.6139067

- temperature:       940.0000000
  free_energy:        26.7677861
  entropy:            89.0171789
  heat_capacity:      83.1494347
  energy:            110.4439343

- temperature:       950.0000000
  free_energy:        25.8732020
  entropy:            89.8985989
  heat_capacity:      83.4367056
  energy:            111.2768710

- temperature:       960.0000000
  free_energy:        24.9698350
  entropy:            90.7737601
  heat_capacity:      83.7168810
  energy:            112.1126447

- temperature:       970.0000000
  free_energy:        24.0577475
  entropy:            91.6427198
  heat_capacity:      83.9901746
  energy:            112.9511857

- temperature:       980.0000000
  free_energy:        23.1370011
  entropy:            92.5055356
  heat_capacity:      84.2567935
  energy:            113.7924260

- temperature:       990.0000000
  free_energy:        22.2076570
  entropy:            93.3622656
  heat_capacity:      84.5169374
  energy:            114.6363000

- temperature:      1000.0000000
  free_energy:        21.2697759
  entropy:            94.2129679
  heat_capacity:      84.7707995
  energy:            115.4827438
