   4   4   0   0
  0.9217531E+01  0.2467155E-09  0.2467155E-09  0.6994772E-09  0.5000000E-15
  1.000000000000000E-004
  CAR 
 graphite                                
     18.02964101    -17.27256986  301      4.31189217      1.00000000
    -17.273  0.0000E+00  0.0000E+00
    -17.155  0.0000E+00  0.0000E+00
    -17.037  0.0000E+00  0.0000E+00
    -16.920  0.0000E+00  0.0000E+00
    -16.802  0.0000E+00  0.0000E+00
    -16.684  0.0000E+00  0.0000E+00
    -16.567  0.0000E+00  0.0000E+00
    -16.449  0.0000E+00  0.0000E+00
    -16.331  0.0000E+00  0.0000E+00
    -16.214  0.0000E+00  0.0000E+00
    -16.096  0.0000E+00  0.0000E+00
    -15.978  0.0000E+00  0.0000E+00
    -15.860  0.0000E+00  0.0000E+00
    -15.743  0.0000E+00  0.0000E+00
    -15.625  0.0000E+00  0.0000E+00
    -15.507  0.0000E+00  0.0000E+00
    -15.390  0.0000E+00  0.0000E+00
    -15.272  0.1167E-06  0.1785E-10
    -15.154  0.1437E-02  0.9463E-04
    -15.037  0.2965E-02  0.3392E-03
    -14.919  0.3048E-02  0.7006E-03
    -14.801  0.3067E-02  0.1064E-02
    -14.684  0.3104E-02  0.1427E-02
    -14.566  0.3078E-02  0.1792E-02
    -14.448  0.3080E-02  0.2152E-02
    -14.331  0.3135E-02  0.2519E-02
    -14.213  0.3112E-02  0.2887E-02
    -14.095  0.3068E-02  0.3249E-02
    -13.978  0.3114E-02  0.3613E-02
    -13.860  0.3155E-02  0.3982E-02
    -13.742  0.3136E-02  0.4353E-02
    -13.625  0.3098E-02  0.4719E-02
    -13.507  0.3115E-02  0.5084E-02
    -13.389  0.3151E-02  0.5453E-02
    -13.272  0.3183E-02  0.5826E-02
    -13.154  0.3167E-02  0.6199E-02
    -13.036  0.3136E-02  0.6570E-02
    -12.919  0.3144E-02  0.6939E-02
    -12.801  0.3169E-02  0.7310E-02
    -12.683  0.3199E-02  0.7685E-02
    -12.566  0.3217E-02  0.8063E-02
    -12.448  0.3205E-02  0.8441E-02
    -12.330  0.3190E-02  0.8817E-02
    -12.213  0.3200E-02  0.9193E-02
    -12.095  0.3217E-02  0.9570E-02
    -11.977  0.3242E-02  0.9950E-02
    -11.860  0.3272E-02  0.1033E-01
    -11.742  0.3280E-02  0.1072E-01
    -11.624  0.3271E-02  0.1111E-01
    -11.507  0.3279E-02  0.1149E-01
    -11.389  0.3299E-02  0.1188E-01
    -11.271  0.3325E-02  0.1227E-01
    -11.154  0.3353E-02  0.1266E-01
    -11.036  0.3392E-02  0.1306E-01
    -10.918  0.3432E-02  0.1346E-01
    -10.800  0.3460E-02  0.1386E-01
    -10.683  0.3507E-02  0.1427E-01
    -10.565  0.3601E-02  0.1469E-01
    -10.447  0.3749E-02  0.1512E-01
    -10.330  0.3966E-02  0.1558E-01
    -10.212  0.4237E-02  0.1606E-01
    -10.094  0.5651E-02  0.1666E-01
     -9.977  0.4194E-02  0.1727E-01
     -9.859  0.3220E-02  0.1768E-01
     -9.741  0.4033E-02  0.1816E-01
     -9.624  0.2267E-02  0.1852E-01
     -9.506  0.2015E-02  0.1877E-01
     -9.388  0.1764E-02  0.1899E-01
     -9.271  0.1512E-02  0.1918E-01
     -9.153  0.1654E-02  0.1936E-01
     -9.035  0.1712E-02  0.1959E-01
     -8.918  0.8428E-03  0.1973E-01
     -8.800  0.1157E-02  0.1984E-01
     -8.682  0.2192E-02  0.2001E-01
     -8.565  0.4000E-02  0.2044E-01
     -8.447  0.2712E-02  0.2083E-01
     -8.329  0.2844E-02  0.2115E-01
     -8.212  0.4816E-02  0.2159E-01
     -8.094  0.4025E-02  0.2212E-01
     -7.976  0.4694E-02  0.2264E-01
     -7.859  0.5403E-02  0.2323E-01
     -7.741  0.4419E-02  0.2385E-01
     -7.623  0.3833E-02  0.2431E-01
     -7.506  0.3678E-02  0.2476E-01
     -7.388  0.3529E-02  0.2518E-01
     -7.270  0.3386E-02  0.2559E-01
     -7.153  0.3246E-02  0.2598E-01
     -7.035  0.3105E-02  0.2635E-01
     -6.917  0.2995E-02  0.2671E-01
     -6.800  0.2958E-02  0.2706E-01
     -6.682  0.2922E-02  0.2740E-01
     -6.564  0.2886E-02  0.2775E-01
     -6.447  0.2849E-02  0.2808E-01
     -6.329  0.2706E-02  0.2841E-01
     -6.211  0.2574E-02  0.2872E-01
     -6.094  0.2945E-02  0.2904E-01
     -5.976  0.3376E-02  0.2941E-01
     -5.858  0.3806E-02  0.2984E-01
     -5.741  0.3859E-02  0.3030E-01
     -5.623  0.3715E-02  0.3074E-01
     -5.505  0.3659E-02  0.3118E-01
     -5.387  0.3602E-02  0.3160E-01
     -5.270  0.3621E-02  0.3203E-01
     -5.152  0.3723E-02  0.3246E-01
     -5.034  0.3816E-02  0.3290E-01
     -4.917  0.3908E-02  0.3336E-01
     -4.799  0.3948E-02  0.3382E-01
     -4.681  0.3959E-02  0.3428E-01
     -4.564  0.3965E-02  0.3475E-01
     -4.446  0.3922E-02  0.3521E-01
     -4.328  0.4030E-02  0.3568E-01
     -4.211  0.4071E-02  0.3616E-01
     -4.093  0.4111E-02  0.3664E-01
     -3.975  0.4243E-02  0.3713E-01
     -3.858  0.4693E-02  0.3766E-01
     -3.740  0.5080E-02  0.3823E-01
     -3.622  0.5306E-02  0.3885E-01
     -3.505  0.5527E-02  0.3948E-01
     -3.387  0.5765E-02  0.4015E-01
     -3.269  0.5951E-02  0.4084E-01
     -3.152  0.6129E-02  0.4155E-01
     -3.034  0.6482E-02  0.4229E-01
     -2.916  0.7156E-02  0.4308E-01
     -2.799  0.7950E-02  0.4398E-01
     -2.681  0.8144E-02  0.4492E-01
     -2.563  0.8107E-02  0.4588E-01
     -2.446  0.7644E-02  0.4682E-01
     -2.328  0.7579E-02  0.4772E-01
     -2.210  0.1049E-01  0.4878E-01
     -2.093  0.1248E-01  0.5015E-01
     -1.975  0.1047E-01  0.5154E-01
     -1.857  0.9687E-02  0.5272E-01
     -1.740  0.8686E-02  0.5380E-01
     -1.622  0.7334E-02  0.5471E-01
     -1.504  0.7291E-02  0.5556E-01
     -1.387  0.5957E-02  0.5637E-01
     -1.269  0.6503E-02  0.5712E-01
     -1.151  0.6780E-02  0.5792E-01
     -1.034  0.7272E-02  0.5876E-01
     -0.916  0.6603E-02  0.5963E-01
     -0.798  0.6722E-02  0.6042E-01
     -0.681  0.6744E-02  0.6122E-01
     -0.563  0.6792E-02  0.6201E-01
     -0.445  0.6681E-02  0.6281E-01
     -0.328  0.6277E-02  0.6356E-01
     -0.210  0.6120E-02  0.6429E-01
     -0.092  0.5996E-02  0.6500E-01
      0.026  0.5880E-02  0.6570E-01
      0.143  0.5766E-02  0.6639E-01
      0.261  0.5757E-02  0.6706E-01
      0.379  0.5871E-02  0.6775E-01
      0.496  0.5768E-02  0.6844E-01
      0.614  0.5627E-02  0.6911E-01
      0.732  0.5499E-02  0.6976E-01
      0.849  0.5780E-02  0.7043E-01
      0.967  0.5585E-02  0.7109E-01
      1.085  0.5689E-02  0.7177E-01
      1.202  0.5628E-02  0.7244E-01
      1.320  0.3662E-02  0.7298E-01
      1.438  0.3872E-02  0.7342E-01
      1.555  0.4389E-02  0.7390E-01
      1.673  0.4606E-02  0.7445E-01
      1.791  0.4538E-02  0.7498E-01
      1.908  0.4492E-02  0.7552E-01
      2.026  0.4700E-02  0.7605E-01
      2.144  0.4809E-02  0.7661E-01
      2.261  0.3897E-02  0.7714E-01
      2.379  0.3164E-02  0.7755E-01
      2.497  0.2723E-02  0.7789E-01
      2.614  0.2447E-02  0.7820E-01
      2.732  0.2125E-02  0.7847E-01
      2.850  0.1977E-02  0.7871E-01
      2.967  0.1860E-02  0.7893E-01
      3.085  0.1613E-02  0.7914E-01
      3.203  0.1353E-02  0.7932E-01
      3.320  0.1188E-02  0.7946E-01
      3.438  0.1026E-02  0.7960E-01
      3.556  0.8615E-03  0.7971E-01
      3.673  0.6997E-03  0.7980E-01
      3.791  0.5408E-03  0.7987E-01
      3.909  0.3909E-03  0.7993E-01
      4.026  0.2633E-03  0.7996E-01
      4.144  0.1478E-03  0.7999E-01
      4.262  0.4171E-04  0.8000E-01
      4.379  0.4338E-04  0.8000E-01
      4.497  0.1279E-03  0.8001E-01
      4.615  0.2237E-03  0.8003E-01
      4.732  0.3338E-03  0.8006E-01
      4.850  0.4682E-03  0.8011E-01
      4.968  0.6392E-03  0.8018E-01
      5.085  0.8755E-03  0.8026E-01
      5.203  0.1150E-02  0.8038E-01
      5.321  0.1423E-02  0.8053E-01
      5.439  0.1806E-02  0.8072E-01
      5.556  0.1766E-02  0.8092E-01
      5.674  0.2416E-02  0.8117E-01
      5.792  0.6005E-02  0.8152E-01
      5.909  0.6026E-02  0.8207E-01
      6.027  0.4853E-02  0.8267E-01
      6.145  0.4766E-02  0.8323E-01
      6.262  0.4383E-02  0.8378E-01
      6.380  0.4436E-02  0.8430E-01
      6.498  0.4280E-02  0.8482E-01
      6.615  0.3652E-02  0.8527E-01
      6.733  0.3378E-02  0.8569E-01
      6.851  0.3166E-02  0.8607E-01
      6.968  0.2998E-02  0.8643E-01
      7.086  0.2873E-02  0.8678E-01
      7.204  0.2762E-02  0.8711E-01
      7.321  0.2663E-02  0.8743E-01
      7.439  0.2589E-02  0.8774E-01
      7.557  0.2530E-02  0.8804E-01
      7.674  0.2473E-02  0.8833E-01
      7.792  0.2417E-02  0.8862E-01
      7.910  0.2358E-02  0.8890E-01
      8.027  0.2292E-02  0.8918E-01
      8.145  0.2231E-02  0.8944E-01
      8.263  0.2179E-02  0.8970E-01
      8.380  0.2227E-02  0.8996E-01
      8.498  0.2395E-02  0.9023E-01
      8.616  0.2457E-02  0.9052E-01
      8.733  0.2495E-02  0.9081E-01
      8.851  0.2540E-02  0.9110E-01
      8.969  0.2597E-02  0.9141E-01
      9.086  0.2606E-02  0.9171E-01
      9.204  0.2613E-02  0.9202E-01
      9.322  0.2628E-02  0.9233E-01
      9.439  0.2652E-02  0.9264E-01
      9.557  0.2662E-02  0.9295E-01
      9.675  0.2694E-02  0.9327E-01
      9.792  0.2776E-02  0.9359E-01
      9.910  0.2869E-02  0.9392E-01
     10.028  0.2966E-02  0.9426E-01
     10.145  0.3243E-02  0.9463E-01
     10.263  0.3670E-02  0.9504E-01
     10.381  0.3173E-02  0.9544E-01
     10.499  0.2776E-02  0.9579E-01
     10.616  0.2449E-02  0.9610E-01
     10.734  0.2176E-02  0.9636E-01
     10.852  0.2113E-02  0.9661E-01
     10.969  0.2257E-02  0.9687E-01
     11.087  0.2464E-02  0.9714E-01
     11.205  0.2849E-02  0.9746E-01
     11.322  0.2983E-02  0.9780E-01
     11.440  0.3104E-02  0.9816E-01
     11.558  0.3354E-02  0.9854E-01
     11.675  0.4869E-02  0.9902E-01
     11.793  0.6637E-02  0.9970E-01
     11.911  0.8509E-02  0.1006E+00
     12.028  0.9283E-02  0.1017E+00
     12.146  0.8889E-02  0.1028E+00
     12.264  0.8028E-02  0.1038E+00
     12.381  0.7635E-02  0.1047E+00
     12.499  0.7634E-02  0.1056E+00
     12.617  0.7865E-02  0.1065E+00
     12.734  0.1471E-01  0.1079E+00
     12.852  0.1273E-01  0.1096E+00
     12.970  0.8382E-02  0.1109E+00
     13.087  0.5877E-02  0.1117E+00
     13.205  0.4925E-02  0.1123E+00
     13.323  0.4489E-02  0.1129E+00
     13.440  0.4157E-02  0.1134E+00
     13.558  0.3632E-02  0.1138E+00
     13.676  0.3525E-02  0.1142E+00
     13.793  0.3415E-02  0.1146E+00
     13.911  0.3137E-02  0.1150E+00
     14.029  0.2729E-02  0.1154E+00
     14.146  0.2654E-02  0.1157E+00
     14.264  0.2899E-02  0.1160E+00
     14.382  0.3124E-02  0.1164E+00
     14.499  0.2748E-02  0.1167E+00
     14.617  0.3068E-02  0.1171E+00
     14.735  0.4557E-02  0.1175E+00
     14.852  0.4649E-02  0.1180E+00
     14.970  0.3600E-02  0.1185E+00
     15.088  0.2745E-02  0.1189E+00
     15.205  0.2330E-02  0.1192E+00
     15.323  0.2196E-02  0.1195E+00
     15.441  0.1704E-02  0.1197E+00
     15.558  0.1694E-02  0.1199E+00
     15.676  0.1429E-03  0.1200E+00
     15.794  0.6327E-04  0.1200E+00
     15.912  0.1563E-04  0.1200E+00
     16.029  0.8227E-10  0.1200E+00
     16.147  0.0000E+00  0.1200E+00
     16.265  0.0000E+00  0.1200E+00
     16.382  0.0000E+00  0.1200E+00
     16.500  0.0000E+00  0.1200E+00
     16.618  0.0000E+00  0.1200E+00
     16.735  0.0000E+00  0.1200E+00
     16.853  0.0000E+00  0.1200E+00
     16.971  0.0000E+00  0.1200E+00
     17.088  0.0000E+00  0.1200E+00
     17.206  0.0000E+00  0.1200E+00
     17.324  0.0000E+00  0.1200E+00
     17.441  0.0000E+00  0.1200E+00
     17.559  0.0000E+00  0.1200E+00
     17.677  0.0000E+00  0.1200E+00
     17.794  0.0000E+00  0.1200E+00
     17.912  0.0000E+00  0.1200E+00
     18.030  0.0000E+00  0.1200E+00
