32   
4    

1    
  0.0033262977306827  -0.0000001499234164   0.0094305749233214
  -0.2080832400    0.0040714800   -0.1352856800
   0.0326048400    0.0031247000   -0.0056191000
  -0.0021828100   -0.0169602100   -0.0055577900
  -0.0022847200    0.0232719700   -0.0056966400
  -0.0067332300    0.0031545700    0.0016020800
  -0.0067208600    0.0031539600    0.0016178000
  -0.0067247200    0.0031515800    0.0016176900
  -0.0067242200    0.0031572000    0.0016177500
   0.0050751300   -0.0031404800   -0.0015974000
   0.0049694600   -0.0032189100   -0.0016358600
   0.0050878500   -0.0030858700   -0.0016167300
   0.0049429300   -0.0031507400   -0.0011710200
   0.0057347900   -0.0029112400   -0.0016244000
   0.0058326200   -0.0029843800   -0.0015883500
   0.0058474000   -0.0030356200   -0.0016058200
   0.0057037200   -0.0029819100   -0.0010969500
   0.0026983800   -0.0028400500    0.0119712300
   0.0290966700   -0.0034651800    0.0477182000
   0.0727845300    0.0223375400    0.0481168100
   0.0730551900   -0.0282645600    0.0472734000
   0.0060082500   -0.0027575200   -0.0001758100
   0.0060100600   -0.0027588500   -0.0001661300
   0.0060107000   -0.0027579900   -0.0001661100
   0.0060105200   -0.0027573200   -0.0001665900
  -0.0048331000    0.0028933000    0.0004941000
  -0.0045396000    0.0029704400    0.0005205100
  -0.0047550700    0.0026785000    0.0005116400
  -0.0046240000    0.0028446200    0.0000369000
  -0.0046946300    0.0024563800    0.0005467300
  -0.0049337300    0.0025345800    0.0005218600
  -0.0048825600    0.0027047500    0.0005295200
  -0.0047565700    0.0025652800    0.0000741600

1    
 -0.0033262977306827   0.0000001499234164  -0.0094305749233214
   0.1970677300    0.0039713700    0.1351431500
  -0.0436597600    0.0031089500    0.0056329600
  -0.0088129700    0.0232311200    0.0056952600
  -0.0089025300   -0.0169580000    0.0055837600
  -0.0038848400    0.0031783700   -0.0015601100
  -0.0038981100    0.0031796900   -0.0015744600
  -0.0038936200    0.0031823900   -0.0015744000
  -0.0038927000    0.0031754800   -0.0015744900
   0.0051138100   -0.0033660900    0.0016576300
   0.0052172600   -0.0032899700    0.0016939800
   0.0051003000   -0.0034161200    0.0016751700
   0.0052444200   -0.0033521700    0.0011680100
   0.0059919800   -0.0032851400    0.0015610800
   0.0058825700   -0.0032091000    0.0015224700
   0.0058720000   -0.0031496800    0.0015420500
   0.0060162300   -0.0032098700    0.0010971400
   0.0070083300   -0.0026604300   -0.0120279700
  -0.0193624500   -0.0032658400   -0.0477612900
  -0.0633220500   -0.0280800100   -0.0473527700
  -0.0631396200    0.0225733000   -0.0481206400
   0.0031013200   -0.0027164700    0.0002160300
   0.0031016400   -0.0027167200    0.0002064000
   0.0031010600   -0.0027169600    0.0002058700
   0.0030996400   -0.0027166300    0.0002069500
  -0.0044711400    0.0028468400   -0.0004694200
  -0.0047137700    0.0027692200   -0.0004920200
  -0.0045246200    0.0030144500   -0.0004856900
  -0.0046539900    0.0028779600   -0.0000216400
  -0.0050963500    0.0028754700   -0.0005815300
  -0.0048004800    0.0027968800   -0.0005531000
  -0.0048797300    0.0025775400   -0.0005608000
  -0.0050095500    0.0027501700   -0.0000975900

17   
  0.0033262977306827  -0.0000001499234164   0.0094305749233214
  -0.0084743800    0.0031877300    0.0107256300
   0.0179413200    0.0037896200    0.0464866300
   0.0618420000    0.0285672800    0.0460738500
   0.0616565100   -0.0220145400    0.0468545800
  -0.0033286800    0.0031906600   -0.0015171000
  -0.0033274200    0.0031904600   -0.0015077000
  -0.0033274200    0.0031903800   -0.0015093400
  -0.0033258800    0.0031919800   -0.0015056500
   0.0053455000   -0.0031166000    0.0017723200
   0.0054263300   -0.0030121900    0.0018610200
   0.0052953100   -0.0031105800    0.0018157000
   0.0054456100   -0.0030700700    0.0013492300
   0.0057808000   -0.0030840600    0.0018397300
   0.0057134700   -0.0030157700    0.0017471400
   0.0056895400   -0.0030018200    0.0017928700
   0.0058110500   -0.0030342800    0.0013333900
  -0.1957922000   -0.0037530400   -0.1356810400
   0.0446690900   -0.0028882900   -0.0073187800
   0.0102296200   -0.0227795500   -0.0073777500
   0.0103294800    0.0169380800   -0.0072746200
   0.0029091900   -0.0029849100    0.0002399100
   0.0029059000   -0.0029861300    0.0001596500
   0.0029087500   -0.0029854100    0.0001601600
   0.0029082100   -0.0029858400    0.0001598800
  -0.0058475000    0.0029023600   -0.0000993100
  -0.0055809200    0.0029243200    0.0000218100
  -0.0057337500    0.0026784900   -0.0000480600
  -0.0057159000    0.0028274700   -0.0002027900
  -0.0054538700    0.0027278200   -0.0000069400
  -0.0057276300    0.0027373200   -0.0000871100
  -0.0055977700    0.0029662600   -0.0000537800
  -0.0055743600    0.0028128900   -0.0002035400

17   
 -0.0033262977306827   0.0000001499234164  -0.0094305749233214
  -0.0022525400    0.0032005500   -0.0108062500
  -0.0286421100    0.0038213300   -0.0465444600
  -0.0723560300   -0.0219932600   -0.0469433700
  -0.0726183300    0.0286338700   -0.0461021900
  -0.0089812200    0.0031845500    0.0013669300
  -0.0089809800    0.0031820300    0.0013585900
  -0.0089782900    0.0031818600    0.0013555100
  -0.0089772800    0.0031846000    0.0013606000
   0.0051453000   -0.0030503200   -0.0016778800
   0.0050749200   -0.0030996700   -0.0017710900
   0.0051527300   -0.0030214200   -0.0017244700
   0.0050528700   -0.0030561900   -0.0012640000
   0.0054507000   -0.0027701700   -0.0017233800
   0.0055152700   -0.0028750600   -0.0016330900
   0.0055737300   -0.0028700700   -0.0016772700
   0.0054265000   -0.0028358400   -0.0012101900
   0.2061849600   -0.0039209900    0.1358332600
  -0.0343117800   -0.0029739500    0.0073795400
   0.0000438200    0.0168622000    0.0073180300
   0.0001462800   -0.0228732700    0.0074581100
   0.0081942800   -0.0027152500   -0.0002531200
   0.0081934400   -0.0027167100   -0.0001727500
   0.0081957900   -0.0027168700   -0.0001721600
   0.0081996700   -0.0027145800   -0.0001739800
  -0.0043052800    0.0026467500    0.0000136900
  -0.0045767000    0.0026373500   -0.0000526200
  -0.0044330200    0.0028732800   -0.0000160300
  -0.0044644000    0.0027207400    0.0001335400
  -0.0045612700    0.0026097800   -0.0000218800
  -0.0042858000    0.0025872700    0.0001070600
  -0.0044039200    0.0023604700    0.0000489600
  -0.0044212900    0.0025169900    0.0002063400
