mesh: [     9,     9,     4 ]
nqpoint: 50     
reciprocal_lattice:
- [   0.40533564,   0.23404500,   0.00000000 ] # a*
- [   0.00002110,   0.46805346,   0.00000000 ] # b*
- [   0.00000000,   0.00000000,   0.14296392 ] # c*
natom:   4      
lattice:
- [     2.467155442383188,    -0.000111200019553,     0.000000000000000 ] # a
- [    -1.233674023183305,     2.136563688137034,     0.000000000000000 ] # b
- [     0.000000000000000,     0.000000000000000,     6.994772005000000 ] # c
points:
- symbol: C  # 1
  coordinates: [  0.999999697166835,  0.000000349172772,  0.250000000000000 ]
  mass: 12.010700
- symbol: C  # 2
  coordinates: [  0.000000349172772,  0.999999697166835,  0.750000000000000 ]
  mass: 12.010700
- symbol: C  # 3
  coordinates: [  0.333298929956719,  0.666701052703672,  0.250000000000000 ]
  mass: 12.010700
- symbol: C  # 4
  coordinates: [  0.666701052703672,  0.333298929956719,  0.750000000000000 ]
  mass: 12.010700
phonon:
- q-position: [    0.0000000,    0.0000000,    0.1250000 ]
  weight: 2    
  band:
  - # 1
    frequency:    -5.2697395514
  - # 2
    frequency:    -4.2171343398
  - # 3
    frequency:    -0.9618613860
  - # 4
    frequency:    -0.1427182265
  - # 5
    frequency:     0.7176302945
  - # 6
    frequency:     2.7325978779
  - # 7
    frequency:    25.0110747916
  - # 8
    frequency:    26.1197294936
  - # 9
    frequency:    44.1808544698
  - # 10
    frequency:    44.3408680416
  - # 11
    frequency:    44.4786193134
  - # 12
    frequency:    44.6941795311

- q-position: [    0.1111111,    0.0000000,    0.1250000 ]
  weight: 8    
  band:
  - # 1
    frequency:     3.5420589778
  - # 2
    frequency:     4.0542025766
  - # 3
    frequency:     4.8783280433
  - # 4
    frequency:     6.0426412622
  - # 5
    frequency:    10.5827722273
  - # 6
    frequency:    11.4578195877
  - # 7
    frequency:    24.5038742870
  - # 8
    frequency:    25.5221697831
  - # 9
    frequency:    43.9854428103
  - # 10
    frequency:    44.3608962163
  - # 11
    frequency:    44.4931200281
  - # 12
    frequency:    44.7225920388

- q-position: [    0.2222222,    0.0000000,    0.1250000 ]
  weight: 8    
  band:
  - # 1
    frequency:     7.7716025171
  - # 2
    frequency:     8.2863645239
  - # 3
    frequency:    10.6845631298
  - # 4
    frequency:    11.5823966421
  - # 5
    frequency:    21.6483894736
  - # 6
    frequency:    22.0646437631
  - # 7
    frequency:    23.0953521251
  - # 8
    frequency:    23.8651372152
  - # 9
    frequency:    43.3561488833
  - # 10
    frequency:    43.6592542429
  - # 11
    frequency:    44.7099393889
  - # 12
    frequency:    44.8836627550

- q-position: [    0.3333333,    0.0000000,    0.1250000 ]
  weight: 8    
  band:
  - # 1
    frequency:    11.0789859282
  - # 2
    frequency:    11.4556295993
  - # 3
    frequency:    15.5401544883
  - # 4
    frequency:    15.9669928243
  - # 5
    frequency:    21.1107469686
  - # 6
    frequency:    21.5424411419
  - # 7
    frequency:    30.7574597217
  - # 8
    frequency:    30.9938017930
  - # 9
    frequency:    42.5058090295
  - # 10
    frequency:    42.6914478952
  - # 11
    frequency:    44.1818726267
  - # 12
    frequency:    44.2827750840

- q-position: [    0.4444444,    0.0000000,    0.1250000 ]
  weight: 8    
  band:
  - # 1
    frequency:    13.6179488341
  - # 2
    frequency:    13.8433474219
  - # 3
    frequency:    18.3105922901
  - # 4
    frequency:    18.4398959959
  - # 5
    frequency:    19.1991360154
  - # 6
    frequency:    19.3249469863
  - # 7
    frequency:    37.6053798204
  - # 8
    frequency:    37.7136198457
  - # 9
    frequency:    41.8628244451
  - # 10
    frequency:    41.9225277007
  - # 11
    frequency:    42.0490025653
  - # 12
    frequency:    42.0765119467

- q-position: [    0.1111111,    0.1111111,    0.1250000 ]
  weight: 4    
  band:
  - # 1
    frequency:     7.1081677051
  - # 2
    frequency:     7.5853193830
  - # 3
    frequency:     9.5284564489
  - # 4
    frequency:    10.7770128914
  - # 5
    frequency:    18.5650621317
  - # 6
    frequency:    19.0048245867
  - # 7
    frequency:    23.4740177584
  - # 8
    frequency:    24.3114652066
  - # 9
    frequency:    43.6297731181
  - # 10
    frequency:    44.0352681050
  - # 11
    frequency:    44.6414837875
  - # 12
    frequency:    44.7690795688

- q-position: [    0.2222222,    0.1111111,    0.1250000 ]
  weight: 8    
  band:
  - # 1
    frequency:    10.3295181866
  - # 2
    frequency:    10.6579302641
  - # 3
    frequency:    15.3317779573
  - # 4
    frequency:    16.0031877858
  - # 5
    frequency:    21.7060022956
  - # 6
    frequency:    22.2380001768
  - # 7
    frequency:    26.9778320514
  - # 8
    frequency:    27.2710176838
  - # 9
    frequency:    43.0855472052
  - # 10
    frequency:    43.3525653976
  - # 11
    frequency:    44.3157475768
  - # 12
    frequency:    44.4471015765

- q-position: [    0.3333333,    0.1111111,    0.1250000 ]
  weight: 8    
  band:
  - # 1
    frequency:    13.1123878690
  - # 2
    frequency:    13.3322077120
  - # 3
    frequency:    19.4096802951
  - # 4
    frequency:    19.6491093706
  - # 5
    frequency:    19.7663314583
  - # 6
    frequency:    19.8441522388
  - # 7
    frequency:    34.1269017896
  - # 8
    frequency:    34.3178576991
  - # 9
    frequency:    42.2416166339
  - # 10
    frequency:    42.3531467681
  - # 11
    frequency:    43.1225761727
  - # 12
    frequency:    43.2315097949

- q-position: [   -0.5555556,    0.1111111,    0.1250000 ]
  weight: 8    
  band:
  - # 1
    frequency:    14.3436983438
  - # 2
    frequency:    14.5484715856
  - # 3
    frequency:    18.5547970575
  - # 4
    frequency:    18.5909998375
  - # 5
    frequency:    20.9980275691
  - # 6
    frequency:    21.1234861396
  - # 7
    frequency:    39.2635223552
  - # 8
    frequency:    39.3156034588
  - # 9
    frequency:    39.5530028605
  - # 10
    frequency:    39.6061545887
  - # 11
    frequency:    42.5133870780
  - # 12
    frequency:    42.5323446572

- q-position: [   -0.4444444,    0.1111111,    0.1250000 ]
  weight: 8    
  band:
  - # 1
    frequency:    12.4659410616
  - # 2
    frequency:    12.8673283324
  - # 3
    frequency:    19.6359901691
  - # 4
    frequency:    19.7226246053
  - # 5
    frequency:    19.9810529256
  - # 6
    frequency:    20.2338701049
  - # 7
    frequency:    34.2274649265
  - # 8
    frequency:    34.3241733390
  - # 9
    frequency:    42.2208000131
  - # 10
    frequency:    42.3114140726
  - # 11
    frequency:    43.1184421829
  - # 12
    frequency:    43.1297787224

- q-position: [   -0.3333333,    0.1111111,    0.1250000 ]
  weight: 8    
  band:
  - # 1
    frequency:     9.5180077722
  - # 2
    frequency:    10.0745309613
  - # 3
    frequency:    15.6745549238
  - # 4
    frequency:    15.9937229068
  - # 5
    frequency:    22.0013201681
  - # 6
    frequency:    22.5812798141
  - # 7
    frequency:    27.0575756563
  - # 8
    frequency:    27.2880843853
  - # 9
    frequency:    43.0788602315
  - # 10
    frequency:    43.2475647751
  - # 11
    frequency:    44.2820344820
  - # 12
    frequency:    44.4140870752

- q-position: [   -0.2222222,    0.1111111,    0.1250000 ]
  weight: 8    
  band:
  - # 1
    frequency:     6.2617239916
  - # 2
    frequency:     7.0075485066
  - # 3
    frequency:    10.0834357117
  - # 4
    frequency:    10.7541205465
  - # 5
    frequency:    18.5554655584
  - # 6
    frequency:    19.0383470787
  - # 7
    frequency:    23.6650433870
  - # 8
    frequency:    24.5331040175
  - # 9
    frequency:    43.6928093325
  - # 10
    frequency:    43.8647719544
  - # 11
    frequency:    44.5437251395
  - # 12
    frequency:    44.8457061991

- q-position: [   -0.1111111,    0.1111111,    0.1250000 ]
  weight: 4    
  band:
  - # 1
    frequency:     3.5135699069
  - # 2
    frequency:     4.5083441298
  - # 3
    frequency:     4.5597716420
  - # 4
    frequency:     5.9935474738
  - # 5
    frequency:    10.3886922932
  - # 6
    frequency:    11.4997569597
  - # 7
    frequency:    24.5695646617
  - # 8
    frequency:    25.5983963529
  - # 9
    frequency:    44.0968397260
  - # 10
    frequency:    44.2279964151
  - # 11
    frequency:    44.3650001829
  - # 12
    frequency:    44.8260658213

- q-position: [    0.2222222,    0.2222222,    0.1250000 ]
  weight: 4    
  band:
  - # 1
    frequency:    12.9338049238
  - # 2
    frequency:    13.1476828494
  - # 3
    frequency:    19.8084275309
  - # 4
    frequency:    20.0288258200
  - # 5
    frequency:    21.3045864496
  - # 6
    frequency:    21.7105810958
  - # 7
    frequency:    31.7947062474
  - # 8
    frequency:    31.9631961343
  - # 9
    frequency:    42.7422679241
  - # 10
    frequency:    42.8390015589
  - # 11
    frequency:    43.1639155164
  - # 12
    frequency:    43.3204455195

- q-position: [    0.3333333,    0.2222222,    0.1250000 ]
  weight: 8    
  band:
  - # 1
    frequency:    15.0154015157
  - # 2
    frequency:    15.1560439243
  - # 3
    frequency:    17.9238679081
  - # 4
    frequency:    17.9761889712
  - # 5
    frequency:    25.3024155847
  - # 6
    frequency:    25.5177002554
  - # 7
    frequency:    35.9379916318
  - # 8
    frequency:    36.0449411493
  - # 9
    frequency:    39.8879183262
  - # 10
    frequency:    39.9434802723
  - # 11
    frequency:    43.3507978178
  - # 12
    frequency:    43.3907437813

- q-position: [   -0.5555556,    0.2222222,    0.1250000 ]
  weight: 8    
  band:
  - # 1
    frequency:    14.2918804268
  - # 2
    frequency:    14.6353918234
  - # 3
    frequency:    18.4294397333
  - # 4
    frequency:    18.4807664250
  - # 5
    frequency:    25.4425031100
  - # 6
    frequency:    25.5150419070
  - # 7
    frequency:    36.0303840256
  - # 8
    frequency:    36.0515781012
  - # 9
    frequency:    39.8332216151
  - # 10
    frequency:    39.8820832938
  - # 11
    frequency:    43.3352104829
  - # 12
    frequency:    43.3503524219

- q-position: [   -0.4444444,    0.2222222,    0.1250000 ]
  weight: 8    
  band:
  - # 1
    frequency:    11.8858664021
  - # 2
    frequency:    12.3887547103
  - # 3
    frequency:    20.3277190581
  - # 4
    frequency:    20.6361598936
  - # 5
    frequency:    21.6358701078
  - # 6
    frequency:    21.6907599565
  - # 7
    frequency:    31.9161604795
  - # 8
    frequency:    31.9747936574
  - # 9
    frequency:    42.6929108096
  - # 10
    frequency:    42.7644463171
  - # 11
    frequency:    43.1602592864
  - # 12
    frequency:    43.1936557438

- q-position: [   -0.3333333,    0.2222222,    0.1250000 ]
  weight: 8    
  band:
  - # 1
    frequency:     9.2550889954
  - # 2
    frequency:     9.9039105390
  - # 3
    frequency:    15.7279537031
  - # 4
    frequency:    15.9731674533
  - # 5
    frequency:    22.0877046675
  - # 6
    frequency:    22.6832538860
  - # 7
    frequency:    27.1125832929
  - # 8
    frequency:    27.2955647692
  - # 9
    frequency:    43.1250204984
  - # 10
    frequency:    43.1956901527
  - # 11
    frequency:    44.2147815372
  - # 12
    frequency:    44.4369103886

- q-position: [   -0.2222222,    0.2222222,    0.1250000 ]
  weight: 4    
  band:
  - # 1
    frequency:     6.9703478539
  - # 2
    frequency:     7.7512020497
  - # 3
    frequency:    11.0263210741
  - # 4
    frequency:    11.5474815264
  - # 5
    frequency:    21.7294688772
  - # 6
    frequency:    22.0920964742
  - # 7
    frequency:    23.2955954944
  - # 8
    frequency:    24.0989899234
  - # 9
    frequency:    43.4265590651
  - # 10
    frequency:    43.5311828966
  - # 11
    frequency:    44.5962413640
  - # 12
    frequency:    44.9264141839

- q-position: [   -0.6666667,    0.3333333,    0.1250000 ]
  weight: 4    
  band:
  - # 1
    frequency:    16.0210712756
  - # 2
    frequency:    16.1948474156
  - # 3
    frequency:    16.8174410922
  - # 4
    frequency:    16.9121213757
  - # 5
    frequency:    28.9359618321
  - # 6
    frequency:    28.9669022148
  - # 7
    frequency:    37.0419251016
  - # 8
    frequency:    37.0617930912
  - # 9
    frequency:    37.0792022922
  - # 10
    frequency:    37.1024368705
  - # 11
    frequency:    43.7047407968
  - # 12
    frequency:    43.7114247789

- q-position: [   -0.5555556,    0.3333333,    0.1250000 ]
  weight: 8    
  band:
  - # 1
    frequency:    14.2816301522
  - # 2
    frequency:    14.6054985867
  - # 3
    frequency:    18.4486183842
  - # 4
    frequency:    18.4956510848
  - # 5
    frequency:    25.4816491462
  - # 6
    frequency:    25.5074157851
  - # 7
    frequency:    36.0136642324
  - # 8
    frequency:    36.0322942004
  - # 9
    frequency:    39.8584357789
  - # 10
    frequency:    39.8697886793
  - # 11
    frequency:    43.3397306731
  - # 12
    frequency:    43.3451151247

- q-position: [   -0.4444444,    0.3333333,    0.1250000 ]
  weight: 8    
  band:
  - # 1
    frequency:    12.3528104784
  - # 2
    frequency:    12.8039027727
  - # 3
    frequency:    19.6476821175
  - # 4
    frequency:    19.7067664495
  - # 5
    frequency:    20.0335670561
  - # 6
    frequency:    20.2956836002
  - # 7
    frequency:    34.2678234858
  - # 8
    frequency:    34.3229317916
  - # 9
    frequency:    42.2490961805
  - # 10
    frequency:    42.2674616588
  - # 11
    frequency:    43.0742020171
  - # 12
    frequency:    43.1597076783

- q-position: [   -0.3333333,    0.3333333,    0.1250000 ]
  weight: 4    
  band:
  - # 1
    frequency:    10.4469318147
  - # 2
    frequency:    11.0327577273
  - # 3
    frequency:    15.7229672800
  - # 4
    frequency:    15.9109425793
  - # 5
    frequency:    21.3601632905
  - # 6
    frequency:    21.8357802651
  - # 7
    frequency:    30.8855771190
  - # 8
    frequency:    31.0052642872
  - # 9
    frequency:    42.5472025839
  - # 10
    frequency:    42.6004134945
  - # 11
    frequency:    44.0950087817
  - # 12
    frequency:    44.2751205782

- q-position: [   -0.5555556,    0.4444444,    0.1250000 ]
  weight: 4    
  band:
  - # 1
    frequency:    14.2614495401
  - # 2
    frequency:    14.4634352132
  - # 3
    frequency:    18.6172408943
  - # 4
    frequency:    18.6642314503
  - # 5
    frequency:    21.0703808522
  - # 6
    frequency:    21.0860575362
  - # 7
    frequency:    39.2783079914
  - # 8
    frequency:    39.2903884742
  - # 9
    frequency:    39.5613959723
  - # 10
    frequency:    39.6073199934
  - # 11
    frequency:    42.5129528075
  - # 12
    frequency:    42.5156179077

- q-position: [   -0.4444444,    0.4444444,    0.1250000 ]
  weight: 4    
  band:
  - # 1
    frequency:    13.4602482660
  - # 2
    frequency:    13.7552393843
  - # 3
    frequency:    18.3692737477
  - # 4
    frequency:    18.3941263671
  - # 5
    frequency:    19.2823023866
  - # 6
    frequency:    19.4220588938
  - # 7
    frequency:    37.6622808746
  - # 8
    frequency:    37.7184193364
  - # 9
    frequency:    41.8804560178
  - # 10
    frequency:    41.8833412912
  - # 11
    frequency:    42.0043364338
  - # 12
    frequency:    42.0810524680

- q-position: [    0.0000000,    0.0000000,    0.3750000 ]
  weight: 2    
  band:
  - # 1
    frequency:    -3.8344505233
  - # 2
    frequency:    -3.8206876344
  - # 3
    frequency:    -2.7072136950
  - # 4
    frequency:    -1.7330045033
  - # 5
    frequency:     1.9311768762
  - # 6
    frequency:     2.6252847979
  - # 7
    frequency:    25.7380075190
  - # 8
    frequency:    26.1952163966
  - # 9
    frequency:    42.6859868823
  - # 10
    frequency:    42.6939865709
  - # 11
    frequency:    42.7419697126
  - # 12
    frequency:    42.9121114800

- q-position: [    0.1111111,    0.0000000,    0.3750000 ]
  weight: 8    
  band:
  - # 1
    frequency:     4.4052644933
  - # 2
    frequency:     4.7657595189
  - # 3
    frequency:     4.8540992143
  - # 4
    frequency:     5.7922840828
  - # 5
    frequency:    10.8356406432
  - # 6
    frequency:    11.2131766480
  - # 7
    frequency:    25.1685017253
  - # 8
    frequency:    25.5884968734
  - # 9
    frequency:    42.6330747759
  - # 10
    frequency:    42.7858766492
  - # 11
    frequency:    43.0744274478
  - # 12
    frequency:    43.1759494596

- q-position: [    0.2222222,    0.0000000,    0.3750000 ]
  weight: 8    
  band:
  - # 1
    frequency:     7.9382833678
  - # 2
    frequency:     8.1578664334
  - # 3
    frequency:    11.1583867177
  - # 4
    frequency:    11.5281773196
  - # 5
    frequency:    21.7958029890
  - # 6
    frequency:    21.9717879097
  - # 7
    frequency:    23.5902617523
  - # 8
    frequency:    23.9078221037
  - # 9
    frequency:    42.4348358474
  - # 10
    frequency:    42.5608750669
  - # 11
    frequency:    43.7756591612
  - # 12
    frequency:    43.8485301995

- q-position: [    0.3333333,    0.0000000,    0.3750000 ]
  weight: 8    
  band:
  - # 1
    frequency:    11.1716876459
  - # 2
    frequency:    11.3288816149
  - # 3
    frequency:    15.7711978491
  - # 4
    frequency:    15.9479421024
  - # 5
    frequency:    21.3783051504
  - # 6
    frequency:    21.5564246749
  - # 7
    frequency:    30.8957144684
  - # 8
    frequency:    30.9941533815
  - # 9
    frequency:    42.1068685733
  - # 10
    frequency:    42.1838069911
  - # 11
    frequency:    43.7459150635
  - # 12
    frequency:    43.7874613806

- q-position: [    0.4444444,    0.0000000,    0.3750000 ]
  weight: 8    
  band:
  - # 1
    frequency:    13.6789118617
  - # 2
    frequency:    13.7723735683
  - # 3
    frequency:    18.3636882178
  - # 4
    frequency:    18.4172350992
  - # 5
    frequency:    19.2618594680
  - # 6
    frequency:    19.3138311242
  - # 7
    frequency:    37.6928486143
  - # 8
    frequency:    37.7375267910
  - # 9
    frequency:    41.8231893253
  - # 10
    frequency:    41.8477756639
  - # 11
    frequency:    41.9533178944
  - # 12
    frequency:    41.9646725013

- q-position: [    0.1111111,    0.1111111,    0.3750000 ]
  weight: 4    
  band:
  - # 1
    frequency:     7.3050228853
  - # 2
    frequency:     7.5105724233
  - # 3
    frequency:    10.0249569020
  - # 4
    frequency:    10.5416759571
  - # 5
    frequency:    18.6202739992
  - # 6
    frequency:    18.8066728576
  - # 7
    frequency:    24.0118709624
  - # 8
    frequency:    24.3574669024
  - # 9
    frequency:    42.6517764237
  - # 10
    frequency:    42.8214636649
  - # 11
    frequency:    43.5601156097
  - # 12
    frequency:    43.6117249178

- q-position: [    0.2222222,    0.1111111,    0.3750000 ]
  weight: 8    
  band:
  - # 1
    frequency:    10.4438059245
  - # 2
    frequency:    10.5817025763
  - # 3
    frequency:    15.5510357116
  - # 4
    frequency:    15.8305783716
  - # 5
    frequency:    22.0348129972
  - # 6
    frequency:    22.2544563010
  - # 7
    frequency:    27.0219504412
  - # 8
    frequency:    27.1444015830
  - # 9
    frequency:    42.5883060392
  - # 10
    frequency:    42.6982063592
  - # 11
    frequency:    43.7616296607
  - # 12
    frequency:    43.8158659599

- q-position: [    0.3333333,    0.1111111,    0.3750000 ]
  weight: 8    
  band:
  - # 1
    frequency:    13.1807039160
  - # 2
    frequency:    13.2716985538
  - # 3
    frequency:    19.5023913895
  - # 4
    frequency:    19.6504256335
  - # 5
    frequency:    19.7535073080
  - # 6
    frequency:    19.8340569496
  - # 7
    frequency:    34.1847198766
  - # 8
    frequency:    34.2638688443
  - # 9
    frequency:    42.1435158529
  - # 10
    frequency:    42.1891997699
  - # 11
    frequency:    43.0144193895
  - # 12
    frequency:    43.0595180838

- q-position: [   -0.5555556,    0.1111111,    0.3750000 ]
  weight: 8    
  band:
  - # 1
    frequency:    14.3952693189
  - # 2
    frequency:    14.4806251461
  - # 3
    frequency:    18.5608674222
  - # 4
    frequency:    18.5757184871
  - # 5
    frequency:    21.0791279588
  - # 6
    frequency:    21.1309836603
  - # 7
    frequency:    39.2844586544
  - # 8
    frequency:    39.3075887985
  - # 9
    frequency:    39.6167191172
  - # 10
    frequency:    39.6308323883
  - # 11
    frequency:    42.5440834081
  - # 12
    frequency:    42.5520378616

- q-position: [   -0.4444444,    0.1111111,    0.3750000 ]
  weight: 8    
  band:
  - # 1
    frequency:    12.5263858892
  - # 2
    frequency:    12.6934782225
  - # 3
    frequency:    19.8700719359
  - # 4
    frequency:    19.9056580918
  - # 5
    frequency:    20.1404858135
  - # 6
    frequency:    20.2447263181
  - # 7
    frequency:    34.3952268689
  - # 8
    frequency:    34.4346605538
  - # 9
    frequency:    42.0137829295
  - # 10
    frequency:    42.0513092351
  - # 11
    frequency:    42.8703132413
  - # 12
    frequency:    42.8747051877

- q-position: [   -0.3333333,    0.1111111,    0.3750000 ]
  weight: 8    
  band:
  - # 1
    frequency:     9.6246728638
  - # 2
    frequency:     9.8588624022
  - # 3
    frequency:    16.1120663515
  - # 4
    frequency:    16.2424881357
  - # 5
    frequency:    22.3757534153
  - # 6
    frequency:    22.6148419731
  - # 7
    frequency:    27.2574230869
  - # 8
    frequency:    27.3528320056
  - # 9
    frequency:    42.4168368789
  - # 10
    frequency:    42.4876800288
  - # 11
    frequency:    43.6321676899
  - # 12
    frequency:    43.6859346831

- q-position: [   -0.2222222,    0.1111111,    0.3750000 ]
  weight: 8    
  band:
  - # 1
    frequency:     6.4670125448
  - # 2
    frequency:     6.7866614833
  - # 3
    frequency:    10.5836183971
  - # 4
    frequency:    10.8584567174
  - # 5
    frequency:    18.9045122830
  - # 6
    frequency:    19.1062961701
  - # 7
    frequency:    24.2319168319
  - # 8
    frequency:    24.5897998341
  - # 9
    frequency:    42.5348287722
  - # 10
    frequency:    42.6072250656
  - # 11
    frequency:    43.4532831879
  - # 12
    frequency:    43.5791876412

- q-position: [   -0.1111111,    0.1111111,    0.3750000 ]
  weight: 4    
  band:
  - # 1
    frequency:     3.9129118297
  - # 2
    frequency:     4.3614513559
  - # 3
    frequency:     5.0230562189
  - # 4
    frequency:     5.6520321336
  - # 5
    frequency:    11.1196512291
  - # 6
    frequency:    11.5717124864
  - # 7
    frequency:    25.2441491046
  - # 8
    frequency:    25.6683507340
  - # 9
    frequency:    42.6104394017
  - # 10
    frequency:    42.6649110159
  - # 11
    frequency:    43.0139709666
  - # 12
    frequency:    43.2093837370

- q-position: [    0.2222222,    0.2222222,    0.3750000 ]
  weight: 4    
  band:
  - # 1
    frequency:    13.0048538118
  - # 2
    frequency:    13.0933681865
  - # 3
    frequency:    19.9279339687
  - # 4
    frequency:    20.0189620342
  - # 5
    frequency:    21.4191709690
  - # 6
    frequency:    21.5875373637
  - # 7
    frequency:    31.8076847141
  - # 8
    frequency:    31.8769661416
  - # 9
    frequency:    42.6040580724
  - # 10
    frequency:    42.6449424465
  - # 11
    frequency:    43.0639297728
  - # 12
    frequency:    43.1291203081

- q-position: [    0.3333333,    0.2222222,    0.3750000 ]
  weight: 8    
  band:
  - # 1
    frequency:    15.0573499523
  - # 2
    frequency:    15.1166548882
  - # 3
    frequency:    17.9041502994
  - # 4
    frequency:    17.9250613605
  - # 5
    frequency:    25.3959112972
  - # 6
    frequency:    25.4850087514
  - # 7
    frequency:    35.9997315108
  - # 8
    frequency:    36.0440940104
  - # 9
    frequency:    40.0140664362
  - # 10
    frequency:    40.0373762624
  - # 11
    frequency:    43.4363505791
  - # 12
    frequency:    43.4535759195

- q-position: [   -0.5555556,    0.2222222,    0.3750000 ]
  weight: 8    
  band:
  - # 1
    frequency:    14.3223092891
  - # 2
    frequency:    14.4659530744
  - # 3
    frequency:    18.4660621635
  - # 4
    frequency:    18.4872032171
  - # 5
    frequency:    25.6690354881
  - # 6
    frequency:    25.6989529391
  - # 7
    frequency:    36.1934082020
  - # 8
    frequency:    36.2023613718
  - # 9
    frequency:    39.7929136121
  - # 10
    frequency:    39.8135131930
  - # 11
    frequency:    43.3567659252
  - # 12
    frequency:    43.3622404626

- q-position: [   -0.4444444,    0.2222222,    0.3750000 ]
  weight: 8    
  band:
  - # 1
    frequency:    11.9426362494
  - # 2
    frequency:    12.1525852827
  - # 3
    frequency:    20.5310756251
  - # 4
    frequency:    20.6582082416
  - # 5
    frequency:    21.9978496593
  - # 6
    frequency:    22.0201652187
  - # 7
    frequency:    32.0892775224
  - # 8
    frequency:    32.1126899628
  - # 9
    frequency:    42.3617892785
  - # 10
    frequency:    42.3931381876
  - # 11
    frequency:    42.8860450599
  - # 12
    frequency:    42.8977719344

- q-position: [   -0.3333333,    0.2222222,    0.3750000 ]
  weight: 8    
  band:
  - # 1
    frequency:     9.3619757834
  - # 2
    frequency:     9.6352724252
  - # 3
    frequency:    16.0746975878
  - # 4
    frequency:    16.1766941353
  - # 5
    frequency:    22.4770986803
  - # 6
    frequency:    22.7225713370
  - # 7
    frequency:    27.4430026701
  - # 8
    frequency:    27.5185132072
  - # 9
    frequency:    42.4449136521
  - # 10
    frequency:    42.4745711733
  - # 11
    frequency:    43.5141522348
  - # 12
    frequency:    43.6062394243

- q-position: [   -0.2222222,    0.2222222,    0.3750000 ]
  weight: 4    
  band:
  - # 1
    frequency:     7.1417990105
  - # 2
    frequency:     7.4746229971
  - # 3
    frequency:    11.3565239381
  - # 4
    frequency:    11.5758218026
  - # 5
    frequency:    22.2047550478
  - # 6
    frequency:    22.3546359412
  - # 7
    frequency:    23.8223292701
  - # 8
    frequency:    24.1534666917
  - # 9
    frequency:    42.3891403110
  - # 10
    frequency:    42.4337892962
  - # 11
    frequency:    43.5942297428
  - # 12
    frequency:    43.7333273137

- q-position: [   -0.6666667,    0.3333333,    0.3750000 ]
  weight: 4    
  band:
  - # 1
    frequency:    16.0077121621
  - # 2
    frequency:    16.0895203573
  - # 3
    frequency:    16.8325774207
  - # 4
    frequency:    16.8627270292
  - # 5
    frequency:    29.0925762524
  - # 6
    frequency:    29.1069374587
  - # 7
    frequency:    37.1307435585
  - # 8
    frequency:    37.1406553152
  - # 9
    frequency:    37.2433117029
  - # 10
    frequency:    37.2517762522
  - # 11
    frequency:    43.8128969348
  - # 12
    frequency:    43.8143357238

- q-position: [   -0.5555556,    0.3333333,    0.3750000 ]
  weight: 8    
  band:
  - # 1
    frequency:    14.3071945383
  - # 2
    frequency:    14.4426415635
  - # 3
    frequency:    18.4829018852
  - # 4
    frequency:    18.5028289441
  - # 5
    frequency:    25.7422062907
  - # 6
    frequency:    25.7526981928
  - # 7
    frequency:    36.1253210698
  - # 8
    frequency:    36.1327941363
  - # 9
    frequency:    39.8239011132
  - # 10
    frequency:    39.8285589354
  - # 11
    frequency:    43.3568480708
  - # 12
    frequency:    43.3585837228

- q-position: [   -0.4444444,    0.3333333,    0.3750000 ]
  weight: 8    
  band:
  - # 1
    frequency:    12.4153981431
  - # 2
    frequency:    12.6033306323
  - # 3
    frequency:    19.8337466532
  - # 4
    frequency:    19.8581120489
  - # 5
    frequency:    20.2031493115
  - # 6
    frequency:    20.3112471726
  - # 7
    frequency:    34.4974300642
  - # 8
    frequency:    34.5200543633
  - # 9
    frequency:    42.0295356955
  - # 10
    frequency:    42.0389049205
  - # 11
    frequency:    42.7972850165
  - # 12
    frequency:    42.8308233104

- q-position: [   -0.3333333,    0.3333333,    0.3750000 ]
  weight: 4    
  band:
  - # 1
    frequency:    10.5378313997
  - # 2
    frequency:    10.7831227487
  - # 3
    frequency:    15.9066489627
  - # 4
    frequency:    15.9850748211
  - # 5
    frequency:    21.6703839863
  - # 6
    frequency:    21.8665199678
  - # 7
    frequency:    31.2387624994
  - # 8
    frequency:    31.2881918199
  - # 9
    frequency:    42.0728447972
  - # 10
    frequency:    42.0955042408
  - # 11
    frequency:    43.5287955001
  - # 12
    frequency:    43.6041972793

- q-position: [   -0.5555556,    0.4444444,    0.3750000 ]
  weight: 4    
  band:
  - # 1
    frequency:    14.3055087982
  - # 2
    frequency:    14.3895427905
  - # 3
    frequency:    18.6315913262
  - # 4
    frequency:    18.6512715779
  - # 5
    frequency:    21.1730617815
  - # 6
    frequency:    21.1795231206
  - # 7
    frequency:    39.2800714473
  - # 8
    frequency:    39.2848618234
  - # 9
    frequency:    39.6117263407
  - # 10
    frequency:    39.6302833696
  - # 11
    frequency:    42.5260098203
  - # 12
    frequency:    42.5273320459

- q-position: [   -0.4444444,    0.4444444,    0.3750000 ]
  weight: 4    
  band:
  - # 1
    frequency:    13.5255941740
  - # 2
    frequency:    13.6481642191
  - # 3
    frequency:    18.3965892682
  - # 4
    frequency:    18.4068393973
  - # 5
    frequency:    19.3604743223
  - # 6
    frequency:    19.4181031278
  - # 7
    frequency:    37.8200546610
  - # 8
    frequency:    37.8431771668
  - # 9
    frequency:    41.8182734985
  - # 10
    frequency:    41.8195113959
  - # 11
    frequency:    41.8484495456
  - # 12
    frequency:    41.8803917692

